
    -----------------------------------------------------------------------
          Psi4: An Open-Source Ab Initio Electronic Structure Package
                               Psi4 1.4a2.dev224 

                         Git: Rev {master} e453b16 


    R. M. Parrish, L. A. Burns, D. G. A. Smith, A. C. Simmonett,
    A. E. DePrince III, E. G. Hohenstein, U. Bozkaya, A. Yu. Sokolov,
    R. Di Remigio, R. M. Richard, J. F. Gonthier, A. M. James,
    H. R. McAlexander, A. Kumar, M. Saitow, X. Wang, B. P. Pritchard,
    P. Verma, H. F. Schaefer III, K. Patkowski, R. A. King, E. F. Valeev,
    F. A. Evangelista, J. M. Turney, T. D. Crawford, and C. D. Sherrill,
    J. Chem. Theory Comput. 13(7) pp 3185--3197 (2017).
    (doi: 10.1021/acs.jctc.7b00174)


                         Additional Contributions by
    P. Kraus, H. Kruse, M. H. Lechner, M. C. Schieber, R. A. Shaw,
    A. Alenaizan, R. Galvelis, Z. L. Glick, S. Lehtola, and J. P. Misiewicz

    -----------------------------------------------------------------------


    Psi4 started on: Thursday, 23 April 2020 05:59PM

    Process ID: 63742
    Host:       node85.bme.utexas.edu
    PSIDATADIR: /home/liuchw/anaconda3/envs/psi4env/share/psi4
    Memory:     500.0 MiB
    Threads:    8
    
  ==> Input File <==

--------------------------------------------------------------------------
#Generated by lconvert.py for sapt job

memory 20 GB

molecule  {
0 1
  N       0.626080   -0.850910    0.805920
  H       0.409190   -1.811500    1.034400
  C      -0.432460   -0.087340    0.294660
  O      -1.530770   -0.588400    0.123590
  C      -0.066880    1.291270    0.019640
  H      -0.809740    1.951810   -0.392840
  C       1.183540    1.717930    0.290530
  H       1.501850    2.733870    0.109830
  N       2.134130    0.886600    0.819080
  H       3.055340    1.223900    1.043430
  C       1.902780   -0.443180    1.128310
  O       2.743810   -1.163920    1.628590
--
0 1
  C      -1.224780   -0.065330    6.415120
  C      -2.541530    0.675960    6.629990
  H      -3.248600    0.057760    7.184850
  H      -2.382030    1.596150    7.194170
  H      -2.999240    0.937460    5.674830
  C      -0.609350   -0.418760    7.766390
  H       0.333820   -0.951140    7.635610
  H      -0.412320    0.480980    8.351200
  H      -1.280640   -1.056500    8.343130
  C      -0.259660    0.828150    5.639330
  H       0.688910    0.315560    5.468970
  H      -0.054370    1.746290    6.192750
  H      -0.682050    1.106640    4.671860
  C      -1.486100   -1.345360    5.624750
  H      -1.949840   -1.123530    4.662130
  H      -0.553520   -1.883760    5.445110
  H      -2.156610   -2.007180    6.174940
units angstrom
no_reorient
symmetry c1
}

set {
scf_type DF
basis aug-cc-pvdz
freeze_core True
guess SAD
}
energy('sapt2+')
--------------------------------------------------------------------------

  Memory set to  18.626 GiB by Python driver.

Scratch directory: /scratch/liuchw/

  //>>>>>>>>>>>>>>>>>>>>>>>>>>>>>>>>>>>//
  //              Dimer HF             //
  //<<<<<<<<<<<<<<<<<<<<<<<<<<<<<<<<<<<//


*** tstart() called on node85.bme.utexas.edu
*** at Thu Apr 23 17:59:03 2020

   => Loading Basis Set <=

    Name: AUG-CC-PVDZ
    Role: ORBITAL
    Keyword: BASIS
    atoms 1, 9                                    entry N          line   218 file /home/liuchw/anaconda3/envs/psi4env/share/psi4/basis/aug-cc-pvdz.gbs 
    atoms 2, 6, 8, 10, 15-17, 19-21, 23-25, 27-29 entry H          line    40 file /home/liuchw/anaconda3/envs/psi4env/share/psi4/basis/aug-cc-pvdz.gbs 
    atoms 3, 5, 7, 11, 13-14, 18, 22, 26          entry C          line   182 file /home/liuchw/anaconda3/envs/psi4env/share/psi4/basis/aug-cc-pvdz.gbs 
    atoms 4, 12                                   entry O          line   254 file /home/liuchw/anaconda3/envs/psi4env/share/psi4/basis/aug-cc-pvdz.gbs 


         ---------------------------------------------------------
                                   SCF
               by Justin Turney, Rob Parrish, Andy Simmonett
                          and Daniel G. A. Smith
                              RHF Reference
                        8 Threads,  19073 MiB Core
         ---------------------------------------------------------

  ==> Geometry <==

    Molecular point group: c1
    Full point group: C1

    Geometry (in Angstrom), charge = 0, multiplicity = 1:

       Center              X                  Y                   Z               Mass       
    ------------   -----------------  -----------------  -----------------  -----------------
         N            0.598824626539    -0.859895414336    -2.104644388894    14.003074004430
         H            0.381934626539    -1.820485414336    -1.876164388894     1.007825032230
         C           -0.459715373461    -0.096325414336    -2.615904388894    12.000000000000
         O           -1.558025373461    -0.597385414336    -2.786974388894    15.994914619570
         C           -0.094135373461     1.282284585664    -2.890924388894    12.000000000000
         H           -0.836995373461     1.942824585664    -3.303404388894     1.007825032230
         C            1.156284626539     1.708944585664    -2.620034388894    12.000000000000
         H            1.474594626539     2.724884585664    -2.800734388894     1.007825032230
         N            2.106874626539     0.877614585664    -2.091484388894    14.003074004430
         H            3.028084626539     1.214914585664    -1.867134388894     1.007825032230
         C            1.875524626539    -0.452165414336    -1.782254388894    12.000000000000
         O            2.716554626539    -1.172905414336    -1.281974388894    15.994914619570
         C           -1.252035373461    -0.074315414336     3.504555611106    12.000000000000
         C           -2.568785373461     0.666974585664     3.719425611106    12.000000000000
         H           -3.275855373461     0.048774585664     4.274285611106     1.007825032230
         H           -2.409285373461     1.587164585664     4.283605611106     1.007825032230
         H           -3.026495373461     0.928474585664     2.764265611106     1.007825032230
         C           -0.636605373461    -0.427745414336     4.855825611106    12.000000000000
         H            0.306564626539    -0.960125414336     4.725045611106     1.007825032230
         H           -0.439575373461     0.471994585664     5.440635611106     1.007825032230
         H           -1.307895373461    -1.065485414336     5.432565611106     1.007825032230
         C           -0.286915373461     0.819164585664     2.728765611106    12.000000000000
         H            0.661654626539     0.306574585664     2.558405611106     1.007825032230
         H           -0.081625373461     1.737304585664     3.282185611106     1.007825032230
         H           -0.709305373461     1.097654585664     1.761295611106     1.007825032230
         C           -1.513355373461    -1.354345414336     2.714185611106    12.000000000000
         H           -1.977095373461    -1.132515414336     1.751565611106     1.007825032230
         H           -0.580775373461    -1.892745414336     2.534545611106     1.007825032230
         H           -2.183865373461    -2.016165414336     3.264375611106     1.007825032230

  Running in c1 symmetry.

  Rotational constants: A =      0.03507  B =      0.00895  C =      0.00836 [cm^-1]
  Rotational constants: A =   1051.43528  B =    268.31589  C =    250.73918 [MHz]
  Nuclear repulsion =  758.212692867170858

  Charge       = 0
  Multiplicity = 1
  Electrons    = 100
  Nalpha       = 50
  Nbeta        = 50

  ==> Algorithm <==

  SCF Algorithm Type is DF.
  DIIS enabled.
  MOM disabled.
  Fractional occupation disabled.
  Guess Type is SAD.
  Energy threshold   = 1.00e-08
  Density threshold  = 1.00e-08
  Integral threshold = 0.00e+00

  ==> Primary Basis <==

  Basis Set: AUG-CC-PVDZ
    Blend: AUG-CC-PVDZ
    Number of shells: 197
    Number of basis function: 443
    Number of Cartesian functions: 469
    Spherical Harmonics?: true
    Max angular momentum: 2

   => Loading Basis Set <=

    Name: (AUG-CC-PVDZ AUX)
    Role: JKFIT
    Keyword: DF_BASIS_SCF
    atoms 1, 9                                    entry N          line   212 file /home/liuchw/anaconda3/envs/psi4env/share/psi4/basis/aug-cc-pvdz-jkfit.gbs 
    atoms 2, 6, 8, 10, 15-17, 19-21, 23-25, 27-29 entry H          line    70 file /home/liuchw/anaconda3/envs/psi4env/share/psi4/basis/aug-cc-pvdz-jkfit.gbs 
    atoms 3, 5, 7, 11, 13-14, 18, 22, 26          entry C          line   154 file /home/liuchw/anaconda3/envs/psi4env/share/psi4/basis/aug-cc-pvdz-jkfit.gbs 
    atoms 4, 12                                   entry O          line   270 file /home/liuchw/anaconda3/envs/psi4env/share/psi4/basis/aug-cc-pvdz-jkfit.gbs 

  ==> Pre-Iterations <==

   -------------------------------------------------------
    Irrep   Nso     Nmo     Nalpha   Nbeta   Ndocc  Nsocc
   -------------------------------------------------------
     A        443     443       0       0       0       0
   -------------------------------------------------------
    Total     443     443      50      50      50       0
   -------------------------------------------------------

  ==> Integral Setup <==

  ==> DiskDFJK: Density-Fitted J/K Matrices <==

    J tasked:                  Yes
    K tasked:                  Yes
    wK tasked:                  No
    OpenMP threads:              8
    Integrals threads:           8
    Memory [MiB]:            14305
    Algorithm:                Core
    Integral Cache:           SAVE
    Schwarz Cutoff:          1E-12
    Fitting Condition:       1E-10

   => Auxiliary Basis Set <=

  Basis Set: (AUG-CC-PVDZ AUX)
    Blend: AUG-CC-PVDZ-JKFIT
    Number of shells: 556
    Number of basis function: 1630
    Number of Cartesian functions: 1873
    Spherical Harmonics?: true
    Max angular momentum: 3

  Minimum eigenvalue in the overlap matrix is 8.8001830686E-06.
  Using Symmetric Orthogonalization.

  SCF Guess: Superposition of Atomic Densities via on-the-fly atomic UHF.

  ==> Iterations <==

                           Total Energy        Delta E     RMS |[F,P]|

   @DF-RHF iter SAD:  -607.97340562802310   -6.07973e+02   0.00000e+00 
   @DF-RHF iter   1:  -608.34473858947331   -3.71333e-01   2.23189e-03 DIIS
   @DF-RHF iter   2:  -608.73776961635883   -3.93031e-01   1.29525e-03 DIIS
   @DF-RHF iter   3:  -608.87505606844343   -1.37286e-01   2.68159e-04 DIIS
   @DF-RHF iter   4:  -608.88292950243272   -7.87343e-03   1.16878e-04 DIIS
   @DF-RHF iter   5:  -608.88454482203588   -1.61532e-03   2.19394e-05 DIIS
   @DF-RHF iter   6:  -608.88465344854569   -1.08627e-04   1.06744e-05 DIIS
   @DF-RHF iter   7:  -608.88468478569200   -3.13371e-05   3.68773e-06 DIIS
   @DF-RHF iter   8:  -608.88468968251016   -4.89682e-06   1.23538e-06 DIIS
   @DF-RHF iter   9:  -608.88468999988208   -3.17372e-07   4.90881e-07 DIIS
   @DF-RHF iter  10:  -608.88469006071978   -6.08377e-08   1.74160e-07 DIIS
   @DF-RHF iter  11:  -608.88469006841115   -7.69137e-09   6.93759e-08 DIIS
   @DF-RHF iter  12:  -608.88469006962544   -1.21429e-09   1.81141e-08 DIIS
   @DF-RHF iter  13:  -608.88469006972059   -9.51559e-11   6.58576e-09 DIIS
  Energy and wave function converged.


  ==> Post-Iterations <==

    Orbital Energies [Eh]
    ---------------------

    Doubly Occupied:                                                      

       1A    -20.558939     2A    -20.553291     3A    -15.652130  
       4A    -15.635163     5A    -11.429052     6A    -11.390047  
       7A    -11.348141     8A    -11.262403     9A    -11.230032  
      10A    -11.212589    11A    -11.210806    12A    -11.210687  
      13A    -11.209606    14A     -1.442083    15A     -1.404157  
      16A     -1.318087    17A     -1.249920    18A     -1.106665  
      19A     -1.091772    20A     -0.936473    21A     -0.929380  
      22A     -0.928661    23A     -0.927489    24A     -0.905159  
      25A     -0.809477    26A     -0.767552    27A     -0.728743  
      28A     -0.716114    29A     -0.680192    30A     -0.669592  
      31A     -0.655222    32A     -0.616740    33A     -0.610714  
      34A     -0.610298    35A     -0.609836    36A     -0.602894  
      37A     -0.571552    38A     -0.551931    39A     -0.550810  
      40A     -0.526063    41A     -0.507913    42A     -0.507016  
      43A     -0.506799    44A     -0.484428    45A     -0.450823  
      46A     -0.450391    47A     -0.449950    48A     -0.449585  
      49A     -0.436757    50A     -0.368600  

    Virtual:                                                              

      51A      0.018357    52A      0.038699    53A      0.039985  
      54A      0.047758    55A      0.051732    56A      0.053898  
      57A      0.059292    58A      0.061728    59A      0.070432  
      60A      0.074272    61A      0.076022    62A      0.078420  
      63A      0.078750    64A      0.088609    65A      0.095285  
      66A      0.098312    67A      0.101411    68A      0.102572  
      69A      0.108132    70A      0.117109    71A      0.123024  
      72A      0.129063    73A      0.135382    74A      0.136902  
      75A      0.140924    76A      0.145528    77A      0.148530  
      78A      0.151509    79A      0.157181    80A      0.167197  
      81A      0.168735    82A      0.170166    83A      0.173159  
      84A      0.173248    85A      0.178219    86A      0.181240  
      87A      0.183515    88A      0.188382    89A      0.195205  
      90A      0.196799    91A      0.198765    92A      0.202361  
      93A      0.203765    94A      0.210713    95A      0.214631  
      96A      0.217648    97A      0.223627    98A      0.224550  
      99A      0.229087   100A      0.231051   101A      0.234323  
     102A      0.244826   103A      0.247750   104A      0.256887  
     105A      0.261583   106A      0.267765   107A      0.281074  
     108A      0.282729   109A      0.286493   110A      0.297293  
     111A      0.309846   112A      0.316241   113A      0.317836  
     114A      0.321373   115A      0.327803   116A      0.331733  
     117A      0.337962   118A      0.342249   119A      0.344736  
     120A      0.350761   121A      0.354007   122A      0.356463  
     123A      0.362153   124A      0.367302   125A      0.370558  
     126A      0.381061   127A      0.384183   128A      0.387447  
     129A      0.391577   130A      0.402050   131A      0.404437  
     132A      0.407187   133A      0.414259   134A      0.417189  
     135A      0.420712   136A      0.422176   137A      0.429171  
     138A      0.437757   139A      0.439412   140A      0.442398  
     141A      0.450122   142A      0.454587   143A      0.465823  
     144A      0.469072   145A      0.471812   146A      0.475611  
     147A      0.483374   148A      0.486420   149A      0.494764  
     150A      0.495186   151A      0.499438   152A      0.501740  
     153A      0.505978   154A      0.509743   155A      0.511128  
     156A      0.513767   157A      0.518710   158A      0.525414  
     159A      0.533701   160A      0.536797   161A      0.544044  
     162A      0.552171   163A      0.556825   164A      0.560389  
     165A      0.570077   166A      0.571838   167A      0.576758  
     168A      0.580776   169A      0.584506   170A      0.590992  
     171A      0.596252   172A      0.597709   173A      0.606056  
     174A      0.612255   175A      0.616744   176A      0.621734  
     177A      0.624982   178A      0.633583   179A      0.638737  
     180A      0.646930   181A      0.647964   182A      0.648983  
     183A      0.657052   184A      0.660650   185A      0.669904  
     186A      0.670970   187A      0.674368   188A      0.683568  
     189A      0.684888   190A      0.689971   191A      0.696472  
     192A      0.701084   193A      0.710881   194A      0.717805  
     195A      0.722965   196A      0.727691   197A      0.733649  
     198A      0.735333   199A      0.739112   200A      0.744730  
     201A      0.747738   202A      0.753267   203A      0.763037  
     204A      0.766613   205A      0.771469   206A      0.772207  
     207A      0.781887   208A      0.785713   209A      0.799949  
     210A      0.811697   211A      0.817229   212A      0.819613  
     213A      0.831635   214A      0.832210   215A      0.840772  
     216A      0.846512   217A      0.850456   218A      0.856432  
     219A      0.861283   220A      0.864271   221A      0.869367  
     222A      0.873464   223A      0.882022   224A      0.900561  
     225A      0.904023   226A      0.906119   227A      0.909025  
     228A      0.909211   229A      0.910574   230A      0.916421  
     231A      0.923201   232A      0.930594   233A      0.937915  
     234A      0.945319   235A      0.947529   236A      0.954018  
     237A      0.959435   238A      0.962431   239A      0.974271  
     240A      0.983466   241A      0.990053   242A      0.996957  
     243A      1.007637   244A      1.024593   245A      1.027542  
     246A      1.036443   247A      1.039684   248A      1.049243  
     249A      1.069871   250A      1.079272   251A      1.086125  
     252A      1.098941   253A      1.103266   254A      1.108399  
     255A      1.122295   256A      1.130574   257A      1.136338  
     258A      1.142032   259A      1.145030   260A      1.165107  
     261A      1.167174   262A      1.180574   263A      1.224782  
     264A      1.235538   265A      1.240576   266A      1.249305  
     267A      1.255137   268A      1.277028   269A      1.282545  
     270A      1.293561   271A      1.304063   272A      1.331354  
     273A      1.336554   274A      1.355421   275A      1.361423  
     276A      1.368509   277A      1.377960   278A      1.389928  
     279A      1.394831   280A      1.397060   281A      1.405275  
     282A      1.434517   283A      1.444748   284A      1.447745  
     285A      1.457069   286A      1.482496   287A      1.492943  
     288A      1.525757   289A      1.539564   290A      1.544644  
     291A      1.551215   292A      1.573286   293A      1.592994  
     294A      1.597183   295A      1.599994   296A      1.608765  
     297A      1.630815   298A      1.641959   299A      1.652741  
     300A      1.655003   301A      1.667844   302A      1.673958  
     303A      1.699607   304A      1.717273   305A      1.724246  
     306A      1.726341   307A      1.729146   308A      1.757417  
     309A      1.790777   310A      1.801865   311A      1.805135  
     312A      1.817080   313A      1.830054   314A      1.831850  
     315A      1.839045   316A      1.849764   317A      1.858549  
     318A      1.868720   319A      1.870461   320A      1.873747  
     321A      1.889726   322A      1.918038   323A      1.937353  
     324A      1.946757   325A      1.964188   326A      1.981964  
     327A      1.995378   328A      2.005044   329A      2.020374  
     330A      2.029706   331A      2.033230   332A      2.037893  
     333A      2.044094   334A      2.059232   335A      2.071315  
     336A      2.073344   337A      2.077577   338A      2.081052  
     339A      2.081992   340A      2.103236   341A      2.128909  
     342A      2.152803   343A      2.154395   344A      2.156100  
     345A      2.160518   346A      2.195914   347A      2.199511  
     348A      2.205124   349A      2.209582   350A      2.225788  
     351A      2.229853   352A      2.250322   353A      2.272463  
     354A      2.319643   355A      2.326914   356A      2.328331  
     357A      2.328593   358A      2.335419   359A      2.336479  
     360A      2.339439   361A      2.340343   362A      2.350654  
     363A      2.364957   364A      2.379560   365A      2.383314  
     366A      2.384800   367A      2.385473   368A      2.390794  
     369A      2.393419   370A      2.441389   371A      2.450919  
     372A      2.460532   373A      2.486329   374A      2.520781  
     375A      2.533149   376A      2.533416   377A      2.537261  
     378A      2.553557   379A      2.573107   380A      2.578219  
     381A      2.581907   382A      2.598567   383A      2.632595  
     384A      2.645571   385A      2.649365   386A      2.649585  
     387A      2.649882   388A      2.652323   389A      2.654032  
     390A      2.696798   391A      2.733350   392A      2.742951  
     393A      2.777550   394A      2.783985   395A      2.785742  
     396A      2.795336   397A      2.835402   398A      2.857299  
     399A      2.864744   400A      2.875343   401A      2.877315  
     402A      2.879183   403A      2.883670   404A      2.889382  
     405A      2.901226   406A      2.949481   407A      2.951999  
     408A      2.973670   409A      2.999956   410A      3.020021  
     411A      3.024824   412A      3.025964   413A      3.032901  
     414A      3.100072   415A      3.107431   416A      3.110100  
     417A      3.111429   418A      3.172089   419A      3.175424  
     420A      3.230522   421A      3.277108   422A      3.333701  
     423A      3.361033   424A      3.365742   425A      3.370179  
     426A      3.479080   427A      3.535861   428A      3.543324  
     429A      3.545431   430A      3.566800   431A      3.601918  
     432A      3.730753   433A      3.766620   434A      3.768253  
     435A      3.809696   436A      3.822726   437A      3.827202  
     438A      3.840976   439A      4.030046   440A      4.053375  
     441A      4.075639   442A      4.178647   443A      4.330611  

    Final Occupation by Irrep:
              A 
    DOCC [    50 ]

  @DF-RHF Final Energy:  -608.88469006972059

   => Energetics <=

    Nuclear Repulsion Energy =            758.2126928671708583
    One-Electron Energy =               -2332.1293106308980896
    Two-Electron Energy =                 965.0319276940065265
    Total Energy =                       -608.8846900697205911

Computation Completed


Properties will be evaluated at   0.000000,   0.000000,   0.000000 [a0]

Properties computed using the SCF density matrix

  Nuclear Dipole Moment: [e a0]
     X:   -10.2919      Y:     2.9661      Z:    30.2029

  Electronic Dipole Moment: [e a0]
     X:    11.1630      Y:    -1.2406      Z:   -30.4369

  Dipole Moment: [e a0]
     X:     0.8711      Y:     1.7254      Z:    -0.2340     Total:     1.9470

  Dipole Moment: [D]
     X:     2.2141      Y:     4.3856      Z:    -0.5948     Total:     4.9487


*** tstop() called on node85.bme.utexas.edu at Thu Apr 23 17:59:33 2020
Module time:
	user time   =     213.03 seconds =       3.55 minutes
	system time =       3.42 seconds =       0.06 minutes
	total time  =         30 seconds =       0.50 minutes
Total time:
	user time   =     213.03 seconds =       3.55 minutes
	system time =       3.42 seconds =       0.06 minutes
	total time  =         30 seconds =       0.50 minutes

  //>>>>>>>>>>>>>>>>>>>>>>>>>>>>>>>>>>>//
  //            Monomer A HF           //
  //<<<<<<<<<<<<<<<<<<<<<<<<<<<<<<<<<<<//


*** tstart() called on node85.bme.utexas.edu
*** at Thu Apr 23 17:59:33 2020

   => Loading Basis Set <=

    Name: AUG-CC-PVDZ
    Role: ORBITAL
    Keyword: BASIS
    atoms 1, 9                                    entry N          line   218 file /home/liuchw/anaconda3/envs/psi4env/share/psi4/basis/aug-cc-pvdz.gbs 
    atoms 2, 6, 8, 10, 15-17, 19-21, 23-25, 27-29 entry H          line    40 file /home/liuchw/anaconda3/envs/psi4env/share/psi4/basis/aug-cc-pvdz.gbs 
    atoms 3, 5, 7, 11, 13-14, 18, 22, 26          entry C          line   182 file /home/liuchw/anaconda3/envs/psi4env/share/psi4/basis/aug-cc-pvdz.gbs 
    atoms 4, 12                                   entry O          line   254 file /home/liuchw/anaconda3/envs/psi4env/share/psi4/basis/aug-cc-pvdz.gbs 


         ---------------------------------------------------------
                                   SCF
               by Justin Turney, Rob Parrish, Andy Simmonett
                          and Daniel G. A. Smith
                              RHF Reference
                        8 Threads,  19073 MiB Core
         ---------------------------------------------------------

  ==> Geometry <==

    Molecular point group: c1
    Full point group: C1

    Geometry (in Angstrom), charge = 0, multiplicity = 1:

       Center              X                  Y                   Z               Mass       
    ------------   -----------------  -----------------  -----------------  -----------------
         N            0.598824626539    -0.859895414336    -2.104644388894    14.003074004430
         H            0.381934626539    -1.820485414336    -1.876164388894     1.007825032230
         C           -0.459715373461    -0.096325414336    -2.615904388894    12.000000000000
         O           -1.558025373461    -0.597385414336    -2.786974388894    15.994914619570
         C           -0.094135373461     1.282284585664    -2.890924388894    12.000000000000
         H           -0.836995373461     1.942824585664    -3.303404388894     1.007825032230
         C            1.156284626539     1.708944585664    -2.620034388894    12.000000000000
         H            1.474594626539     2.724884585664    -2.800734388894     1.007825032230
         N            2.106874626539     0.877614585664    -2.091484388894    14.003074004430
         H            3.028084626539     1.214914585664    -1.867134388894     1.007825032230
         C            1.875524626539    -0.452165414336    -1.782254388894    12.000000000000
         O            2.716554626539    -1.172905414336    -1.281974388894    15.994914619570
      Gh(C)          -1.252035373461    -0.074315414336     3.504555611106    12.000000000000
      Gh(C)          -2.568785373461     0.666974585664     3.719425611106    12.000000000000
      Gh(H)          -3.275855373461     0.048774585664     4.274285611106     1.007825032230
      Gh(H)          -2.409285373461     1.587164585664     4.283605611106     1.007825032230
      Gh(H)          -3.026495373461     0.928474585664     2.764265611106     1.007825032230
      Gh(C)          -0.636605373461    -0.427745414336     4.855825611106    12.000000000000
      Gh(H)           0.306564626539    -0.960125414336     4.725045611106     1.007825032230
      Gh(H)          -0.439575373461     0.471994585664     5.440635611106     1.007825032230
      Gh(H)          -1.307895373461    -1.065485414336     5.432565611106     1.007825032230
      Gh(C)          -0.286915373461     0.819164585664     2.728765611106    12.000000000000
      Gh(H)           0.661654626539     0.306574585664     2.558405611106     1.007825032230
      Gh(H)          -0.081625373461     1.737304585664     3.282185611106     1.007825032230
      Gh(H)          -0.709305373461     1.097654585664     1.761295611106     1.007825032230
      Gh(C)          -1.513355373461    -1.354345414336     2.714185611106    12.000000000000
      Gh(H)          -1.977095373461    -1.132515414336     1.751565611106     1.007825032230
      Gh(H)          -0.580775373461    -1.892745414336     2.534545611106     1.007825032230
      Gh(H)          -2.183865373461    -2.016165414336     3.264375611106     1.007825032230

  Running in c1 symmetry.

  Rotational constants: A =      0.03507  B =      0.00895  C =      0.00836 [cm^-1]
  Rotational constants: A =   1051.43528  B =    268.31589  C =    250.73918 [MHz]
  Nuclear repulsion =  357.127307305062118

  Charge       = 0
  Multiplicity = 1
  Electrons    = 58
  Nalpha       = 29
  Nbeta        = 29

  ==> Algorithm <==

  SCF Algorithm Type is DF.
  DIIS enabled.
  MOM disabled.
  Fractional occupation disabled.
  Guess Type is SAD.
  Energy threshold   = 1.00e-08
  Density threshold  = 1.00e-08
  Integral threshold = 0.00e+00

  ==> Primary Basis <==

  Basis Set: AUG-CC-PVDZ
    Blend: AUG-CC-PVDZ
    Number of shells: 197
    Number of basis function: 443
    Number of Cartesian functions: 469
    Spherical Harmonics?: true
    Max angular momentum: 2

   => Loading Basis Set <=

    Name: (AUG-CC-PVDZ AUX)
    Role: JKFIT
    Keyword: DF_BASIS_SCF
    atoms 1, 9                                    entry N          line   212 file /home/liuchw/anaconda3/envs/psi4env/share/psi4/basis/aug-cc-pvdz-jkfit.gbs 
    atoms 2, 6, 8, 10, 15-17, 19-21, 23-25, 27-29 entry H          line    70 file /home/liuchw/anaconda3/envs/psi4env/share/psi4/basis/aug-cc-pvdz-jkfit.gbs 
    atoms 3, 5, 7, 11, 13-14, 18, 22, 26          entry C          line   154 file /home/liuchw/anaconda3/envs/psi4env/share/psi4/basis/aug-cc-pvdz-jkfit.gbs 
    atoms 4, 12                                   entry O          line   270 file /home/liuchw/anaconda3/envs/psi4env/share/psi4/basis/aug-cc-pvdz-jkfit.gbs 

  ==> Pre-Iterations <==

   -------------------------------------------------------
    Irrep   Nso     Nmo     Nalpha   Nbeta   Ndocc  Nsocc
   -------------------------------------------------------
     A        443     443       0       0       0       0
   -------------------------------------------------------
    Total     443     443      29      29      29       0
   -------------------------------------------------------

  ==> Integral Setup <==

  ==> DiskDFJK: Density-Fitted J/K Matrices <==

    J tasked:                  Yes
    K tasked:                  Yes
    wK tasked:                  No
    OpenMP threads:              8
    Integrals threads:           8
    Memory [MiB]:            14305
    Algorithm:                Core
    Integral Cache:           LOAD
    Schwarz Cutoff:          1E-12
    Fitting Condition:       1E-10

   => Auxiliary Basis Set <=

  Basis Set: (AUG-CC-PVDZ AUX)
    Blend: AUG-CC-PVDZ-JKFIT
    Number of shells: 556
    Number of basis function: 1630
    Number of Cartesian functions: 1873
    Spherical Harmonics?: true
    Max angular momentum: 3

  Minimum eigenvalue in the overlap matrix is 8.8001830686E-06.
  Using Symmetric Orthogonalization.

  SCF Guess: Superposition of Atomic Densities via on-the-fly atomic UHF.

  ==> Iterations <==

                           Total Energy        Delta E     RMS |[F,P]|

   @DF-RHF iter SAD:  -411.89528936872546   -4.11895e+02   0.00000e+00 
   @DF-RHF iter   1:  -412.28619000857742   -3.90901e-01   1.62095e-03 DIIS
   @DF-RHF iter   2:  -412.44922843405374   -1.63038e-01   1.04392e-03 DIIS
   @DF-RHF iter   3:  -412.52463023920501   -7.54018e-02   1.96647e-04 DIIS
   @DF-RHF iter   4:  -412.52882759471066   -4.19736e-03   7.83105e-05 DIIS
   @DF-RHF iter   5:  -412.52966204043310   -8.34446e-04   1.59531e-05 DIIS
   @DF-RHF iter   6:  -412.52975893163568   -9.68912e-05   8.10466e-06 DIIS
   @DF-RHF iter   7:  -412.52977629927892   -1.73676e-05   3.10062e-06 DIIS
   @DF-RHF iter   8:  -412.52977910267231   -2.80339e-06   1.06379e-06 DIIS
   @DF-RHF iter   9:  -412.52977930373743   -2.01065e-07   4.32643e-07 DIIS
   @DF-RHF iter  10:  -412.52977935450622   -5.07688e-08   1.39373e-07 DIIS
   @DF-RHF iter  11:  -412.52977936018596   -5.67974e-09   4.72522e-08 DIIS
   @DF-RHF iter  12:  -412.52977936066105   -4.75097e-10   1.43814e-08 DIIS
   @DF-RHF iter  13:  -412.52977936071665   -5.55929e-11   5.18014e-09 DIIS
  Energy and wave function converged.


  ==> Post-Iterations <==

    Orbital Energies [Eh]
    ---------------------

    Doubly Occupied:                                                      

       1A    -20.559041     2A    -20.553269     3A    -15.652288  
       4A    -15.635284     5A    -11.429162     6A    -11.390044  
       7A    -11.348207     8A    -11.262518     9A     -1.442190  
      10A     -1.404131    11A     -1.318219    12A     -1.250039  
      13A     -1.091867    14A     -0.936590    15A     -0.905260  
      16A     -0.809603    17A     -0.767642    18A     -0.716237  
      19A     -0.680225    20A     -0.669738    21A     -0.655288  
      22A     -0.616768    23A     -0.602958    24A     -0.571553  
      25A     -0.526212    26A     -0.484503    27A     -0.449605  
      28A     -0.436799    29A     -0.368680  

    Virtual:                                                              

      30A      0.016453    31A      0.025091    32A      0.037993  
      33A      0.041484    34A      0.045661    35A      0.047330  
      36A      0.056501    37A      0.060436    38A      0.069109  
      39A      0.072435    40A      0.075031    41A      0.076272  
      42A      0.077572    43A      0.081504    44A      0.088779  
      45A      0.097207    46A      0.098324    47A      0.101410  
      48A      0.103726    49A      0.107684    50A      0.117807  
      51A      0.123564    52A      0.128044    53A      0.130514  
      54A      0.131640    55A      0.133033    56A      0.137261  
      57A      0.141314    58A      0.144823    59A      0.152606  
      60A      0.153241    61A      0.156055    62A      0.161283  
      63A      0.169139    64A      0.171193    65A      0.172663  
      66A      0.180001    67A      0.180588    68A      0.184567  
      69A      0.188014    70A      0.192972    71A      0.194123  
      72A      0.195884    73A      0.203617    74A      0.207681  
      75A      0.212259    76A      0.216356    77A      0.217979  
      78A      0.222195    79A      0.225831    80A      0.227072  
      81A      0.229937    82A      0.242225    83A      0.244632  
      84A      0.259736    85A      0.260163    86A      0.276251  
      87A      0.278557    88A      0.285661    89A      0.291427  
      90A      0.313902    91A      0.319691    92A      0.319972  
      93A      0.322473    94A      0.326977    95A      0.330972  
      96A      0.333943    97A      0.341396    98A      0.345486  
      99A      0.351580   100A      0.357277   101A      0.363163  
     102A      0.366755   103A      0.370013   104A      0.376271  
     105A      0.382050   106A      0.385477   107A      0.388758  
     108A      0.394960   109A      0.397484   110A      0.402812  
     111A      0.410312   112A      0.411174   113A      0.413702  
     114A      0.418030   115A      0.418963   116A      0.423536  
     117A      0.427318   118A      0.433394   119A      0.436404  
     120A      0.446617   121A      0.448740   122A      0.453136  
     123A      0.456297   124A      0.460766   125A      0.471188  
     126A      0.479200   127A      0.484009   128A      0.484352  
     129A      0.487569   130A      0.495512   131A      0.500058  
     132A      0.503658   133A      0.508115   134A      0.508861  
     135A      0.517971   136A      0.525555   137A      0.536058  
     138A      0.551274   139A      0.558146   140A      0.559806  
     141A      0.563175   142A      0.567916   143A      0.572585  
     144A      0.578516   145A      0.583860   146A      0.592589  
     147A      0.597185   148A      0.599756   149A      0.600728  
     150A      0.602410   151A      0.615244   152A      0.623836  
     153A      0.625392   154A      0.639445   155A      0.640383  
     156A      0.641748   157A      0.650808   158A      0.653811  
     159A      0.657712   160A      0.668611   161A      0.669223  
     162A      0.680202   163A      0.693633   164A      0.696504  
     165A      0.710453   166A      0.711611   167A      0.717794  
     168A      0.721735   169A      0.727881   170A      0.732274  
     171A      0.737344   172A      0.744050   173A      0.746810  
     174A      0.754080   175A      0.756183   176A      0.760782  
     177A      0.765900   178A      0.769069   179A      0.772523  
     180A      0.783209   181A      0.784067   182A      0.790629  
     183A      0.801586   184A      0.803287   185A      0.806861  
     186A      0.810518   187A      0.816534   188A      0.819495  
     189A      0.829246   190A      0.834998   191A      0.840060  
     192A      0.843692   193A      0.850683   194A      0.855428  
     195A      0.857361   196A      0.863674   197A      0.868558  
     198A      0.874802   199A      0.878718   200A      0.885959  
     201A      0.889433   202A      0.897589   203A      0.899701  
     204A      0.902334   205A      0.911135   206A      0.921944  
     207A      0.927254   208A      0.938699   209A      0.945919  
     210A      0.946880   211A      0.958112   212A      0.964536  
     213A      0.971965   214A      0.974175   215A      0.976827  
     216A      0.985365   217A      0.988755   218A      0.990991  
     219A      0.994447   220A      1.001102   221A      1.008850  
     222A      1.011899   223A      1.015220   224A      1.023210  
     225A      1.031597   226A      1.040957   227A      1.045046  
     228A      1.065305   229A      1.066699   230A      1.078187  
     231A      1.085697   232A      1.090439   233A      1.092084  
     234A      1.097748   235A      1.101344   236A      1.110765  
     237A      1.137540   238A      1.142310   239A      1.147609  
     240A      1.165706   241A      1.177016   242A      1.201861  
     243A      1.203550   244A      1.208888   245A      1.225927  
     246A      1.235981   247A      1.238540   248A      1.245417  
     249A      1.247759   250A      1.248992   251A      1.270069  
     252A      1.299611   253A      1.317390   254A      1.333379  
     255A      1.338134   256A      1.339763   257A      1.358332  
     258A      1.363417   259A      1.379034   260A      1.400391  
     261A      1.405935   262A      1.408564   263A      1.415660  
     264A      1.450681   265A      1.484084   266A      1.492668  
     267A      1.526279   268A      1.539856   269A      1.545664  
     270A      1.558655   271A      1.575096   272A      1.606833  
     273A      1.646518   274A      1.654257   275A      1.675644  
     276A      1.696079   277A      1.718698   278A      1.757356  
     279A      1.793267   280A      1.829432   281A      1.837302  
     282A      1.854319   283A      1.873243   284A      1.915217  
     285A      1.937530   286A      1.953931   287A      1.956336  
     288A      1.966157   289A      1.977128   290A      1.984688  
     291A      1.994490   292A      2.007052   293A      2.009755  
     294A      2.026924   295A      2.029853   296A      2.056229  
     297A      2.101239   298A      2.122639   299A      2.156969  
     300A      2.173746   301A      2.177824   302A      2.179328  
     303A      2.198479   304A      2.215002   305A      2.219673  
     306A      2.222880   307A      2.228259   308A      2.230103  
     309A      2.231309   310A      2.233397   311A      2.236912  
     312A      2.244281   313A      2.257178   314A      2.270056  
     315A      2.284863   316A      2.296118   317A      2.299817  
     318A      2.300985   319A      2.309773   320A      2.326342  
     321A      2.337640   322A      2.339996   323A      2.343559  
     324A      2.344237   325A      2.350282   326A      2.360742  
     327A      2.372786   328A      2.379654   329A      2.412634  
     330A      2.414150   331A      2.422251   332A      2.430781  
     333A      2.435246   334A      2.444917   335A      2.448403  
     336A      2.457470   337A      2.460019   338A      2.486118  
     339A      2.511165   340A      2.512316   341A      2.513998  
     342A      2.514205   343A      2.515345   344A      2.516772  
     345A      2.528997   346A      2.553318   347A      2.582165  
     348A      2.630730   349A      2.643977   350A      2.646013  
     351A      2.649106   352A      2.650308   353A      2.660276  
     354A      2.697609   355A      2.718508   356A      2.723737  
     357A      2.726060   358A      2.737012   359A      2.752511  
     360A      2.786213   361A      2.791657   362A      2.793699  
     363A      2.795022   364A      2.797389   365A      2.835419  
     366A      2.850498   367A      2.856992   368A      2.864774  
     369A      2.880636   370A      2.892759   371A      2.898070  
     372A      2.899088   373A      2.901576   374A      2.963980  
     375A      2.965700   376A      3.000114   377A      3.021797  
     378A      3.045856   379A      3.047197   380A      3.049780  
     381A      3.068256   382A      3.099563   383A      3.121693  
     384A      3.171553   385A      3.174904   386A      3.230565  
     387A      3.267906   388A      3.272202   389A      3.279800  
     390A      3.333603   391A      3.362073   392A      3.445067  
     393A      3.450507   394A      3.451882   395A      3.456512  
     396A      3.462884   397A      3.478978   398A      3.491797  
     399A      3.493749   400A      3.499284   401A      3.540891  
     402A      3.584827   403A      3.589008   404A      3.592069  
     405A      3.617398   406A      3.730695   407A      3.765969  
     408A      3.768608   409A      3.809166   410A      3.816092  
     411A      3.822333   412A      3.831916   413A      3.838036  
     414A      3.839638   415A      3.996552   416A      4.029879  
     417A      4.052519   418A      4.074847   419A      4.083894  
     420A      4.088712   421A      4.101612   422A      4.179725  
     423A      4.330872   424A      4.503480   425A      4.611250  
     426A      4.616765   427A      4.636672   428A      4.726887  
     429A      4.733221   430A      4.734486   431A      5.119383  
     432A      5.122415   433A      5.123711   434A      5.234717  
     435A      5.236301   436A      5.240342   437A      5.241470  
     438A      5.242284   439A     18.214324   440A     18.832208  
     441A     18.833519   442A     18.836438   443A     18.990070  

    Final Occupation by Irrep:
              A 
    DOCC [    29 ]

  @DF-RHF Final Energy:  -412.52977936071665

   => Energetics <=

    Nuclear Repulsion Energy =            357.1273073050621178
    One-Electron Energy =               -1270.2463324960256159
    Two-Electron Energy =                 500.5892458302468526
    Total Energy =                       -412.5297793607166454

Computation Completed


Properties will be evaluated at   0.000000,   0.000000,   0.000000 [a0]

Properties computed using the SCF density matrix

  Nuclear Dipole Moment: [e a0]
     X:    89.0505      Y:     8.8444      Z:  -247.9824

  Electronic Dipole Moment: [e a0]
     X:   -88.1643      Y:    -7.0855      Z:   247.7466

  Dipole Moment: [e a0]
     X:     0.8862      Y:     1.7589      Z:    -0.2358     Total:     1.9837

  Dipole Moment: [D]
     X:     2.2526      Y:     4.4708      Z:    -0.5993     Total:     5.0420


*** tstop() called on node85.bme.utexas.edu at Thu Apr 23 17:59:48 2020
Module time:
	user time   =     109.20 seconds =       1.82 minutes
	system time =       2.05 seconds =       0.03 minutes
	total time  =         15 seconds =       0.25 minutes
Total time:
	user time   =     322.29 seconds =       5.37 minutes
	system time =       5.47 seconds =       0.09 minutes
	total time  =         45 seconds =       0.75 minutes

  //>>>>>>>>>>>>>>>>>>>>>>>>>>>>>>>>>>>//
  //            Monomer B HF           //
  //<<<<<<<<<<<<<<<<<<<<<<<<<<<<<<<<<<<//


*** tstart() called on node85.bme.utexas.edu
*** at Thu Apr 23 17:59:48 2020

   => Loading Basis Set <=

    Name: AUG-CC-PVDZ
    Role: ORBITAL
    Keyword: BASIS
    atoms 1, 9                                    entry N          line   218 file /home/liuchw/anaconda3/envs/psi4env/share/psi4/basis/aug-cc-pvdz.gbs 
    atoms 2, 6, 8, 10, 15-17, 19-21, 23-25, 27-29 entry H          line    40 file /home/liuchw/anaconda3/envs/psi4env/share/psi4/basis/aug-cc-pvdz.gbs 
    atoms 3, 5, 7, 11, 13-14, 18, 22, 26          entry C          line   182 file /home/liuchw/anaconda3/envs/psi4env/share/psi4/basis/aug-cc-pvdz.gbs 
    atoms 4, 12                                   entry O          line   254 file /home/liuchw/anaconda3/envs/psi4env/share/psi4/basis/aug-cc-pvdz.gbs 


         ---------------------------------------------------------
                                   SCF
               by Justin Turney, Rob Parrish, Andy Simmonett
                          and Daniel G. A. Smith
                              RHF Reference
                        8 Threads,  19073 MiB Core
         ---------------------------------------------------------

  ==> Geometry <==

    Molecular point group: c1
    Full point group: C1

    Geometry (in Angstrom), charge = 0, multiplicity = 1:

       Center              X                  Y                   Z               Mass       
    ------------   -----------------  -----------------  -----------------  -----------------
      Gh(N)           0.598824626539    -0.859895414336    -2.104644388894    14.003074004430
      Gh(H)           0.381934626539    -1.820485414336    -1.876164388894     1.007825032230
      Gh(C)          -0.459715373461    -0.096325414336    -2.615904388894    12.000000000000
      Gh(O)          -1.558025373461    -0.597385414336    -2.786974388894    15.994914619570
      Gh(C)          -0.094135373461     1.282284585664    -2.890924388894    12.000000000000
      Gh(H)          -0.836995373461     1.942824585664    -3.303404388894     1.007825032230
      Gh(C)           1.156284626539     1.708944585664    -2.620034388894    12.000000000000
      Gh(H)           1.474594626539     2.724884585664    -2.800734388894     1.007825032230
      Gh(N)           2.106874626539     0.877614585664    -2.091484388894    14.003074004430
      Gh(H)           3.028084626539     1.214914585664    -1.867134388894     1.007825032230
      Gh(C)           1.875524626539    -0.452165414336    -1.782254388894    12.000000000000
      Gh(O)           2.716554626539    -1.172905414336    -1.281974388894    15.994914619570
         C           -1.252035373461    -0.074315414336     3.504555611106    12.000000000000
         C           -2.568785373461     0.666974585664     3.719425611106    12.000000000000
         H           -3.275855373461     0.048774585664     4.274285611106     1.007825032230
         H           -2.409285373461     1.587164585664     4.283605611106     1.007825032230
         H           -3.026495373461     0.928474585664     2.764265611106     1.007825032230
         C           -0.636605373461    -0.427745414336     4.855825611106    12.000000000000
         H            0.306564626539    -0.960125414336     4.725045611106     1.007825032230
         H           -0.439575373461     0.471994585664     5.440635611106     1.007825032230
         H           -1.307895373461    -1.065485414336     5.432565611106     1.007825032230
         C           -0.286915373461     0.819164585664     2.728765611106    12.000000000000
         H            0.661654626539     0.306574585664     2.558405611106     1.007825032230
         H           -0.081625373461     1.737304585664     3.282185611106     1.007825032230
         H           -0.709305373461     1.097654585664     1.761295611106     1.007825032230
         C           -1.513355373461    -1.354345414336     2.714185611106    12.000000000000
         H           -1.977095373461    -1.132515414336     1.751565611106     1.007825032230
         H           -0.580775373461    -1.892745414336     2.534545611106     1.007825032230
         H           -2.183865373461    -2.016165414336     3.264375611106     1.007825032230

  Running in c1 symmetry.

  Rotational constants: A =      0.03507  B =      0.00895  C =      0.00836 [cm^-1]
  Rotational constants: A =   1051.43528  B =    268.31589  C =    250.73918 [MHz]
  Nuclear repulsion =  199.361574012274787

  Charge       = 0
  Multiplicity = 1
  Electrons    = 42
  Nalpha       = 21
  Nbeta        = 21

  ==> Algorithm <==

  SCF Algorithm Type is DF.
  DIIS enabled.
  MOM disabled.
  Fractional occupation disabled.
  Guess Type is SAD.
  Energy threshold   = 1.00e-08
  Density threshold  = 1.00e-08
  Integral threshold = 0.00e+00

  ==> Primary Basis <==

  Basis Set: AUG-CC-PVDZ
    Blend: AUG-CC-PVDZ
    Number of shells: 197
    Number of basis function: 443
    Number of Cartesian functions: 469
    Spherical Harmonics?: true
    Max angular momentum: 2

   => Loading Basis Set <=

    Name: (AUG-CC-PVDZ AUX)
    Role: JKFIT
    Keyword: DF_BASIS_SCF
    atoms 1, 9                                    entry N          line   212 file /home/liuchw/anaconda3/envs/psi4env/share/psi4/basis/aug-cc-pvdz-jkfit.gbs 
    atoms 2, 6, 8, 10, 15-17, 19-21, 23-25, 27-29 entry H          line    70 file /home/liuchw/anaconda3/envs/psi4env/share/psi4/basis/aug-cc-pvdz-jkfit.gbs 
    atoms 3, 5, 7, 11, 13-14, 18, 22, 26          entry C          line   154 file /home/liuchw/anaconda3/envs/psi4env/share/psi4/basis/aug-cc-pvdz-jkfit.gbs 
    atoms 4, 12                                   entry O          line   270 file /home/liuchw/anaconda3/envs/psi4env/share/psi4/basis/aug-cc-pvdz-jkfit.gbs 

  ==> Pre-Iterations <==

   -------------------------------------------------------
    Irrep   Nso     Nmo     Nalpha   Nbeta   Ndocc  Nsocc
   -------------------------------------------------------
     A        443     443       0       0       0       0
   -------------------------------------------------------
    Total     443     443      21      21      21       0
   -------------------------------------------------------

  ==> Integral Setup <==

  ==> DiskDFJK: Density-Fitted J/K Matrices <==

    J tasked:                  Yes
    K tasked:                  Yes
    wK tasked:                  No
    OpenMP threads:              8
    Integrals threads:           8
    Memory [MiB]:            14305
    Algorithm:                Core
    Integral Cache:           LOAD
    Schwarz Cutoff:          1E-12
    Fitting Condition:       1E-10

   => Auxiliary Basis Set <=

  Basis Set: (AUG-CC-PVDZ AUX)
    Blend: AUG-CC-PVDZ-JKFIT
    Number of shells: 556
    Number of basis function: 1630
    Number of Cartesian functions: 1873
    Spherical Harmonics?: true
    Max angular momentum: 3

  Minimum eigenvalue in the overlap matrix is 8.8001830686E-06.
  Using Symmetric Orthogonalization.

  SCF Guess: Superposition of Atomic Densities via on-the-fly atomic UHF.

  ==> Iterations <==

                           Total Energy        Delta E     RMS |[F,P]|

   @DF-RHF iter SAD:  -196.06980696832341   -1.96070e+02   0.00000e+00 
   @DF-RHF iter   1:  -196.05795434464491    1.18526e-02   1.53540e-03 DIIS
   @DF-RHF iter   2:  -196.28831941260179   -2.30365e-01   7.67469e-04 DIIS
   @DF-RHF iter   3:  -196.35103779582985   -6.27184e-02   1.43099e-04 DIIS
   @DF-RHF iter   4:  -196.35441139133454   -3.37360e-03   4.44684e-05 DIIS
   @DF-RHF iter   5:  -196.35468739279096   -2.76001e-04   6.01014e-06 DIIS
   @DF-RHF iter   6:  -196.35469472744029   -7.33465e-06   6.62137e-07 DIIS
   @DF-RHF iter   7:  -196.35469484743942   -1.19999e-07   1.25170e-07 DIIS
   @DF-RHF iter   8:  -196.35469485128363   -3.84421e-09   1.63226e-08 DIIS
   @DF-RHF iter   9:  -196.35469485133177   -4.81464e-11   4.50503e-09 DIIS
  Energy and wave function converged.


  ==> Post-Iterations <==

    Orbital Energies [Eh]
    ---------------------

    Doubly Occupied:                                                      

       1A    -11.231127     2A    -11.212204     3A    -11.212181  
       4A    -11.212061     5A    -11.212025     6A     -1.107827  
       7A     -0.929971     8A     -0.929737     9A     -0.929240  
      10A     -0.729853    11A     -0.611915    12A     -0.611306  
      13A     -0.611109    14A     -0.553107    15A     -0.551942  
      16A     -0.508840    17A     -0.508569    18A     -0.507849  
      19A     -0.452101    20A     -0.451464    21A     -0.451017  

    Virtual:                                                              

      22A      0.021655    23A      0.037698    24A      0.038291  
      25A      0.040960    26A      0.052013    27A      0.053153  
      28A      0.057858    29A      0.061720    30A      0.067046  
      31A      0.072575    32A      0.073526    33A      0.076817  
      34A      0.080922    35A      0.083372    36A      0.085592  
      37A      0.099140    38A      0.099913    39A      0.101835  
      40A      0.109315    41A      0.116140    42A      0.121467  
      43A      0.124400    44A      0.127021    45A      0.131578  
      46A      0.135964    47A      0.137345    48A      0.149407  
      49A      0.160124    50A      0.162364    51A      0.164818  
      52A      0.168795    53A      0.170522    54A      0.175615  
      55A      0.176793    56A      0.178937    57A      0.182831  
      58A      0.187423    59A      0.191601    60A      0.193475  
      61A      0.197690    62A      0.201775    63A      0.204919  
      64A      0.210070    65A      0.214017    66A      0.215952  
      67A      0.220013    68A      0.226129    69A      0.227751  
      70A      0.228371    71A      0.231082    72A      0.235185  
      73A      0.244253    74A      0.249009    75A      0.252167  
      76A      0.257512    77A      0.262434    78A      0.270407  
      79A      0.279849    80A      0.287891    81A      0.299593  
      82A      0.301634    83A      0.305304    84A      0.308757  
      85A      0.311435    86A      0.320747    87A      0.325800  
      88A      0.327727    89A      0.334297    90A      0.341057  
      91A      0.343397    92A      0.353289    93A      0.361145  
      94A      0.366375    95A      0.368632    96A      0.375982  
      97A      0.389131    98A      0.395535    99A      0.404532  
     100A      0.409037   101A      0.413212   102A      0.421956  
     103A      0.428520   104A      0.433144   105A      0.435547  
     106A      0.444165   107A      0.447495   108A      0.453418  
     109A      0.455032   110A      0.466659   111A      0.471489  
     112A      0.475672   113A      0.481199   114A      0.484827  
     115A      0.487768   116A      0.490009   117A      0.491699  
     118A      0.494946   119A      0.502545   120A      0.506932  
     121A      0.511364   122A      0.513309   123A      0.515389  
     124A      0.521604   125A      0.525308   126A      0.532584  
     127A      0.534292   128A      0.541387   129A      0.545406  
     130A      0.549768   131A      0.556854   132A      0.562625  
     133A      0.567605   134A      0.569942   135A      0.576364  
     136A      0.580673   137A      0.587282   138A      0.589975  
     139A      0.597027   140A      0.599671   141A      0.604672  
     142A      0.610870   143A      0.613372   144A      0.618494  
     145A      0.622879   146A      0.631343   147A      0.636730  
     148A      0.641641   149A      0.644196   150A      0.652238  
     151A      0.654276   152A      0.660463   153A      0.666574  
     154A      0.667463   155A      0.672374   156A      0.679714  
     157A      0.683518   158A      0.685114   159A      0.697489  
     160A      0.701830   161A      0.704608   162A      0.709801  
     163A      0.721499   164A      0.726805   165A      0.733034  
     166A      0.733926   167A      0.738745   168A      0.744757  
     169A      0.752366   170A      0.762169   171A      0.762931  
     172A      0.765390   173A      0.775516   174A      0.777837  
     175A      0.788702   176A      0.796105   177A      0.806260  
     178A      0.815668   179A      0.826439   180A      0.834195  
     181A      0.841394   182A      0.849473   183A      0.853005  
     184A      0.856529   185A      0.861590   186A      0.868027  
     187A      0.869486   188A      0.876883   189A      0.882847  
     190A      0.896065   191A      0.897776   192A      0.904549  
     193A      0.906651   194A      0.909676   195A      0.913877  
     196A      0.918980   197A      0.923388   198A      0.928970  
     199A      0.933499   200A      0.942348   201A      0.947418  
     202A      0.953892   203A      0.956296   204A      0.961548  
     205A      0.979301   206A      0.996872   207A      1.007009  
     208A      1.023037   209A      1.025943   210A      1.028132  
     211A      1.031594   212A      1.040808   213A      1.064703  
     214A      1.089195   215A      1.095400   216A      1.103720  
     217A      1.111727   218A      1.117834   219A      1.118703  
     220A      1.127181   221A      1.133120   222A      1.141035  
     223A      1.143124   224A      1.166892   225A      1.180730  
     226A      1.185770   227A      1.216569   228A      1.224709  
     229A      1.233310   230A      1.235035   231A      1.239341  
     232A      1.250404   233A      1.252547   234A      1.262587  
     235A      1.277411   236A      1.284807   237A      1.286747  
     238A      1.302700   239A      1.312706   240A      1.321281  
     241A      1.332954   242A      1.344416   243A      1.371608  
     244A      1.371970   245A      1.377363   246A      1.381339  
     247A      1.389055   248A      1.391599   249A      1.394271  
     250A      1.399925   251A      1.431613   252A      1.435010  
     253A      1.437583   254A      1.444846   255A      1.454702  
     256A      1.473081   257A      1.476108   258A      1.513688  
     259A      1.519893   260A      1.547449   261A      1.565749  
     262A      1.582429   263A      1.589902   264A      1.595375  
     265A      1.598207   266A      1.611530   267A      1.618846  
     268A      1.633334   269A      1.654949   270A      1.665647  
     271A      1.677143   272A      1.692388   273A      1.718823  
     274A      1.725886   275A      1.728167   276A      1.754477  
     277A      1.800548   278A      1.806162   279A      1.815858  
     280A      1.830190   281A      1.835541   282A      1.841379  
     283A      1.868020   284A      1.871625   285A      1.879649  
     286A      1.885330   287A      1.944748   288A      1.976838  
     289A      2.031240   290A      2.034201   291A      2.041303  
     292A      2.070006   293A      2.071469   294A      2.072310  
     295A      2.077374   296A      2.078830   297A      2.119502  
     298A      2.152081   299A      2.153236   300A      2.154251  
     301A      2.174233   302A      2.197385   303A      2.203151  
     304A      2.205744   305A      2.217137   306A      2.219273  
     307A      2.257979   308A      2.267553   309A      2.282696  
     310A      2.310910   311A      2.325491   312A      2.330719  
     313A      2.331261   314A      2.335295   315A      2.338511  
     316A      2.342859   317A      2.352110   318A      2.375257  
     319A      2.381237   320A      2.383988   321A      2.386657  
     322A      2.389790   323A      2.425080   324A      2.426945  
     325A      2.440040   326A      2.487893   327A      2.507230  
     328A      2.531031   329A      2.532182   330A      2.533714  
     331A      2.537259   332A      2.544882   333A      2.554652  
     334A      2.570832   335A      2.572171   336A      2.578096  
     337A      2.597606   338A      2.623418   339A      2.643187  
     340A      2.647154   341A      2.647916   342A      2.648432  
     343A      2.649733   344A      2.651235   345A      2.655272  
     346A      2.669654   347A      2.711277   348A      2.756606  
     349A      2.771407   350A      2.777696   351A      2.784974  
     352A      2.813417   353A      2.818430   354A      2.875722  
     355A      2.876471   356A      2.878833   357A      2.886888  
     358A      2.895477   359A      2.908128   360A      2.947998  
     361A      2.951153   362A      2.961967   363A      2.977384  
     364A      3.023042   365A      3.023748   366A      3.027170  
     367A      3.041449   368A      3.050537   369A      3.096882  
     370A      3.105739   371A      3.108730   372A      3.110577  
     373A      3.180403   374A      3.190184   375A      3.270237  
     376A      3.277535   377A      3.335068   378A      3.341195  
     379A      3.363234   380A      3.367466   381A      3.461131  
     382A      3.470363   383A      3.502873   384A      3.513132  
     385A      3.537678   386A      3.544249   387A      3.556173  
     388A      3.622787   389A      3.629113   390A      3.652767  
     391A      3.672704   392A      3.722515   393A      3.764961  
     394A      3.778156   395A      3.812022   396A      3.861978  
     397A      3.903570   398A      3.932407   399A      4.071930  
     400A      4.131547   401A      4.189041   402A      4.344335  
     403A      4.424292   404A      4.467352   405A      4.547799  
     406A      4.611580   407A      4.668252   408A      4.701085  
     409A      4.745963   410A      4.789861   411A      4.920723  
     412A      4.973651   413A      5.013670   414A      5.017426  
     415A      5.038281   416A      5.065827   417A      5.079881  
     418A      5.115474   419A      5.195445   420A      5.322671  
     421A      5.418949   422A      5.481084   423A      5.684514  
     424A      5.777261   425A      5.913362   426A      5.980576  
     427A      5.992279   428A      6.061612   429A      6.066474  
     430A      6.117887   431A      6.222453   432A      6.386377  
     433A      6.507487   434A      7.032787   435A      7.309338  
     436A     18.167236   437A     18.738687   438A     18.812665  
     439A     19.515746   440A     25.455299   441A     25.461525  
     442A     33.536653   443A     33.546400  

    Final Occupation by Irrep:
              A 
    DOCC [    21 ]

  @DF-RHF Final Energy:  -196.35469485133177

   => Energetics <=

    Nuclear Repulsion Energy =            199.3615740122747866
    One-Electron Energy =                -658.3816456419457381
    Two-Electron Energy =                 262.6653767783391800
    Total Energy =                       -196.3546948513317716

Computation Completed


Properties will be evaluated at   0.000000,   0.000000,   0.000000 [a0]

Properties computed using the SCF density matrix

  Nuclear Dipole Moment: [e a0]
     X:   -99.3424      Y:    -5.8784      Z:   278.1853

  Electronic Dipole Moment: [e a0]
     X:    99.3409      Y:     5.8782      Z:  -278.1833

  Dipole Moment: [e a0]
     X:    -0.0015      Y:    -0.0002      Z:     0.0020     Total:     0.0026

  Dipole Moment: [D]
     X:    -0.0039      Y:    -0.0005      Z:     0.0052     Total:     0.0065


*** tstop() called on node85.bme.utexas.edu at Thu Apr 23 18:00:07 2020
Module time:
	user time   =      74.94 seconds =       1.25 minutes
	system time =       1.74 seconds =       0.03 minutes
	total time  =         19 seconds =       0.32 minutes
Total time:
	user time   =     397.28 seconds =       6.62 minutes
	system time =       7.21 seconds =       0.12 minutes
	total time  =         64 seconds =       1.07 minutes
  Constructing Basis Sets for SAPT...

   => Loading Basis Set <=

    Name: (AUG-CC-PVDZ AUX)
    Role: RIFIT
    Keyword: DF_BASIS_SAPT
    atoms 1, 9                                    entry N          line   158 file /home/liuchw/anaconda3/envs/psi4env/share/psi4/basis/aug-cc-pvdz-ri.gbs 
    atoms 2, 6, 8, 10, 15-17, 19-21, 23-25, 27-29 entry H          line    30 file /home/liuchw/anaconda3/envs/psi4env/share/psi4/basis/aug-cc-pvdz-ri.gbs 
    atoms 3, 5, 7, 11, 13-14, 18, 22, 26          entry C          line   112 file /home/liuchw/anaconda3/envs/psi4env/share/psi4/basis/aug-cc-pvdz-ri.gbs 
    atoms 4, 12                                   entry O          line   204 file /home/liuchw/anaconda3/envs/psi4env/share/psi4/basis/aug-cc-pvdz-ri.gbs 


  //>>>>>>>>>>>>>>>>>>>>>>>>>>>>>>>>>>>//
  //               SAPT2+              //
  //<<<<<<<<<<<<<<<<<<<<<<<<<<<<<<<<<<<//


*** tstart() called on node85.bme.utexas.edu
*** at Thu Apr 23 18:00:08 2020

        SAPT2+  
    Ed Hohenstein
     6 June 2009

      Orbital Information
  --------------------------
    NSO        =       443
    NMO        =       443
    NRI        =      1304
    NOCC A     =        29
    NOCC B     =        21
    FOCC A     =         8
    FOCC B     =         5
    NVIR A     =       414
    NVIR B     =       422

    Estimated memory usage: 5452.2 MB

    Natural Orbital Cutoff:   1.000E-06
    Disp(T3) Truncation:            Yes
    CCD (vv|vv) Truncation:         Yes
    MBPT T2 Truncation:             Yes

    Monomer A: 231 virtual orbitals dropped
    Monomer B: 235 virtual orbitals dropped

    Elst10,r            =    -0.000208718511 [Eh]
    Exch10 (S^2)        =     0.000020171884 [Eh]
    Exch10              =     0.000020172103 [Eh]
    Ind20,r (A<-B)      =    -0.000001334294 [Eh]
    Ind20,r (B<-A)      =    -0.000029042470 [Eh]
    Ind20,r             =    -0.000030376764 [Eh]
    Exch-Ind20,r (A<-B) =     0.000000691915 [Eh]
    Exch-Ind20,r (B<-A) =     0.000003542169 [Eh]
    Exch-Ind20,r        =     0.000004234084 [Eh]
    Disp20              =    -0.000994275838 [Eh]
    Disp20 (NO)         =    -0.000972751735 [Eh]
    Exch-Disp20         =     0.000004514710 [Eh]
    Elst12,r            =     0.000027583752 [Eh]
    Exch11              =    -0.000000414963 [Eh]
    Exch12              =     0.000006432178 [Eh]
    Ind22               =     0.000006734661 [Eh]
    Disp21              =     0.000212517747 [Eh]
    Disp22 (SDQ)        =    -0.000018921680 [Eh]

    (i =   1 of  16)         74 seconds
    (i =   2 of  16)        149 seconds
    (i =   3 of  16)        224 seconds
    (i =   4 of  16)        299 seconds
    (i =   5 of  16)        377 seconds
    (i =   6 of  16)        451 seconds
    (i =   7 of  16)        526 seconds
    (i =   8 of  16)        601 seconds
    (i =   9 of  16)        676 seconds
    (i =  10 of  16)        751 seconds
    (i =  11 of  16)        824 seconds
    (i =  12 of  16)        898 seconds
    (i =  13 of  16)        972 seconds
    (i =  14 of  16)       1047 seconds
    (i =  15 of  16)       1122 seconds
    (i =  16 of  16)       1196 seconds

    Disp220 (T)         =    -0.000110525805 [Eh]

    (i =   1 of  21)         46 seconds
    (i =   2 of  21)         92 seconds
    (i =   3 of  21)        139 seconds
    (i =   4 of  21)        185 seconds
    (i =   5 of  21)        231 seconds
    (i =   6 of  21)        278 seconds
    (i =   7 of  21)        324 seconds
    (i =   8 of  21)        370 seconds
    (i =   9 of  21)        417 seconds
    (i =  10 of  21)        463 seconds
    (i =  11 of  21)        510 seconds
    (i =  12 of  21)        556 seconds
    (i =  13 of  21)        602 seconds
    (i =  14 of  21)        649 seconds
    (i =  15 of  21)        695 seconds
    (i =  16 of  21)        741 seconds
    (i =  17 of  21)        788 seconds
    (i =  18 of  21)        834 seconds
    (i =  19 of  21)        880 seconds
    (i =  20 of  21)        927 seconds
    (i =  21 of  21)        973 seconds

    Disp202 (T)         =    -0.000073505163 [Eh]

    Disp22 (T)          =    -0.000184030968 [Eh]

    Est. Disp220 (T)    =    -0.000112971412 [Eh]
    Est. Disp202 (T)    =    -0.000075131614 [Eh]

    Est. Disp22 (T)     =    -0.000188103026 [Eh]

    SAPT Results 
  --------------------------------------------------------------------------------------------------------
    Electrostatics                 -0.18113476 [mEh]      -0.11366378 [kcal/mol]      -0.47556924 [kJ/mol]
      Elst10,r                     -0.20871851 [mEh]      -0.13097284 [kcal/mol]      -0.54799037 [kJ/mol]
      Elst12,r                      0.02758375 [mEh]       0.01730907 [kcal/mol]       0.07242113 [kJ/mol]

    Exchange                        0.02618932 [mEh]       0.01643405 [kcal/mol]       0.06876005 [kJ/mol]
      Exch10                        0.02017210 [mEh]       0.01265819 [kcal/mol]       0.05296185 [kJ/mol]
      Exch10(S^2)                   0.02017188 [mEh]       0.01265805 [kcal/mol]       0.05296127 [kJ/mol]
      Exch11(S^2)                  -0.00041496 [mEh]      -0.00026039 [kcal/mol]      -0.00108949 [kJ/mol]
      Exch12(S^2)                   0.00643218 [mEh]       0.00403625 [kcal/mol]       0.01688768 [kJ/mol]

    Induction                      -0.02151532 [mEh]      -0.01350107 [kcal/mol]      -0.05648846 [kJ/mol]
      Ind20,r                      -0.03037676 [mEh]      -0.01906171 [kcal/mol]      -0.07975418 [kJ/mol]
      Ind22                         0.00673466 [mEh]       0.00422606 [kcal/mol]       0.01768185 [kJ/mol]
      Exch-Ind20,r                  0.00423408 [mEh]       0.00265693 [kcal/mol]       0.01111659 [kJ/mol]
      Exch-Ind22                   -0.00093871 [mEh]      -0.00058905 [kcal/mol]      -0.00246460 [kJ/mol]
      delta HF,r (2)               -0.00116858 [mEh]      -0.00073330 [kcal/mol]      -0.00306812 [kJ/mol]

    Dispersion                     -0.98426809 [mEh]      -0.61763755 [kcal/mol]      -2.58419551 [kJ/mol]
      Disp20                       -0.99427584 [mEh]      -0.62391751 [kcal/mol]      -2.61047085 [kJ/mol]
      Disp21                        0.21251775 [mEh]       0.13335690 [kcal/mol]       0.55796527 [kJ/mol]
      Disp22 (SDQ)                 -0.01892168 [mEh]      -0.01187353 [kcal/mol]      -0.04967886 [kJ/mol]
      Disp22 (T)                   -0.18403097 [mEh]      -0.11548118 [kcal/mol]      -0.48317324 [kJ/mol]
      Est. Disp22 (T)              -0.18810303 [mEh]      -0.11803643 [kcal/mol]      -0.49386443 [kJ/mol]
      Exch-Disp20                   0.00451471 [mEh]       0.00283302 [kcal/mol]       0.01185337 [kJ/mol]

  Total HF                         -0.21585767 [mEh]      -0.13545273 [kcal/mol]      -0.56673424 [kJ/mol]
  Total SAPT0                      -1.20561880 [mEh]      -0.75653722 [kcal/mol]      -3.16535172 [kJ/mol]
  Total SAPT2                      -1.16622189 [mEh]      -0.73181528 [kcal/mol]      -3.06191514 [kJ/mol]
  Total SAPT2+                     -1.16072885 [mEh]      -0.72836835 [kcal/mol]      -3.04749317 [kJ/mol]

  Special recipe for scaled SAPT0 (see Manual):
    Electrostatics sSAPT0          -0.20871851 [mEh]      -0.13097284 [kcal/mol]      -0.54799037 [kJ/mol]
    Exchange sSAPT0                 0.02017210 [mEh]       0.01265819 [kcal/mol]       0.05296185 [kJ/mol]
    Induction sSAPT0               -0.02731113 [mEh]      -0.01713799 [kcal/mol]      -0.07170535 [kJ/mol]
    Dispersion sSAPT0              -0.98976098 [mEh]      -0.62108439 [kcal/mol]      -2.59861710 [kJ/mol]
  Total sSAPT0                     -1.20561852 [mEh]      -0.75653704 [kcal/mol]      -3.16535098 [kJ/mol]
  --------------------------------------------------------------------------------------------------------

*** tstop() called on node85.bme.utexas.edu at Thu Apr 23 18:43:40 2020
Module time:
	user time   =   20248.32 seconds =     337.47 minutes
	system time =     258.86 seconds =       4.31 minutes
	total time  =       2612 seconds =      43.53 minutes
Total time:
	user time   =   20647.02 seconds =     344.12 minutes
	system time =     266.11 seconds =       4.44 minutes
	total time  =       2677 seconds =      44.62 minutes

    Psi4 stopped on: Thursday, 23 April 2020 06:43PM
    Psi4 wall time for execution: 0:44:37.11

*** Psi4 exiting successfully. Buy a developer a beer!
