    -----------------------------------------------------------------------
          PSI4: An Open-Source Ab Initio Electronic Structure Package
                              PSI 4.0.0-beta4 Driver

    J. M. Turney, A. C. Simmonett, R. M. Parrish, E. G. Hohenstein,
    F. A. Evangelista, J. T. Fermann, B. J. Mintz, L. A. Burns, J. J. Wilke,
    M. L. Abrams, N. J. Russ, M. L. Leininger, C. L. Janssen, E. T. Seidl,
    W. D. Allen, H. F. Schaefer, R. A. King, E. F. Valeev, C. D. Sherrill,
    and T. D. Crawford, WIREs Comput. Mol. Sci., (2011) (doi: 10.1002/wcms.93)

                         Additional Contributions by
    A. E. DePrince, M. Saitow, U. Bozkaya, A. Yu. Sokolov
    -----------------------------------------------------------------------

    Process ID:  18792
    PSI4DATADIR: /home/xzhu216/psi4/psi4-install/share/psi

    Using LocalCommunicator (Number of processes = 1)

    Memory level set to 256.000 MB

  ==> Input File <==

--------------------------------------------------------------------------
#psi4
#
memory 7 gb

molecule Uracil_Neopentane {
0 1
    N     0.626081282    -0.850912653     0.805915691
    H     0.409189894    -1.811500558     1.034401423
    C    -0.432456194    -0.087335807     0.294663759
    O    -1.530771620    -0.588403128     0.123592574
    C    -0.066874618     1.291275215     0.019637388
    H    -0.809743523     1.951810391    -0.392839648
    C     1.183542077     1.717935008     0.290533211
    H     1.501850224     2.733870641     0.109832837
    N     2.134129793     0.886601604     0.819081770
    H     3.055335935     1.223901374     1.043427784
    C     1.902783188    -0.443178440     1.128311754
    O     2.743806306    -1.163923537     1.628587299
--
0 1
    C    -0.435327248    -0.018558100     4.204375946
    C    -1.752073433     0.722730700     4.419248850
    H    -2.459144836     0.104524516     4.974111191
    H    -1.592573873     1.642915248     4.983433867
    H    -2.209783208     0.984227720     3.464095195
    C     0.180109367    -0.371996022     5.555653388
    H     1.123271540    -0.904369332     5.424871557
    H     0.377130319     0.527745718     6.140455531
    H    -0.491184654    -1.009733029     6.132390136
    C     0.529797024     0.874919722     3.428586853
    H     1.478367505     0.362325015     3.258232857
    H     0.735087223     1.793056171     3.982013226
    H     0.107401636     1.153406331     2.461122414
    C    -0.696644442    -1.298592493     3.414011052
    H    -1.160382843    -1.076758789     2.451386414
    H     0.235931858    -1.836991413     3.234374372
    H    -1.367152250    -1.960406456     3.964195974
units angstrom
no_reorient  #important for SAPT in psi4, default
symmetry c1  #important for SAPT in psi4, default
}

set {
basis aug-cc-pVDZ
scf_type DF
freeze_core True
}
energy('sapt2+')
--------------------------------------------------------------------------

  Memory set to   7.000 GiB by Python script.

  //>>>>>>>>>>>>>>>>>>>>>>>>>>>>>>>>>>>//
  //              Dimer HF             //
  //<<<<<<<<<<<<<<<<<<<<<<<<<<<<<<<<<<<//


  No DF_BASIS_SCF auxiliary basis selected, defaulting to aug-cc-pvdz-jkfit


*** tstart() called on node101.bme.utexas.edu
*** at Mon Feb 17 11:52:23 2014


         ---------------------------------------------------------
                                   SCF
            by Justin Turney, Rob Parrish, and Andy Simmonett
                              RHF Reference
                        4 Threads,   7000 MiB Core
         ---------------------------------------------------------

  ==> Geometry <==

    Molecular point group: c1
    Full point group: C1

    Geometry (in Angstrom), charge = 0, multiplicity = 1:

       Center              X                  Y                   Z       
    ------------   -----------------  -----------------  -----------------
           N          0.289708508752    -0.878211013208    -1.239018425452
           H          0.072817120752    -1.838798918208    -1.010532693452
           C         -0.768828967248    -0.114634167208    -1.750270357452
           O         -1.867144393248    -0.615701488208    -1.921341542452
           C         -0.403247391248     1.263976854792    -2.025296728452
           H         -1.146116296248     1.924512030792    -2.437773764452
           C          0.847169303752     1.690636647792    -1.754400905452
           H          1.165477450752     2.706572280792    -1.935101279452
           N          1.797757019752     0.859303243792    -1.225852346452
           H          2.718963161752     1.196603013792    -1.001506332452
           C          1.566410414752    -0.470476800208    -0.916622362452
           O          2.407433532752    -1.191221897208    -0.416346817452
           C         -0.771700021248    -0.045856460208     2.159441829548
           C         -2.088446206248     0.695432339792     2.374314733548
           H         -2.795517609248     0.077226155792     2.929177074548
           H         -1.928946646248     1.615616887792     2.938499750548
           H         -2.546155981248     0.956929359792     1.419161078548
           C         -0.156263406248    -0.399294382208     3.510719271548
           H          0.786898766752    -0.931667692208     3.379937440548
           H          0.040757545752     0.500447357792     4.095521414548
           H         -0.827557427248    -1.037031389208     4.087456019548
           C          0.193424250752     0.847621361792     1.383652736548
           H          1.141994731752     0.335026654792     1.213298740548
           H          0.398714449752     1.765757810792     1.937079109548
           H         -0.228971137248     1.126107970792     0.416188297548
           C         -1.033017215248    -1.325890853208     1.369076935548
           H         -1.496755616248    -1.104057149208     0.406452297548
           H         -0.100440915248    -1.864289773208     1.189440255548
           H         -1.703525023248    -1.987704816208     1.919261857548

  Running in c1 symmetry.

  Nuclear repulsion =  863.663563214013038

  Charge       = 0
  Multiplicity = 1
  Electrons    = 100
  Nalpha       = 50
  Nbeta        = 50

  ==> Algorithm <==

  SCF Algorithm Type is DF.
  DIIS enabled.
  MOM disabled.
  Fractional occupation disabled.
  Guess Type is CORE.
  Energy threshold   = 1.00e-08
  Density threshold  = 1.00e-08
  Integral threshold = 0.00e+00

  ==> Primary Basis <==

  Basis Set: AUG-CC-PVDZ
    Number of shells: 197
    Number of basis function: 443
    Number of Cartesian functions: 469
    Spherical Harmonics?: true
    Max angular momentum: 2

  ==> Pre-Iterations <==

   -------------------------------------------------------
    Irrep   Nso     Nmo     Nalpha   Nbeta   Ndocc  Nsocc
   -------------------------------------------------------
     A        443     443       0       0       0       0
   -------------------------------------------------------
    Total     443     443      50      50      50       0
   -------------------------------------------------------

 OEINTS: Wrapper to libmints.
   by Justin Turney

   Calculation information:
      Number of atoms:                  29
      Number of AO shells:             197
      Number of SO shells:             197
      Number of primitives:            437
      Number of atomic orbitals:       469
      Number of basis functions:       443

      Number of irreps:                  1
      Number of functions per irrep: [ 443 ]

      Overlap, kinetic, potential, dipole, and quadrupole integrals
        stored in file 35.

  ==> Integral Setup <==

  ==> DFJK: Density-Fitted J/K Matrices <==

    J tasked:                  Yes
    K tasked:                  Yes
    wK tasked:                  No
    OpenMP threads:              4
    Integrals threads:           4
    Memory (MB):              5006
    Algorithm:                Core
    Integral Cache:           SAVE
    Schwarz Cutoff:          0E+00
    Fitting Condition:       1E-12

   => Auxiliary Basis Set <=

  Basis Set: aug-cc-pvdz-jkfit
    Number of shells: 556
    Number of basis function: 1630
    Number of Cartesian functions: 1873
    Spherical Harmonics?: true
    Max angular momentum: 3

  Minimum eigenvalue in the overlap matrix is 6.4321880108E-06.
  Using Symmetric Orthogonalization.
  SCF Guess: Core (One-Electron) Hamiltonian.

  Guess energy:  -507.36636988746454

  ==> Iterations <==

                        Total Energy        Delta E     RMS |[F,P]|

   @RHF iter   1:  -433.01432418542004   -4.33014e+02   2.75280e-02 
   @RHF iter   2:  -146.58863307802403    2.86426e+02   3.88325e-02 DIIS
   @RHF iter   3:  -440.17838377101134   -2.93590e+02   2.52129e-02 DIIS
   @RHF iter   4:  -424.04190801874552    1.61365e+01   2.85525e-02 DIIS
   @RHF iter   5:  -569.29655221199801   -1.45255e+02   1.47648e-02 DIIS
   @RHF iter   6:  -576.12680517676313   -6.83025e+00   1.39620e-02 DIIS
   @RHF iter   7:  -608.09398435451112   -3.19672e+01   2.80116e-03 DIIS
   @RHF iter   8:  -608.66248253285789   -5.68498e-01   1.49998e-03 DIIS
   @RHF iter   9:  -608.84932044576226   -1.86838e-01   2.72073e-04 DIIS
   @RHF iter  10:  -608.85949945019138   -1.01790e-02   1.24066e-04 DIIS
   @RHF iter  11:  -608.86183301215260   -2.33356e-03   3.35548e-05 DIIS
   @RHF iter  12:  -608.86215320168230   -3.20190e-04   1.87397e-05 DIIS
   @RHF iter  13:  -608.86221955812061   -6.63564e-05   6.92282e-06 DIIS
   @RHF iter  14:  -608.86223371947585   -1.41614e-05   2.99029e-06 DIIS
   @RHF iter  15:  -608.86223554376738   -1.82429e-06   1.04783e-06 DIIS
   @RHF iter  16:  -608.86223576458519   -2.20818e-07   3.20166e-07 DIIS
   @RHF iter  17:  -608.86223578920567   -2.46205e-08   1.26035e-07 DIIS
   @RHF iter  18:  -608.86223579390389   -4.69822e-09   4.23995e-08 DIIS
   @RHF iter  19:  -608.86223579433590   -4.32010e-10   1.52067e-08 DIIS
   @RHF iter  20:  -608.86223579440639   -7.04858e-11   8.17003e-09 DIIS

  ==> Post-Iterations <==

	Orbital Energies (a.u.)
	-----------------------

	Doubly Occupied:                                                      

	   1A    -20.559534     2A    -20.554915     3A    -15.650491  
	   4A    -15.631802     5A    -11.428235     6A    -11.389986  
	   7A    -11.347307     8A    -11.261567     9A    -11.230111  
	  10A    -11.212648    11A    -11.209997    12A    -11.209494  
	  13A    -11.206040    14A     -1.442654    15A     -1.405937  
	  16A     -1.317893    17A     -1.249485    18A     -1.107388  
	  19A     -1.092014    20A     -0.940584    21A     -0.933041  
	  22A     -0.927898    23A     -0.926684    24A     -0.904497  
	  25A     -0.808954    26A     -0.767546    27A     -0.735583  
	  28A     -0.715181    29A     -0.680840    30A     -0.671712  
	  31A     -0.655536    32A     -0.620019    33A     -0.617042  
	  34A     -0.613226    35A     -0.608534    36A     -0.602975  
	  37A     -0.570267    38A     -0.556519    39A     -0.548579  
	  40A     -0.529445    41A     -0.509238    42A     -0.504874  
	  43A     -0.503700    44A     -0.484575    45A     -0.453731  
	  46A     -0.450370    47A     -0.449491    48A     -0.445886  
	  49A     -0.434538    50A     -0.367796  

	Virtual:                                                              

	  51A      0.018855    52A      0.039193    53A      0.041297  
	  54A      0.046767    55A      0.054831    56A      0.057537  
	  57A      0.059025    58A      0.063427    59A      0.073359  
	  60A      0.076413    61A      0.079927    62A      0.086164  
	  63A      0.088162    64A      0.091169    65A      0.095634  
	  66A      0.102096    67A      0.109533    68A      0.110670  
	  69A      0.119716    70A      0.123493    71A      0.126452  
	  72A      0.137294    73A      0.141344    74A      0.144450  
	  75A      0.149974    76A      0.152086    77A      0.159235  
	  78A      0.162009    79A      0.163307    80A      0.166777  
	  81A      0.170585    82A      0.171353    83A      0.175864  
	  84A      0.180231    85A      0.184831    86A      0.192448  
	  87A      0.197532    88A      0.199932    89A      0.205282  
	  90A      0.205894    91A      0.208037    92A      0.216908  
	  93A      0.222181    94A      0.224706    95A      0.227310  
	  96A      0.236523    97A      0.238072    98A      0.241176  
	  99A      0.244613   100A      0.247839   101A      0.254883  
	 102A      0.264857   103A      0.271565   104A      0.277077  
	 105A      0.278628   106A      0.285067   107A      0.292679  
	 108A      0.300126   109A      0.306307   110A      0.316883  
	 111A      0.322565   112A      0.328292   113A      0.331607  
	 114A      0.337903   115A      0.340603   116A      0.348122  
	 117A      0.353324   118A      0.357055   119A      0.364519  
	 120A      0.368472   121A      0.368888   122A      0.374552  
	 123A      0.379047   124A      0.381641   125A      0.394223  
	 126A      0.397348   127A      0.398256   128A      0.403769  
	 129A      0.407630   130A      0.415435   131A      0.416732  
	 132A      0.420088   133A      0.425469   134A      0.427638  
	 135A      0.437539   136A      0.444696   137A      0.447617  
	 138A      0.450077   139A      0.459052   140A      0.461268  
	 141A      0.467892   142A      0.476772   143A      0.485596  
	 144A      0.489856   145A      0.492201   146A      0.497053  
	 147A      0.502180   148A      0.506734   149A      0.512186  
	 150A      0.514611   151A      0.516850   152A      0.525211  
	 153A      0.526761   154A      0.534648   155A      0.537008  
	 156A      0.549377   157A      0.550186   158A      0.554508  
	 159A      0.564044   160A      0.567683   161A      0.575271  
	 162A      0.578813   163A      0.582127   164A      0.588574  
	 165A      0.591297   166A      0.600939   167A      0.603946  
	 168A      0.610118   169A      0.614878   170A      0.622381  
	 171A      0.631067   172A      0.631795   173A      0.638998  
	 174A      0.648783   175A      0.652898   176A      0.656384  
	 177A      0.661802   178A      0.664990   179A      0.668627  
	 180A      0.674528   181A      0.683936   182A      0.687741  
	 183A      0.691260   184A      0.698323   185A      0.705407  
	 186A      0.715440   187A      0.715700   188A      0.719321  
	 189A      0.729623   190A      0.739426   191A      0.743289  
	 192A      0.745764   193A      0.760158   194A      0.765684  
	 195A      0.765916   196A      0.772068   197A      0.783044  
	 198A      0.788405   199A      0.790072   200A      0.800729  
	 201A      0.802508   202A      0.805012   203A      0.809971  
	 204A      0.816882   205A      0.829533   206A      0.832184  
	 207A      0.841929   208A      0.845420   209A      0.852979  
	 210A      0.855452   211A      0.855843   212A      0.858681  
	 213A      0.873013   214A      0.875481   215A      0.878068  
	 216A      0.894257   217A      0.897040   218A      0.903796  
	 219A      0.915699   220A      0.917980   221A      0.920010  
	 222A      0.925491   223A      0.931484   224A      0.934697  
	 225A      0.946732   226A      0.952570   227A      0.961120  
	 228A      0.964137   229A      0.973528   230A      0.976917  
	 231A      0.984350   232A      0.993160   233A      1.000644  
	 234A      1.009483   235A      1.015059   236A      1.027773  
	 237A      1.035467   238A      1.046542   239A      1.051208  
	 240A      1.062133   241A      1.072234   242A      1.091439  
	 243A      1.101593   244A      1.112981   245A      1.118670  
	 246A      1.124470   247A      1.130637   248A      1.143039  
	 249A      1.148789   250A      1.161015   251A      1.166059  
	 252A      1.170966   253A      1.180145   254A      1.197882  
	 255A      1.200093   256A      1.210322   257A      1.226977  
	 258A      1.238391   259A      1.251739   260A      1.271000  
	 261A      1.278927   262A      1.288382   263A      1.308470  
	 264A      1.316794   265A      1.329731   266A      1.340593  
	 267A      1.342262   268A      1.360506   269A      1.363275  
	 270A      1.386184   271A      1.397030   272A      1.413023  
	 273A      1.418804   274A      1.424437   275A      1.438507  
	 276A      1.456923   277A      1.462019   278A      1.479722  
	 279A      1.485018   280A      1.493900   281A      1.499149  
	 282A      1.512926   283A      1.517436   284A      1.547220  
	 285A      1.551390   286A      1.557130   287A      1.575565  
	 288A      1.590482   289A      1.604430   290A      1.635896  
	 291A      1.641394   292A      1.647959   293A      1.662721  
	 294A      1.672399   295A      1.678492   296A      1.687284  
	 297A      1.702676   298A      1.711754   299A      1.732267  
	 300A      1.741962   301A      1.745226   302A      1.758800  
	 303A      1.772460   304A      1.781372   305A      1.802296  
	 306A      1.812716   307A      1.816642   308A      1.834643  
	 309A      1.843242   310A      1.866851   311A      1.871542  
	 312A      1.879283   313A      1.890100   314A      1.897370  
	 315A      1.913424   316A      1.930628   317A      1.934814  
	 318A      1.949609   319A      1.960893   320A      1.984554  
	 321A      1.991184   322A      1.996652   323A      2.012860  
	 324A      2.026891   325A      2.044388   326A      2.051621  
	 327A      2.058725   328A      2.067278   329A      2.076902  
	 330A      2.090268   331A      2.100382   332A      2.109287  
	 333A      2.124231   334A      2.129151   335A      2.132299  
	 336A      2.143495   337A      2.166180   338A      2.168326  
	 339A      2.178316   340A      2.188112   341A      2.201277  
	 342A      2.210087   343A      2.218382   344A      2.230383  
	 345A      2.238130   346A      2.245594   347A      2.253417  
	 348A      2.268892   349A      2.292678   350A      2.306665  
	 351A      2.310258   352A      2.325988   353A      2.337359  
	 354A      2.355513   355A      2.368332   356A      2.384734  
	 357A      2.389123   358A      2.391350   359A      2.397413  
	 360A      2.404244   361A      2.414298   362A      2.428516  
	 363A      2.436717   364A      2.461749   365A      2.478424  
	 366A      2.480558   367A      2.491380   368A      2.508754  
	 369A      2.511439   370A      2.528704   371A      2.547249  
	 372A      2.558714   373A      2.570680   374A      2.587206  
	 375A      2.596743   376A      2.612066   377A      2.623149  
	 378A      2.629261   379A      2.644893   380A      2.650077  
	 381A      2.658801   382A      2.676060   383A      2.677551  
	 384A      2.706044   385A      2.710783   386A      2.726070  
	 387A      2.735713   388A      2.762294   389A      2.771337  
	 390A      2.809792   391A      2.827968   392A      2.832090  
	 393A      2.842010   394A      2.863350   395A      2.881966  
	 396A      2.887783   397A      2.898923   398A      2.913987  
	 399A      2.915894   400A      2.930784   401A      2.954047  
	 402A      2.955263   403A      2.960812   404A      2.984975  
	 405A      3.001574   406A      3.020158   407A      3.046729  
	 408A      3.066069   409A      3.071175   410A      3.088677  
	 411A      3.111992   412A      3.131228   413A      3.137646  
	 414A      3.161733   415A      3.203729   416A      3.208525  
	 417A      3.250525   418A      3.295094   419A      3.303298  
	 420A      3.359367   421A      3.376764   422A      3.401961  
	 423A      3.407017   424A      3.427649   425A      3.503242  
	 426A      3.583756   427A      3.607970   428A      3.647407  
	 429A      3.712589   430A      3.793983   431A      3.851891  
	 432A      3.852263   433A      3.872227   434A      3.895015  
	 435A      3.897424   436A      3.914305   437A      3.980941  
	 438A      4.056184   439A      4.089021   440A      4.103097  
	 441A      4.164056   442A      4.239433   443A      4.442040  

	Final Occupation by Irrep:
	          A 
	DOCC [    50 ]

  Energy converged.

  @RHF Final Energy:  -608.86223579440639

   => Energetics <=

    Nuclear Repulsion Energy =            863.6635632140130383
    One-Electron Energy =               -2542.9588857167714195
    Two-Electron Energy =                1070.4330867083542671
    DFT Exchange-Correlation Energy =       0.0000000000000000
    Empirical Dispersion Energy =           0.0000000000000000
    Total Energy =                       -608.8622357944041141



Properties will be evaluated at   0.000000,   0.000000,   0.000000 Bohr
  ==> Properties <==


Properties computed using the SCF density density matrix
  Nuclear Dipole Moment: (a.u.)
     X:    -6.0486      Y:     3.2174      Z:    18.3202

  Electronic Dipole Moment: (a.u.)
     X:     6.8927      Y:    -1.5053      Z:   -18.5633

  Dipole Moment: (a.u.)
     X:     0.8441      Y:     1.7122      Z:    -0.2430     Total:     1.9243

  Dipole Moment: (Debye)
     X:     2.1454      Y:     4.3519      Z:    -0.6178     Total:     4.8911


  Saving occupied orbitals to File 180.

  Saving SAPT 2-DIMER file.

*** tstop() called on node101.bme.utexas.edu at Mon Feb 17 11:55:40 2014
Module time:
	user time   =     716.69 seconds =      11.94 minutes
	system time =      10.43 seconds =       0.17 minutes
	total time  =        197 seconds =       3.28 minutes
Total time:
	user time   =     716.69 seconds =      11.94 minutes
	system time =      10.43 seconds =       0.17 minutes
	total time  =        197 seconds =       3.28 minutes

  //>>>>>>>>>>>>>>>>>>>>>>>>>>>>>>>>>>>//
  //            Monomer A HF           //
  //<<<<<<<<<<<<<<<<<<<<<<<<<<<<<<<<<<<//


  No DF_BASIS_SCF auxiliary basis selected, defaulting to aug-cc-pvdz-jkfit


*** tstart() called on node101.bme.utexas.edu
*** at Mon Feb 17 11:55:40 2014


         ---------------------------------------------------------
                                   SCF
            by Justin Turney, Rob Parrish, and Andy Simmonett
                              RHF Reference
                        4 Threads,   7000 MiB Core
         ---------------------------------------------------------

  ==> Geometry <==

    Molecular point group: c1
    Full point group: C1

    Geometry (in Angstrom), charge = 0, multiplicity = 1:

       Center              X                  Y                   Z       
    ------------   -----------------  -----------------  -----------------
           N          0.289708508752    -0.878211013208    -1.239018425452
           H          0.072817120752    -1.838798918208    -1.010532693452
           C         -0.768828967248    -0.114634167208    -1.750270357452
           O         -1.867144393248    -0.615701488208    -1.921341542452
           C         -0.403247391248     1.263976854792    -2.025296728452
           H         -1.146116296248     1.924512030792    -2.437773764452
           C          0.847169303752     1.690636647792    -1.754400905452
           H          1.165477450752     2.706572280792    -1.935101279452
           N          1.797757019752     0.859303243792    -1.225852346452
           H          2.718963161752     1.196603013792    -1.001506332452
           C          1.566410414752    -0.470476800208    -0.916622362452
           O          2.407433532752    -1.191221897208    -0.416346817452
           C(Gh)     -0.771700021248    -0.045856460208     2.159441829548
           C(Gh)     -2.088446206248     0.695432339792     2.374314733548
           H(Gh)     -2.795517609248     0.077226155792     2.929177074548
           H(Gh)     -1.928946646248     1.615616887792     2.938499750548
           H(Gh)     -2.546155981248     0.956929359792     1.419161078548
           C(Gh)     -0.156263406248    -0.399294382208     3.510719271548
           H(Gh)      0.786898766752    -0.931667692208     3.379937440548
           H(Gh)      0.040757545752     0.500447357792     4.095521414548
           H(Gh)     -0.827557427248    -1.037031389208     4.087456019548
           C(Gh)      0.193424250752     0.847621361792     1.383652736548
           H(Gh)      1.141994731752     0.335026654792     1.213298740548
           H(Gh)      0.398714449752     1.765757810792     1.937079109548
           H(Gh)     -0.228971137248     1.126107970792     0.416188297548
           C(Gh)     -1.033017215248    -1.325890853208     1.369076935548
           H(Gh)     -1.496755616248    -1.104057149208     0.406452297548
           H(Gh)     -0.100440915248    -1.864289773208     1.189440255548
           H(Gh)     -1.703525023248    -1.987704816208     1.919261857548

  Running in c1 symmetry.

  Nuclear repulsion =  357.127131193447724

  Charge       = 0
  Multiplicity = 1
  Electrons    = 58
  Nalpha       = 29
  Nbeta        = 29

  ==> Algorithm <==

  SCF Algorithm Type is DF.
  DIIS enabled.
  MOM disabled.
  Fractional occupation disabled.
  Guess Type is CORE.
  Energy threshold   = 1.00e-08
  Density threshold  = 1.00e-08
  Integral threshold = 0.00e+00

  ==> Primary Basis <==

  Basis Set: AUG-CC-PVDZ
    Number of shells: 197
    Number of basis function: 443
    Number of Cartesian functions: 469
    Spherical Harmonics?: true
    Max angular momentum: 2

  ==> Pre-Iterations <==

   -------------------------------------------------------
    Irrep   Nso     Nmo     Nalpha   Nbeta   Ndocc  Nsocc
   -------------------------------------------------------
     A        443     443       0       0       0       0
   -------------------------------------------------------
    Total     443     443      29      29      29       0
   -------------------------------------------------------

 OEINTS: Wrapper to libmints.
   by Justin Turney

   Calculation information:
      Number of atoms:                  29
      Number of AO shells:             197
      Number of SO shells:             197
      Number of primitives:            437
      Number of atomic orbitals:       469
      Number of basis functions:       443

      Number of irreps:                  1
      Number of functions per irrep: [ 443 ]

      Overlap, kinetic, potential, dipole, and quadrupole integrals
        stored in file 35.

  ==> Integral Setup <==

  ==> DFJK: Density-Fitted J/K Matrices <==

    J tasked:                  Yes
    K tasked:                  Yes
    wK tasked:                  No
    OpenMP threads:              4
    Integrals threads:           4
    Memory (MB):              5006
    Algorithm:                Core
    Integral Cache:           LOAD
    Schwarz Cutoff:          0E+00
    Fitting Condition:       1E-12

   => Auxiliary Basis Set <=

  Basis Set: aug-cc-pvdz-jkfit
    Number of shells: 556
    Number of basis function: 1630
    Number of Cartesian functions: 1873
    Spherical Harmonics?: true
    Max angular momentum: 3

  Minimum eigenvalue in the overlap matrix is 6.4321880108E-06.
  Using Symmetric Orthogonalization.
  SCF Guess: Core (One-Electron) Hamiltonian.

  Guess energy:  -318.18202621655820

  ==> Iterations <==

                        Total Energy        Delta E     RMS |[F,P]|

   @RHF iter   1:  -346.96940777066737   -3.46969e+02   1.81633e-02 
   @RHF iter   2:  -307.71594019765627    3.92535e+01   1.72351e-02 DIIS
   @RHF iter   3:  -353.86414709928516   -4.61482e+01   1.71895e-02 DIIS
   @RHF iter   4:  -399.51704042795876   -4.56529e+01   9.47278e-03 DIIS
   @RHF iter   5:  -403.01609616334173   -3.49906e+00   7.76335e-03 DIIS
   @RHF iter   6:  -411.59683595175244   -8.58074e+00   2.92182e-03 DIIS
   @RHF iter   7:  -412.38846163624788   -7.91626e-01   1.25561e-03 DIIS
   @RHF iter   8:  -412.52120624509774   -1.32745e-01   2.40211e-04 DIIS
   @RHF iter   9:  -412.53015374061778   -8.94750e-03   7.75733e-05 DIIS
   @RHF iter  10:  -412.53104179806297   -8.88057e-04   3.75765e-05 DIIS
   @RHF iter  11:  -412.53124774784561   -2.05950e-04   1.68645e-05 DIIS
   @RHF iter  12:  -412.53128935431602   -4.16065e-05   7.79780e-06 DIIS
   @RHF iter  13:  -412.53129758264862   -8.22833e-06   1.71125e-06 DIIS
   @RHF iter  14:  -412.53129815606479   -5.73416e-07   7.49260e-07 DIIS
   @RHF iter  15:  -412.53129826790718   -1.11842e-07   3.73933e-07 DIIS
   @RHF iter  16:  -412.53129830143934   -3.35322e-08   1.40561e-07 DIIS
   @RHF iter  17:  -412.53129830892414   -7.48480e-09   3.90683e-08 DIIS
   @RHF iter  18:  -412.53129830929635   -3.72211e-10   1.30517e-08 DIIS
   @RHF iter  19:  -412.53129830932920   -3.28555e-11   4.38248e-09 DIIS

  ==> Post-Iterations <==

	Orbital Energies (a.u.)
	-----------------------

	Doubly Occupied:                                                      

	   1A    -20.559347     2A    -20.553514     3A    -15.652303  
	   4A    -15.635381     5A    -11.428870     6A    -11.389906  
	   7A    -11.348150     8A    -11.262662     9A     -1.441904  
	  10A     -1.403825    11A     -1.317946    12A     -1.249786  
	  13A     -1.091589    14A     -0.936326    15A     -0.904982  
	  16A     -0.809339    17A     -0.767347    18A     -0.715993  
	  19A     -0.679953    20A     -0.669610    21A     -0.654993  
	  22A     -0.616480    23A     -0.602685    24A     -0.571380  
	  25A     -0.526072    26A     -0.484216    27A     -0.449345  
	  28A     -0.436633    29A     -0.368557  

	Virtual:                                                              

	  30A      0.015983    31A      0.028677    32A      0.037541  
	  33A      0.041929    34A      0.051295    35A      0.052587  
	  36A      0.056387    37A      0.062500    38A      0.071589  
	  39A      0.075124    40A      0.080038    41A      0.081651  
	  42A      0.086283    43A      0.087514    44A      0.091847  
	  45A      0.095761    46A      0.101733    47A      0.108901  
	  48A      0.109749    49A      0.120445    50A      0.120970  
	  51A      0.125174    52A      0.126935    53A      0.135203  
	  54A      0.137307    55A      0.143226    56A      0.145784  
	  57A      0.147771    58A      0.153326    59A      0.159293  
	  60A      0.163127    61A      0.165388    62A      0.169193  
	  63A      0.170456    64A      0.181345    65A      0.182138  
	  66A      0.186599    67A      0.188608    68A      0.191796  
	  69A      0.196967    70A      0.201301    71A      0.206576  
	  72A      0.213307    73A      0.222990    74A      0.225341  
	  75A      0.227136    76A      0.228884    77A      0.231845  
	  78A      0.237164    79A      0.239671    80A      0.243931  
	  81A      0.250254    82A      0.254002    83A      0.266813  
	  84A      0.271928    85A      0.278707    86A      0.292393  
	  87A      0.294813    88A      0.299542    89A      0.312806  
	  90A      0.324221    91A      0.330360    92A      0.334921  
	  93A      0.337463    94A      0.341985    95A      0.342949  
	  96A      0.349542    97A      0.353590    98A      0.364618  
	  99A      0.367998   100A      0.369131   101A      0.374461  
	 102A      0.380977   103A      0.382134   104A      0.391936  
	 105A      0.392986   106A      0.394245   107A      0.398914  
	 108A      0.408688   109A      0.412231   110A      0.415909  
	 111A      0.423334   112A      0.427580   113A      0.428414  
	 114A      0.435210   115A      0.438118   116A      0.447919  
	 117A      0.448906   118A      0.454754   119A      0.460346  
	 120A      0.462729   121A      0.470673   122A      0.481243  
	 123A      0.481885   124A      0.494261   125A      0.498270  
	 126A      0.504701   127A      0.507784   128A      0.511300  
	 129A      0.515626   130A      0.525088   131A      0.532459  
	 132A      0.534869   133A      0.542400   134A      0.552083  
	 135A      0.558601   136A      0.564813   137A      0.574341  
	 138A      0.582158   139A      0.585329   140A      0.589689  
	 141A      0.595285   142A      0.600915   143A      0.607474  
	 144A      0.613313   145A      0.618536   146A      0.621817  
	 147A      0.627239   148A      0.629883   149A      0.642574  
	 150A      0.647397   151A      0.653668   152A      0.658195  
	 153A      0.663658   154A      0.666401   155A      0.670446  
	 156A      0.680643   157A      0.693050   158A      0.699867  
	 159A      0.702661   160A      0.708465   161A      0.712551  
	 162A      0.716129   163A      0.716814   164A      0.736143  
	 165A      0.744935   166A      0.748147   167A      0.752464  
	 168A      0.756111   169A      0.760801   170A      0.764260  
	 171A      0.774484   172A      0.776962   173A      0.785112  
	 174A      0.791950   175A      0.799838   176A      0.803915  
	 177A      0.809686   178A      0.810383   179A      0.818635  
	 180A      0.827143   181A      0.831253   182A      0.835673  
	 183A      0.839824   184A      0.847811   185A      0.851746  
	 186A      0.856693   187A      0.863837   188A      0.866269  
	 189A      0.876590   190A      0.878076   191A      0.882849  
	 192A      0.887840   193A      0.893775   194A      0.902361  
	 195A      0.903938   196A      0.918243   197A      0.923301  
	 198A      0.930088   199A      0.938412   200A      0.945674  
	 201A      0.952888   202A      0.959059   203A      0.964069  
	 204A      0.972702   205A      0.976543   206A      0.978234  
	 207A      0.981664   208A      0.988549   209A      0.992989  
	 210A      1.004563   211A      1.009768   212A      1.020442  
	 213A      1.030623   214A      1.043879   215A      1.045767  
	 216A      1.052656   217A      1.057428   218A      1.063743  
	 219A      1.072281   220A      1.080812   221A      1.098248  
	 222A      1.106591   223A      1.115174   224A      1.126534  
	 225A      1.130614   226A      1.139443   227A      1.144330  
	 228A      1.147852   229A      1.158567   230A      1.170826  
	 231A      1.171553   232A      1.186986   233A      1.202826  
	 234A      1.208055   235A      1.212728   236A      1.227108  
	 237A      1.229137   238A      1.244586   239A      1.247478  
	 240A      1.249209   241A      1.261118   242A      1.278570  
	 243A      1.284718   244A      1.306541   245A      1.317544  
	 246A      1.318964   247A      1.333262   248A      1.345997  
	 249A      1.355597   250A      1.365495   251A      1.377844  
	 252A      1.389130   253A      1.399242   254A      1.421964  
	 255A      1.429865   256A      1.441071   257A      1.468129  
	 258A      1.480839   259A      1.488346   260A      1.500703  
	 261A      1.516100   262A      1.521355   263A      1.538174  
	 264A      1.554868   265A      1.563927   266A      1.571172  
	 267A      1.584811   268A      1.601551   269A      1.621700  
	 270A      1.647087   271A      1.663244   272A      1.729340  
	 273A      1.734782   274A      1.753470   275A      1.777995  
	 276A      1.784915   277A      1.814174   278A      1.820107  
	 279A      1.873299   280A      1.887819   281A      1.904932  
	 282A      1.910956   283A      1.939100   284A      1.963363  
	 285A      1.979360   286A      1.991335   287A      2.011340  
	 288A      2.030783   289A      2.038039   290A      2.063290  
	 291A      2.069770   292A      2.093896   293A      2.113082  
	 294A      2.134610   295A      2.142895   296A      2.153862  
	 297A      2.182098   298A      2.185588   299A      2.213239  
	 300A      2.218928   301A      2.224710   302A      2.242406  
	 303A      2.247809   304A      2.248701   305A      2.259105  
	 306A      2.263382   307A      2.265566   308A      2.275138  
	 309A      2.287529   310A      2.294944   311A      2.311949  
	 312A      2.316100   313A      2.320816   314A      2.338625  
	 315A      2.344974   316A      2.356017   317A      2.359142  
	 318A      2.369993   319A      2.383699   320A      2.386709  
	 321A      2.395561   322A      2.402046   323A      2.412175  
	 324A      2.425501   325A      2.432627   326A      2.437526  
	 327A      2.443996   328A      2.454642   329A      2.474607  
	 330A      2.479266   331A      2.493293   332A      2.502807  
	 333A      2.516203   334A      2.519982   335A      2.524650  
	 336A      2.531721   337A      2.554173   338A      2.569813  
	 339A      2.575512   340A      2.583248   341A      2.591770  
	 342A      2.612636   343A      2.632265   344A      2.652621  
	 345A      2.660937   346A      2.667407   347A      2.678422  
	 348A      2.685805   349A      2.694817   350A      2.710950  
	 351A      2.715109   352A      2.736193   353A      2.747874  
	 354A      2.776136   355A      2.786495   356A      2.806428  
	 357A      2.821494   358A      2.831027   359A      2.837049  
	 360A      2.850958   361A      2.866527   362A      2.885243  
	 363A      2.901155   364A      2.909333   365A      2.915422  
	 366A      2.930765   367A      2.945753   368A      2.946408  
	 369A      2.967577   370A      2.978138   371A      2.997425  
	 372A      3.010310   373A      3.019644   374A      3.050527  
	 375A      3.067350   376A      3.077396   377A      3.098257  
	 378A      3.110387   379A      3.133862   380A      3.157383  
	 381A      3.185921   382A      3.205408   383A      3.237790  
	 384A      3.274134   385A      3.288030   386A      3.297643  
	 387A      3.313352   388A      3.348667   389A      3.375968  
	 390A      3.382038   391A      3.420923   392A      3.487860  
	 393A      3.496690   394A      3.512305   395A      3.525060  
	 396A      3.541548   397A      3.546754   398A      3.563005  
	 399A      3.573722   400A      3.616324   401A      3.647221  
	 402A      3.677621   403A      3.709078   404A      3.751465  
	 405A      3.787164   406A      3.837783   407A      3.853100  
	 408A      3.871486   409A      3.880285   410A      3.894581  
	 411A      3.909239   412A      3.942473   413A      3.967336  
	 414A      4.042005   415A      4.059726   416A      4.092315  
	 417A      4.096732   418A      4.148019   419A      4.181736  
	 420A      4.228458   421A      4.331601   422A      4.402193  
	 423A      4.468526   424A      4.620173   425A      4.696913  
	 426A      4.745549   427A      4.752317   428A      4.769322  
	 429A      4.848944   430A      5.081401   431A      5.132627  
	 432A      5.136264   433A      5.166021   434A      5.248770  
	 435A      5.251377   436A      5.264018   437A      5.277885  
	 438A      5.358433   439A     18.237206   440A     18.866193  
	 441A     18.886963   442A     19.049240   443A     19.310658  

	Final Occupation by Irrep:
	          A 
	DOCC [    29 ]

  Energy converged.

  @RHF Final Energy:  -412.53129830932920

   => Energetics <=

    Nuclear Repulsion Energy =            357.1271311934477239
    One-Electron Energy =               -1270.2586750611508251
    Two-Electron Energy =                 500.6002455583732171
    DFT Exchange-Correlation Energy =       0.0000000000000000
    Empirical Dispersion Energy =           0.0000000000000000
    Total Energy =                       -412.5312983093299408



Properties will be evaluated at   0.000000,   0.000000,   0.000000 Bohr
  ==> Properties <==


Properties computed using the SCF density density matrix
  Nuclear Dipole Moment: (a.u.)
     X:    55.1701      Y:     6.8373      Z:  -153.1057

  Electronic Dipole Moment: (a.u.)
     X:   -54.2823      Y:    -5.0811      Z:   152.8683

  Dipole Moment: (a.u.)
     X:     0.8877      Y:     1.7562      Z:    -0.2374     Total:     1.9821

  Dipole Moment: (Debye)
     X:     2.2564      Y:     4.4638      Z:    -0.6035     Total:     5.0380


  Saving occupied orbitals to File 180.

  Saving SAPT 2-MONOMER_A file.

*** tstop() called on node101.bme.utexas.edu at Mon Feb 17 11:57:52 2014
Module time:
	user time   =     502.25 seconds =       8.37 minutes
	system time =       3.68 seconds =       0.06 minutes
	total time  =        132 seconds =       2.20 minutes
Total time:
	user time   =    1218.97 seconds =      20.32 minutes
	system time =      14.11 seconds =       0.24 minutes
	total time  =        329 seconds =       5.48 minutes

  //>>>>>>>>>>>>>>>>>>>>>>>>>>>>>>>>>>>//
  //            Monomer B HF           //
  //<<<<<<<<<<<<<<<<<<<<<<<<<<<<<<<<<<<//


  No DF_BASIS_SCF auxiliary basis selected, defaulting to aug-cc-pvdz-jkfit


*** tstart() called on node101.bme.utexas.edu
*** at Mon Feb 17 11:57:52 2014


         ---------------------------------------------------------
                                   SCF
            by Justin Turney, Rob Parrish, and Andy Simmonett
                              RHF Reference
                        4 Threads,   7000 MiB Core
         ---------------------------------------------------------

  ==> Geometry <==

    Molecular point group: c1
    Full point group: C1

    Geometry (in Angstrom), charge = 0, multiplicity = 1:

       Center              X                  Y                   Z       
    ------------   -----------------  -----------------  -----------------
           N(Gh)      0.289708508752    -0.878211013208    -1.239018425452
           H(Gh)      0.072817120752    -1.838798918208    -1.010532693452
           C(Gh)     -0.768828967248    -0.114634167208    -1.750270357452
           O(Gh)     -1.867144393248    -0.615701488208    -1.921341542452
           C(Gh)     -0.403247391248     1.263976854792    -2.025296728452
           H(Gh)     -1.146116296248     1.924512030792    -2.437773764452
           C(Gh)      0.847169303752     1.690636647792    -1.754400905452
           H(Gh)      1.165477450752     2.706572280792    -1.935101279452
           N(Gh)      1.797757019752     0.859303243792    -1.225852346452
           H(Gh)      2.718963161752     1.196603013792    -1.001506332452
           C(Gh)      1.566410414752    -0.470476800208    -0.916622362452
           O(Gh)      2.407433532752    -1.191221897208    -0.416346817452
           C         -0.771700021248    -0.045856460208     2.159441829548
           C         -2.088446206248     0.695432339792     2.374314733548
           H         -2.795517609248     0.077226155792     2.929177074548
           H         -1.928946646248     1.615616887792     2.938499750548
           H         -2.546155981248     0.956929359792     1.419161078548
           C         -0.156263406248    -0.399294382208     3.510719271548
           H          0.786898766752    -0.931667692208     3.379937440548
           H          0.040757545752     0.500447357792     4.095521414548
           H         -0.827557427248    -1.037031389208     4.087456019548
           C          0.193424250752     0.847621361792     1.383652736548
           H          1.141994731752     0.335026654792     1.213298740548
           H          0.398714449752     1.765757810792     1.937079109548
           H         -0.228971137248     1.126107970792     0.416188297548
           C         -1.033017215248    -1.325890853208     1.369076935548
           H         -1.496755616248    -1.104057149208     0.406452297548
           H         -0.100440915248    -1.864289773208     1.189440255548
           H         -1.703525023248    -1.987704816208     1.919261857548

  Running in c1 symmetry.

  Nuclear repulsion =  199.361535643092395

  Charge       = 0
  Multiplicity = 1
  Electrons    = 42
  Nalpha       = 21
  Nbeta        = 21

  ==> Algorithm <==

  SCF Algorithm Type is DF.
  DIIS enabled.
  MOM disabled.
  Fractional occupation disabled.
  Guess Type is CORE.
  Energy threshold   = 1.00e-08
  Density threshold  = 1.00e-08
  Integral threshold = 0.00e+00

  ==> Primary Basis <==

  Basis Set: AUG-CC-PVDZ
    Number of shells: 197
    Number of basis function: 443
    Number of Cartesian functions: 469
    Spherical Harmonics?: true
    Max angular momentum: 2

  ==> Pre-Iterations <==

   -------------------------------------------------------
    Irrep   Nso     Nmo     Nalpha   Nbeta   Ndocc  Nsocc
   -------------------------------------------------------
     A        443     443       0       0       0       0
   -------------------------------------------------------
    Total     443     443      21      21      21       0
   -------------------------------------------------------

 OEINTS: Wrapper to libmints.
   by Justin Turney

   Calculation information:
      Number of atoms:                  29
      Number of AO shells:             197
      Number of SO shells:             197
      Number of primitives:            437
      Number of atomic orbitals:       469
      Number of basis functions:       443

      Number of irreps:                  1
      Number of functions per irrep: [ 443 ]

      Overlap, kinetic, potential, dipole, and quadrupole integrals
        stored in file 35.

  ==> Integral Setup <==

  ==> DFJK: Density-Fitted J/K Matrices <==

    J tasked:                  Yes
    K tasked:                  Yes
    wK tasked:                  No
    OpenMP threads:              4
    Integrals threads:           4
    Memory (MB):              5006
    Algorithm:                Core
    Integral Cache:           LOAD
    Schwarz Cutoff:          0E+00
    Fitting Condition:       1E-12

   => Auxiliary Basis Set <=

  Basis Set: aug-cc-pvdz-jkfit
    Number of shells: 556
    Number of basis function: 1630
    Number of Cartesian functions: 1873
    Spherical Harmonics?: true
    Max angular momentum: 3

  Minimum eigenvalue in the overlap matrix is 6.4321880108E-06.
  Using Symmetric Orthogonalization.
  SCF Guess: Core (One-Electron) Hamiltonian.

  Guess energy:  -162.57115574405742

  ==> Iterations <==

                        Total Energy        Delta E     RMS |[F,P]|

   @RHF iter   1:  -148.35283008875774   -1.48353e+02   1.51876e-02 
   @RHF iter   2:  -120.52429429794478    2.78285e+01   1.18742e-02 DIIS
   @RHF iter   3:  -191.61882692055235   -7.10945e+01   6.19242e-03 DIIS
   @RHF iter   4:  -195.26480352839548   -3.64598e+00   3.11359e-03 DIIS
   @RHF iter   5:  -196.26059623911436   -9.95793e-01   7.91520e-04 DIIS
   @RHF iter   6:  -196.35310925518939   -9.25130e-02   1.10078e-04 DIIS
   @RHF iter   7:  -196.35532895837633   -2.21970e-03   2.23460e-05 DIIS
   @RHF iter   8:  -196.35542163626445   -9.26779e-05   3.70837e-06 DIIS
   @RHF iter   9:  -196.35542455098056   -2.91472e-06   9.35033e-07 DIIS
   @RHF iter  10:  -196.35542468488808   -1.33908e-07   3.15950e-07 DIIS
   @RHF iter  11:  -196.35542469930175   -1.44137e-08   4.77078e-08 DIIS
   @RHF iter  12:  -196.35542469973899   -4.37240e-10   7.31849e-09 DIIS

  ==> Post-Iterations <==

	Orbital Energies (a.u.)
	-----------------------

	Doubly Occupied:                                                      

	   1A    -11.231102     2A    -11.212020     3A    -11.211984  
	   4A    -11.211830     5A    -11.211736     6A     -1.107805  
	   7A     -0.929953     8A     -0.929719     9A     -0.929229  
	  10A     -0.729858    11A     -0.611906    12A     -0.611310  
	  13A     -0.611109    14A     -0.553087    15A     -0.551933  
	  16A     -0.508820    17A     -0.508558    18A     -0.507854  
	  19A     -0.452080    20A     -0.451451    21A     -0.451011  

	Virtual:                                                              

	  22A      0.024534    23A      0.039014    24A      0.039171  
	  25A      0.042203    26A      0.054974    27A      0.056813  
	  28A      0.060703    29A      0.062089    30A      0.064805  
	  31A      0.077012    32A      0.082121    33A      0.085178  
	  34A      0.088440    35A      0.089597    36A      0.094983  
	  37A      0.099806    38A      0.102896    39A      0.109845  
	  40A      0.116438    41A      0.124318    42A      0.128375  
	  43A      0.133365    44A      0.136946    45A      0.141536  
	  46A      0.146406    47A      0.150754    48A      0.159156  
	  49A      0.161296    50A      0.162637    51A      0.169202  
	  52A      0.174221    53A      0.175806    54A      0.177914  
	  55A      0.180651    56A      0.190379    57A      0.192569  
	  58A      0.194533    59A      0.199318    60A      0.203870  
	  61A      0.211183    62A      0.214666    63A      0.218645  
	  64A      0.220905    65A      0.224431    66A      0.228057  
	  67A      0.235309    68A      0.239891    69A      0.241100  
	  70A      0.245913    71A      0.247506    72A      0.251945  
	  73A      0.254531    74A      0.260939    75A      0.271114  
	  76A      0.272388    77A      0.286779    78A      0.291472  
	  79A      0.296404    80A      0.305586    81A      0.308328  
	  82A      0.318062    83A      0.320660    84A      0.323905  
	  85A      0.331176    86A      0.334470    87A      0.341810  
	  88A      0.344942    89A      0.353469    90A      0.356302  
	  91A      0.360871    92A      0.370440    93A      0.380945  
	  94A      0.391429    95A      0.393251    96A      0.401823  
	  97A      0.412471    98A      0.413544    99A      0.419197  
	 100A      0.422646   101A      0.425062   102A      0.434799  
	 103A      0.440952   104A      0.443384   105A      0.446547  
	 106A      0.450635   107A      0.460062   108A      0.464972  
	 109A      0.474407   110A      0.479644   111A      0.482511  
	 112A      0.485541   113A      0.496636   114A      0.499787  
	 115A      0.503393   116A      0.508661   117A      0.511605  
	 118A      0.519144   119A      0.521453   120A      0.521918  
	 121A      0.527187   122A      0.538545   123A      0.540602  
	 124A      0.543329   125A      0.553246   126A      0.560881  
	 127A      0.562100   128A      0.564941   129A      0.574989  
	 130A      0.579867   131A      0.591259   132A      0.595383  
	 133A      0.600160   134A      0.608297   135A      0.610561  
	 136A      0.618707   137A      0.620469   138A      0.630938  
	 139A      0.631225   140A      0.635212   141A      0.646989  
	 142A      0.651304   143A      0.655053   144A      0.659454  
	 145A      0.666302   146A      0.671025   147A      0.678809  
	 148A      0.679936   149A      0.688174   150A      0.699868  
	 151A      0.700385   152A      0.705145   153A      0.709810  
	 154A      0.725251   155A      0.729419   156A      0.730103  
	 157A      0.737448   158A      0.742975   159A      0.753535  
	 160A      0.756768   161A      0.757437   162A      0.770396  
	 163A      0.774664   164A      0.778324   165A      0.785491  
	 166A      0.795044   167A      0.797017   168A      0.808214  
	 169A      0.821671   170A      0.823261   171A      0.827858  
	 172A      0.831736   173A      0.844455   174A      0.848569  
	 175A      0.855303   176A      0.862800   177A      0.867908  
	 178A      0.871093   179A      0.874075   180A      0.881321  
	 181A      0.889125   182A      0.892053   183A      0.897446  
	 184A      0.904886   185A      0.909340   186A      0.922967  
	 187A      0.927774   188A      0.930445   189A      0.935305  
	 190A      0.941037   191A      0.945747   192A      0.948288  
	 193A      0.951254   194A      0.965791   195A      0.969944  
	 196A      0.984705   197A      0.992989   198A      0.997845  
	 199A      1.000903   200A      1.009584   201A      1.022209  
	 202A      1.027540   203A      1.034296   204A      1.052557  
	 205A      1.060484   206A      1.068066   207A      1.075610  
	 208A      1.080970   209A      1.083078   210A      1.096112  
	 211A      1.100356   212A      1.114937   213A      1.120116  
	 214A      1.128632   215A      1.140965   216A      1.161724  
	 217A      1.166313   218A      1.185310   219A      1.190078  
	 220A      1.194858   221A      1.219269   222A      1.221041  
	 223A      1.235655   224A      1.243526   225A      1.251955  
	 226A      1.269695   227A      1.281180   228A      1.292736  
	 229A      1.300676   230A      1.307251   231A      1.313775  
	 232A      1.326053   233A      1.337917   234A      1.343107  
	 235A      1.355589   236A      1.360395   237A      1.377184  
	 238A      1.390036   239A      1.408128   240A      1.411480  
	 241A      1.421736   242A      1.426863   243A      1.432637  
	 244A      1.454879   245A      1.457043   246A      1.468092  
	 247A      1.479385   248A      1.485138   249A      1.495759  
	 250A      1.513184   251A      1.517497   252A      1.534154  
	 253A      1.541158   254A      1.545573   255A      1.561241  
	 256A      1.584094   257A      1.603711   258A      1.617204  
	 259A      1.639734   260A      1.640946   261A      1.649540  
	 262A      1.656996   263A      1.678270   264A      1.691120  
	 265A      1.698939   266A      1.710092   267A      1.723494  
	 268A      1.729043   269A      1.741322   270A      1.754524  
	 271A      1.777986   272A      1.788991   273A      1.791133  
	 274A      1.805480   275A      1.828225   276A      1.835952  
	 277A      1.855990   278A      1.861129   279A      1.871142  
	 280A      1.896371   281A      1.909213   282A      1.917401  
	 283A      1.935504   284A      1.970623   285A      1.984839  
	 286A      2.009765   287A      2.016891   288A      2.053000  
	 289A      2.057492   290A      2.083101   291A      2.108023  
	 292A      2.114362   293A      2.136746   294A      2.146890  
	 295A      2.154755   296A      2.171993   297A      2.178367  
	 298A      2.184047   299A      2.194476   300A      2.220335  
	 301A      2.225461   302A      2.241466   303A      2.265898  
	 304A      2.281084   305A      2.301879   306A      2.309867  
	 307A      2.316348   308A      2.337372   309A      2.343998  
	 310A      2.357399   311A      2.364845   312A      2.380374  
	 313A      2.386920   314A      2.395264   315A      2.413886  
	 316A      2.421200   317A      2.429071   318A      2.440696  
	 319A      2.456000   320A      2.462290   321A      2.502481  
	 322A      2.508366   323A      2.519151   324A      2.537684  
	 325A      2.545718   326A      2.550422   327A      2.560197  
	 328A      2.566567   329A      2.572574   330A      2.581675  
	 331A      2.590108   332A      2.602561   333A      2.623016  
	 334A      2.636688   335A      2.647764   336A      2.660539  
	 337A      2.664673   338A      2.681925   339A      2.693037  
	 340A      2.722656   341A      2.729276   342A      2.736028  
	 343A      2.762074   344A      2.770030   345A      2.777810  
	 346A      2.791342   347A      2.813910   348A      2.835260  
	 349A      2.848249   350A      2.853328   351A      2.867930  
	 352A      2.891157   353A      2.901216   354A      2.903083  
	 355A      2.926306   356A      2.940326   357A      2.950779  
	 358A      2.966258   359A      2.992832   360A      2.999179  
	 361A      3.025147   362A      3.040175   363A      3.051235  
	 364A      3.066979   365A      3.084476   366A      3.094502  
	 367A      3.122647   368A      3.135734   369A      3.157542  
	 370A      3.160700   371A      3.203443   372A      3.240091  
	 373A      3.285686   374A      3.315054   375A      3.378438  
	 376A      3.390348   377A      3.403023   378A      3.432987  
	 379A      3.530495   380A      3.557441   381A      3.577903  
	 382A      3.623134   383A      3.629570   384A      3.650524  
	 385A      3.687058   386A      3.724578   387A      3.742639  
	 388A      3.804147   389A      3.819022   390A      3.847275  
	 391A      3.878110   392A      3.894154   393A      3.903480  
	 394A      3.946919   395A      3.988191   396A      4.018939  
	 397A      4.073956   398A      4.195285   399A      4.233780  
	 400A      4.292877   401A      4.362228   402A      4.421786  
	 403A      4.525845   404A      4.575587   405A      4.610343  
	 406A      4.676304   407A      4.741728   408A      4.878993  
	 409A      4.981324   410A      5.005515   411A      5.041674  
	 412A      5.048051   413A      5.073031   414A      5.104966  
	 415A      5.136847   416A      5.145917   417A      5.155404  
	 418A      5.192884   419A      5.262337   420A      5.397206  
	 421A      5.518154   422A      5.596558   423A      5.724829  
	 424A      5.842039   425A      5.984530   426A      6.051550  
	 427A      6.128766   428A      6.218477   429A      6.257687  
	 430A      6.269682   431A      6.396500   432A      6.506607  
	 433A      6.588629   434A      7.051570   435A      7.342240  
	 436A     18.193415   437A     18.799468   438A     18.939518  
	 439A     19.664935   440A     25.470684   441A     25.519592  
	 442A     33.541088   443A     33.550980  

	Final Occupation by Irrep:
	          A 
	DOCC [    21 ]

  Energy converged.

  @RHF Final Energy:  -196.35542469973899

   => Energetics <=

    Nuclear Repulsion Energy =            199.3615356430923953
    One-Electron Energy =                -658.3852388462657927
    Two-Electron Energy =                 262.6682785034358858
    DFT Exchange-Correlation Energy =       0.0000000000000000
    Empirical Dispersion Energy =           0.0000000000000000
    Total Energy =                       -196.3554246997375117



Properties will be evaluated at   0.000000,   0.000000,   0.000000 Bohr
  ==> Properties <==


Properties computed using the SCF density density matrix
  Nuclear Dipole Moment: (a.u.)
     X:   -61.2187      Y:    -3.6199      Z:   171.4260

  Electronic Dipole Moment: (a.u.)
     X:    61.2169      Y:     3.6199      Z:  -171.4239

  Dipole Moment: (a.u.)
     X:    -0.0018      Y:    -0.0000      Z:     0.0020     Total:     0.0027

  Dipole Moment: (Debye)
     X:    -0.0045      Y:    -0.0000      Z:     0.0051     Total:     0.0068


  Saving occupied orbitals to File 180.

  Saving SAPT 2-MONOMER_B file.

*** tstop() called on node101.bme.utexas.edu at Mon Feb 17 11:59:13 2014
Module time:
	user time   =     303.09 seconds =       5.05 minutes
	system time =       3.08 seconds =       0.05 minutes
	total time  =         81 seconds =       1.35 minutes
Total time:
	user time   =    1522.08 seconds =      25.37 minutes
	system time =      17.19 seconds =       0.29 minutes
	total time  =        410 seconds =       6.83 minutes
  No DF_BASIS_SAPT auxiliary basis selected, defaulting to aug-cc-pvdz-ri

  //>>>>>>>>>>>>>>>>>>>>>>>>>>>>>>>>>>>//
  //               SAPT2+              //
  //<<<<<<<<<<<<<<<<<<<<<<<<<<<<<<<<<<<//


*** tstart() called on node101.bme.utexas.edu
*** at Mon Feb 17 11:59:13 2014

        SAPT2+  
    Ed Hohenstein
     6 June 2009

      Orbital Information
  --------------------------
    NSO        =       443
    NMO        =       443
    NRI        =      1304
    NOCC A     =        29
    NOCC B     =        21
    FOCC A     =         8
    FOCC B     =         5
    NVIR A     =       414
    NVIR B     =       422

    Estimated memory usage: 5452.2 MB

    Elst10,r            =    -0.017838636922 H
    Exch10 (S^2)        =     0.045849576714 H
    Exch10              =     0.046315181851 H
    Ind20,r (A<-B)      =    -0.003219058023 H
    Ind20,r (B<-A)      =    -0.014020043842 H
    Ind20,r             =    -0.017239101865 H
    Exch-Ind20,r (A<-B) =     0.002587561570 H
    Exch-Ind20,r (B<-A) =     0.012712065351 H
    Exch-Ind20,r        =     0.015299626921 H
    Disp20              =    -0.027366430559 H
    Exch-Disp20         =     0.004362638131 H
    Elst12,r            =    -0.002433789772 H
    Exch11              =     0.000585720067 H
    Exch12              =     0.003880969501 H
    Ind22               =    -0.002160780500 H
    Disp21              =     0.004661838859 H
    Disp22 (SDQ)        =    -0.000643222356 H

    (i =   1 of  16)       5059 seconds
    (i =   2 of  16)      10119 seconds
    (i =   3 of  16)      15181 seconds
    (i =   4 of  16)      20240 seconds
    (i =   5 of  16)      25300 seconds
    (i =   6 of  16)      30360 seconds
    (i =   7 of  16)      35418 seconds
    (i =   8 of  16)      40479 seconds
    (i =   9 of  16)      45538 seconds
    (i =  10 of  16)      50598 seconds
    (i =  11 of  16)      55658 seconds
    (i =  12 of  16)      60716 seconds
    (i =  13 of  16)      65775 seconds
    (i =  14 of  16)      70834 seconds
    (i =  15 of  16)      75897 seconds
    (i =  16 of  16)      80961 seconds

    Disp220 (T)         =    -0.002730989858 H

    (i =   1 of  21)       3093 seconds
    (i =   2 of  21)       6189 seconds
    (i =   3 of  21)       9281 seconds
    (i =   4 of  21)      12376 seconds
    (i =   5 of  21)      15467 seconds
    (i =   6 of  21)      18561 seconds
    (i =   7 of  21)      21649 seconds
    (i =   8 of  21)      24734 seconds
    (i =   9 of  21)      27818 seconds
    (i =  10 of  21)      30905 seconds
    (i =  11 of  21)      33998 seconds
    (i =  12 of  21)      37089 seconds
    (i =  13 of  21)      40180 seconds
    (i =  14 of  21)      43268 seconds
    (i =  15 of  21)      46358 seconds
    (i =  16 of  21)      49451 seconds
    (i =  17 of  21)      52547 seconds
    (i =  18 of  21)      55641 seconds
    (i =  19 of  21)      58735 seconds
    (i =  20 of  21)      61826 seconds
    (i =  21 of  21)      64924 seconds

    Disp202 (T)         =    -0.001827042560 H

    Disp22 (T)          =    -0.004558032418 H

    SAPT Results  
  -----------------------------------------------------------------------
    Electrostatics         -20.27242669 mH     -12.72114034 kcal mol^-1
      Elst10,r             -17.83863692 mH     -11.19391414 kcal mol^-1
      Elst12,r              -2.43378977 mH      -1.52722620 kcal mol^-1

    Exchange                50.78187142 mH      31.86610674 kcal mol^-1
      Exch10                46.31518185 mH      29.06321661 kcal mol^-1
      Exch10(S^2)           45.84957671 mH      28.77104496 kcal mol^-1
      Exch11(S^2)            0.58572007 mH       0.36754491 kcal mol^-1
      Exch12(S^2)            3.88096950 mH       2.43534523 kcal mol^-1

    Induction               -4.23242760 mH      -2.65588853 kcal mol^-1
      Ind20,r              -17.23910187 mH     -10.81770019 kcal mol^-1
      Ind22                 -2.16078050 mH      -1.35591029 kcal mol^-1
      Exch-Ind20,r          15.29962692 mH       9.60066124 kcal mol^-1
      Exch-Ind22             1.91768317 mH       1.20336441 kcal mol^-1
      delta HF,r (2)        -2.04985532 mH      -1.28630369 kcal mol^-1

    Dispersion             -23.54320834 mH     -14.77358690 kcal mol^-1
      Disp20               -27.36643056 mH     -17.17269516 kcal mol^-1
      Disp21                 4.66183886 mH       2.92534817 kcal mol^-1
      Disp22 (SDQ)          -0.64322236 mH      -0.40362814 kcal mol^-1
      Disp22 (T)            -4.55803242 mH      -2.86020864 kcal mol^-1
      Exch-Disp20            4.36263813 mH       2.73759687 kcal mol^-1

    Total HF                24.48721466 mH      15.36595983 kcal mol^-1
    Total SAPT0              1.48342223 mH       0.93086154 kcal mol^-1
    Total SAPT2              3.27322470 mH       2.05397959 kcal mol^-1
    Total SAPT2+             2.73380878 mH       1.71549098 kcal mol^-1

*** tstop() called on node101.bme.utexas.edu at Wed Feb 19 06:47:37 2014
Module time:
	user time   =  522493.38 seconds =    8708.22 minutes
	system time =     486.46 seconds =       8.11 minutes
	total time  =     154104 seconds =    2568.40 minutes
Total time:
	user time   =  524015.46 seconds =    8733.59 minutes
	system time =     503.65 seconds =       8.39 minutes
	total time  =     154514 seconds =    2575.23 minutes

*** PSI4 exiting successfully. Buy a developer a beer!
