    -----------------------------------------------------------------------
          PSI4: An Open-Source Ab Initio Electronic Structure Package
                              PSI 4.0.0-beta4 Driver

    J. M. Turney, A. C. Simmonett, R. M. Parrish, E. G. Hohenstein,
    F. A. Evangelista, J. T. Fermann, B. J. Mintz, L. A. Burns, J. J. Wilke,
    M. L. Abrams, N. J. Russ, M. L. Leininger, C. L. Janssen, E. T. Seidl,
    W. D. Allen, H. F. Schaefer, R. A. King, E. F. Valeev, C. D. Sherrill,
    and T. D. Crawford, WIREs Comput. Mol. Sci., (2011) (doi: 10.1002/wcms.93)

                         Additional Contributions by
    A. E. DePrince, M. Saitow, U. Bozkaya, A. Yu. Sokolov
    -----------------------------------------------------------------------

    Process ID:  12499
    PSI4DATADIR: /home/xzhu216/psi4/psi4-install/share/psi

    Using LocalCommunicator (Number of processes = 1)

    Memory level set to 256.000 MB

  ==> Input File <==

--------------------------------------------------------------------------
#psi4
#
memory 3 gb

molecule Benzene_Benzene {
0 1
C    0.729188666   1.113101217   0.326728253
H    1.303215897   2.014222336   0.159160270
C    1.375087369  -0.119366352   0.412776946
H    2.450514736  -0.174623998   0.313307203
C    0.635039807  -1.280553386   0.629385409
H    1.136334479  -2.236017467   0.700217157
C   -0.750985629  -1.209654296   0.757890338
H   -1.324525898  -2.111412827   0.924198912
C   -1.397034430   0.022670814   0.673089633
H   -2.472425369   0.078488260   0.773997991
C   -0.656897314   1.184296216   0.458338585
H   -1.157828445   2.140587131   0.395096082
--
0 1
C    0.171554750   0.172595843   4.201004177
H    0.293681157   0.398079299   3.150577743
C   -0.919526818  -0.582302768   4.628340446
H   -1.640031347  -0.938817025   3.904646025
C   -1.080226799  -0.876428091   5.981290513
H   -1.927334386  -1.462396655   6.311538054
C   -0.148344238  -0.415374711   6.909784591
H   -0.272237734  -0.643340872   7.959792090
C    0.943240861   0.339727343   6.484544307
H    1.666359946   0.697560523   7.204926961
C    1.102044755   0.633212362   5.131052990
H    1.949302673   1.219287157   4.801005665
units angstrom
no_reorient  #important for SAPT in psi4, default
symmetry c1  #important for SAPT in psi4, default
}

set {
basis aug-cc-pVDZ
scf_type DF
freeze_core True
}
energy('sapt2+')
--------------------------------------------------------------------------

  Memory set to   3.000 GiB by Python script.

  //>>>>>>>>>>>>>>>>>>>>>>>>>>>>>>>>>>>//
  //              Dimer HF             //
  //<<<<<<<<<<<<<<<<<<<<<<<<<<<<<<<<<<<//


  No DF_BASIS_SCF auxiliary basis selected, defaulting to aug-cc-pvdz-jkfit


*** tstart() called on node122.bme.utexas.edu
*** at Thu Sep 19 00:01:22 2013


         ---------------------------------------------------------
                                   SCF
            by Justin Turney, Rob Parrish, and Andy Simmonett
                              RHF Reference
                        4 Threads,   3000 MiB Core
         ---------------------------------------------------------

  ==> Geometry <==

    Molecular point group: c1
    Full point group: C1

    Geometry (in Angstrom), charge = 0, multiplicity = 1:

       Center              X                  Y                   Z       
    ------------   -----------------  -----------------  -----------------
           C          0.728914748856     1.197942858486    -2.722817958550
           H          1.302941979856     2.099063977486    -2.890385941550
           C          1.374813451856    -0.034524710514    -2.636769265550
           H          2.450240818856    -0.089782356514    -2.736239008550
           C          0.634765889856    -1.195711744514    -2.420160802550
           H          1.136060561856    -2.151175825514    -2.349329054550
           C         -0.751259546144    -1.124812654514    -2.291655873550
           H         -1.324799815144    -2.026571185514    -2.125347299550
           C         -1.397308347144     0.107512455486    -2.376456578550
           H         -2.472699286144     0.163329901486    -2.275548220550
           C         -0.657171231144     1.269137857486    -2.591207626550
           H         -1.158102362144     2.225428772486    -2.654450129550
           C          0.171280832856     0.257437484486     1.151457965450
           H          0.293407239856     0.482920940486     0.101031531450
           C         -0.919800735144    -0.497461126514     1.578794234450
           H         -1.640305264144    -0.853975383514     0.855099813450
           C         -1.080500716144    -0.791586449514     2.931744301450
           H         -1.927608303144    -1.377555013514     3.261991842450
           C         -0.148618155144    -0.330533069514     3.860238379450
           H         -0.272511651144    -0.558499230514     4.910245878450
           C          0.942966943856     0.424568984486     3.434998095450
           H          1.666086028856     0.782402164486     4.155380749450
           C          1.101770837856     0.718054003486     2.081506778450
           H          1.949028755856     1.304128798486     1.751459453450

  Running in c1 symmetry.

  Nuclear repulsion =  588.861780677562933

  Charge       = 0
  Multiplicity = 1
  Electrons    = 84
  Nalpha       = 42
  Nbeta        = 42

  ==> Algorithm <==

  SCF Algorithm Type is DF.
  DIIS enabled.
  MOM disabled.
  Fractional occupation disabled.
  Guess Type is CORE.
  Energy threshold   = 1.00e-08
  Density threshold  = 1.00e-08
  Integral threshold = 0.00e+00

  ==> Primary Basis <==

  Basis Set: AUG-CC-PVDZ
    Number of shells: 168
    Number of basis function: 384
    Number of Cartesian functions: 408
    Spherical Harmonics?: true
    Max angular momentum: 2

  ==> Pre-Iterations <==

   -------------------------------------------------------
    Irrep   Nso     Nmo     Nalpha   Nbeta   Ndocc  Nsocc
   -------------------------------------------------------
     A        384     384       0       0       0       0
   -------------------------------------------------------
    Total     384     384      42      42      42       0
   -------------------------------------------------------

 OEINTS: Wrapper to libmints.
   by Justin Turney

   Calculation information:
      Number of atoms:                  24
      Number of AO shells:             168
      Number of SO shells:             168
      Number of primitives:            384
      Number of atomic orbitals:       408
      Number of basis functions:       384

      Number of irreps:                  1
      Number of functions per irrep: [ 384 ]

      Overlap, kinetic, potential, dipole, and quadrupole integrals
        stored in file 35.

  ==> Integral Setup <==

  ==> DFJK: Density-Fitted J/K Matrices <==

    J tasked:                  Yes
    K tasked:                  Yes
    wK tasked:                  No
    OpenMP threads:              4
    Integrals threads:           4
    Memory (MB):              2145
    Algorithm:                Core
    Integral Cache:           SAVE
    Schwarz Cutoff:          0E+00
    Fitting Condition:       1E-12

   => Auxiliary Basis Set <=

  Basis Set: aug-cc-pvdz-jkfit
    Number of shells: 480
    Number of basis function: 1416
    Number of Cartesian functions: 1632
    Spherical Harmonics?: true
    Max angular momentum: 3

  Minimum eigenvalue in the overlap matrix is 1.9473439560E-06.
  Using Symmetric Orthogonalization.
  SCF Guess: Core (One-Electron) Hamiltonian.

  Guess energy:  -363.50451591998774

  ==> Iterations <==

                        Total Energy        Delta E     RMS |[F,P]|

   @RHF iter   1:  -372.90133997550345   -3.72901e+02   2.21882e-02 
   @RHF iter   2:  -170.50084501246238    2.02400e+02   3.23789e-02 DIIS
   @RHF iter   3:  -296.56682361719504   -1.26066e+02   1.94468e-02 DIIS
   @RHF iter   4:  -243.41690951697183    5.31499e+01   2.89358e-02 DIIS
   @RHF iter   5:  -381.40868870181464   -1.37992e+02   1.87155e-02 DIIS
   @RHF iter   6:  -460.52895600530326   -7.91203e+01   3.08818e-03 DIIS
   @RHF iter   7:  -461.25595682917822   -7.27001e-01   1.52496e-03 DIIS
   @RHF iter   8:  -461.44003510389132   -1.84078e-01   3.55724e-04 DIIS
   @RHF iter   9:  -461.45420485713760   -1.41698e-02   1.16062e-04 DIIS
   @RHF iter  10:  -461.45584353795391   -1.63868e-03   4.30746e-05 DIIS
   @RHF iter  11:  -461.45606110465758   -2.17567e-04   1.57970e-05 DIIS
   @RHF iter  12:  -461.45610740452582   -4.62999e-05   5.02242e-06 DIIS
   @RHF iter  13:  -461.45611280511423   -5.40059e-06   2.17492e-06 DIIS
   @RHF iter  14:  -461.45611414097777   -1.33586e-06   8.93463e-07 DIIS
   @RHF iter  15:  -461.45611437878495   -2.37807e-07   4.55451e-07 DIIS
   @RHF iter  16:  -461.45611446213240   -8.33475e-08   1.92356e-07 DIIS
   @RHF iter  17:  -461.45611447960903   -1.74766e-08   7.50985e-08 DIIS
   @RHF iter  18:  -461.45611448088482   -1.27579e-09   2.24488e-08 DIIS
   @RHF iter  19:  -461.45611448100442   -1.19599e-10   7.04964e-09 DIIS

  ==> Post-Iterations <==

	Orbital Energies (a.u.)
	-----------------------

	Doubly Occupied:                                                      

	   1A    -11.246365     2A    -11.245831     3A    -11.245648  
	   4A    -11.244588     5A    -11.244508     6A    -11.243860  
	   7A    -11.235482     8A    -11.234894     9A    -11.233852  
	  10A    -11.233079    11A    -11.232462    12A    -11.229952  
	  13A     -1.157522    14A     -1.145630    15A     -1.021446  
	  16A     -1.021165    17A     -1.010068    18A     -1.009555  
	  19A     -0.829647    20A     -0.829542    21A     -0.818579  
	  22A     -0.818098    23A     -0.714272    24A     -0.703299  
	  25A     -0.648467    26A     -0.637575    27A     -0.623491  
	  28A     -0.612259    29A     -0.592500    30A     -0.592167  
	  31A     -0.582251    32A     -0.581559    33A     -0.507865  
	  34A     -0.498429    35A     -0.498297    36A     -0.494554  
	  37A     -0.487266    38A     -0.483606    39A     -0.342729  
	  40A     -0.341469    41A     -0.329681    42A     -0.326585  

	Virtual:                                                              

	  43A      0.031876    44A      0.037701    45A      0.041755  
	  46A      0.043051    47A      0.051225    48A      0.054408  
	  49A      0.056823    50A      0.061055    51A      0.071825  
	  52A      0.075513    53A      0.081521    54A      0.093662  
	  55A      0.099965    56A      0.106831    57A      0.111995  
	  58A      0.116565    59A      0.120092    60A      0.121561  
	  61A      0.135946    62A      0.136978    63A      0.140099  
	  64A      0.141999    65A      0.145910    66A      0.147475  
	  67A      0.150515    68A      0.151611    69A      0.154040  
	  70A      0.155203    71A      0.157118    72A      0.165454  
	  73A      0.166101    74A      0.173222    75A      0.175342  
	  76A      0.179962    77A      0.182364    78A      0.183780  
	  79A      0.189075    80A      0.189267    81A      0.190684  
	  82A      0.198824    83A      0.201991    84A      0.205937  
	  85A      0.211170    86A      0.213953    87A      0.226911  
	  88A      0.229853    89A      0.236725    90A      0.243811  
	  91A      0.246168    92A      0.251952    93A      0.262608  
	  94A      0.265946    95A      0.277198    96A      0.290838  
	  97A      0.297551    98A      0.307122    99A      0.312375  
	 100A      0.320197   101A      0.320759   102A      0.324571  
	 103A      0.331229   104A      0.334728   105A      0.337874  
	 106A      0.343700   107A      0.352403   108A      0.354678  
	 109A      0.366218   110A      0.367237   111A      0.369089  
	 112A      0.373144   113A      0.374349   114A      0.376018  
	 115A      0.379655   116A      0.386046   117A      0.389918  
	 118A      0.393257   119A      0.394526   120A      0.408003  
	 121A      0.414199   122A      0.422848   123A      0.426814  
	 124A      0.433152   125A      0.437116   126A      0.437392  
	 127A      0.442671   128A      0.444162   129A      0.449558  
	 130A      0.461492   131A      0.463449   132A      0.468447  
	 133A      0.472575   134A      0.494760   135A      0.499549  
	 136A      0.501991   137A      0.515638   138A      0.520791  
	 139A      0.529087   140A      0.538596   141A      0.552913  
	 142A      0.569067   143A      0.573824   144A      0.576874  
	 145A      0.582897   146A      0.592549   147A      0.593154  
	 148A      0.598713   149A      0.600848   150A      0.610197  
	 151A      0.611608   152A      0.613468   153A      0.616346  
	 154A      0.622720   155A      0.625670   156A      0.627948  
	 157A      0.632948   158A      0.637921   159A      0.646819  
	 160A      0.650255   161A      0.655808   162A      0.662612  
	 163A      0.677757   164A      0.677889   165A      0.682632  
	 166A      0.687661   167A      0.690639   168A      0.695501  
	 169A      0.698583   170A      0.700656   171A      0.705771  
	 172A      0.712026   173A      0.715523   174A      0.720977  
	 175A      0.721819   176A      0.730536   177A      0.732536  
	 178A      0.735681   179A      0.754276   180A      0.761105  
	 181A      0.766463   182A      0.777429   183A      0.782536  
	 184A      0.783287   185A      0.792790   186A      0.798247  
	 187A      0.801428   188A      0.817701   189A      0.819952  
	 190A      0.829679   191A      0.840776   192A      0.855487  
	 193A      0.857524   194A      0.860536   195A      0.865534  
	 196A      0.877454   197A      0.878036   198A      0.884080  
	 199A      0.888572   200A      0.896073   201A      0.903631  
	 202A      0.907895   203A      0.923586   204A      0.927533  
	 205A      0.933558   206A      0.942219   207A      0.947930  
	 208A      0.949022   209A      0.952858   210A      0.964048  
	 211A      0.970287   212A      0.977556   213A      0.985983  
	 214A      0.987703   215A      0.999787   216A      1.002360  
	 217A      1.006091   218A      1.013013   219A      1.026263  
	 220A      1.027034   221A      1.036386   222A      1.037707  
	 223A      1.068331   224A      1.080742   225A      1.089672  
	 226A      1.099135   227A      1.113065   228A      1.119009  
	 229A      1.125758   230A      1.140170   231A      1.168273  
	 232A      1.172622   233A      1.195928   234A      1.197470  
	 235A      1.223532   236A      1.244014   237A      1.252333  
	 238A      1.304809   239A      1.320362   240A      1.341074  
	 241A      1.355252   242A      1.359253   243A      1.378995  
	 244A      1.403169   245A      1.453697   246A      1.469152  
	 247A      1.496095   248A      1.498090   249A      1.506349  
	 250A      1.525289   251A      1.525766   252A      1.544184  
	 253A      1.546968   254A      1.547388   255A      1.557397  
	 256A      1.559388   257A      1.569102   258A      1.579268  
	 259A      1.586384   260A      1.592409   261A      1.594999  
	 262A      1.620404   263A      1.632423   264A      1.635848  
	 265A      1.640936   266A      1.651070   267A      1.654906  
	 268A      1.656036   269A      1.659056   270A      1.684523  
	 271A      1.690444   272A      1.704396   273A      1.716294  
	 274A      1.721904   275A      1.729827   276A      1.733440  
	 277A      1.736209   278A      1.743056   279A      1.749470  
	 280A      1.762231   281A      1.774096   282A      1.801230  
	 283A      1.807804   284A      1.810161   285A      1.820635  
	 286A      1.838936   287A      1.846382   288A      1.854904  
	 289A      1.883249   290A      1.901251   291A      1.915531  
	 292A      1.924656   293A      1.930949   294A      1.933373  
	 295A      1.953577   296A      1.956788   297A      1.971051  
	 298A      1.971925   299A      1.976354   300A      1.982291  
	 301A      1.994077   302A      1.997005   303A      2.005388  
	 304A      2.011319   305A      2.012702   306A      2.026883  
	 307A      2.030474   308A      2.044765   309A      2.069550  
	 310A      2.099203   311A      2.114794   312A      2.117015  
	 313A      2.121926   314A      2.139755   315A      2.148284  
	 316A      2.152108   317A      2.171278   318A      2.184457  
	 319A      2.190480   320A      2.213542   321A      2.219372  
	 322A      2.231562   323A      2.240108   324A      2.242124  
	 325A      2.244758   326A      2.261498   327A      2.274633  
	 328A      2.291110   329A      2.294719   330A      2.305823  
	 331A      2.311921   332A      2.331186   333A      2.337989  
	 334A      2.362358   335A      2.374553   336A      2.379223  
	 337A      2.385403   338A      2.392421   339A      2.399681  
	 340A      2.410166   341A      2.435614   342A      2.447729  
	 343A      2.473209   344A      2.476570   345A      2.480444  
	 346A      2.486994   347A      2.620676   348A      2.645072  
	 349A      2.682131   350A      2.699301   351A      2.799401  
	 352A      2.804718   353A      2.806445   354A      2.811897  
	 355A      2.816720   356A      2.826090   357A      2.841539  
	 358A      2.865354   359A      2.874139   360A      2.980998  
	 361A      2.981812   362A      2.983406   363A      2.987581  
	 364A      3.000567   365A      3.008609   366A      3.022392  
	 367A      3.152702   368A      3.158339   369A      3.163011  
	 370A      3.172464   371A      3.176040   372A      3.183830  
	 373A      3.228169   374A      3.282783   375A      3.385406  
	 376A      3.410908   377A      3.573475   378A      3.583761  
	 379A      3.597069   380A      3.609695   381A      3.889596  
	 382A      3.915480   383A      4.841631   384A      4.905236  

	Final Occupation by Irrep:
	          A 
	DOCC [    42 ]

  Energy converged.

  @RHF Final Energy:  -461.45611448100442

   => Energetics <=

    Nuclear Repulsion Energy =            588.8617806775629333
    One-Electron Energy =               -1790.3755865917764822
    Two-Electron Energy =                 740.0576914332089018
    DFT Exchange-Correlation Energy =       0.0000000000000000
    Empirical Dispersion Energy =           0.0000000000000000
    Total Energy =                       -461.4561144810047608



Properties will be evaluated at   0.000000,   0.000000,   0.000000 Bohr
  ==> Properties <==


Properties computed using the SCF density density matrix
  Nuclear Dipole Moment: (a.u.)
     X:     0.0016      Y:    -0.0003      Z:     0.0037

  Electronic Dipole Moment: (a.u.)
     X:     0.0120      Y:    -0.0060      Z:    -0.1906

  Dipole Moment: (a.u.)
     X:     0.0137      Y:    -0.0062      Z:    -0.1869     Total:     0.1875

  Dipole Moment: (Debye)
     X:     0.0347      Y:    -0.0158      Z:    -0.4751     Total:     0.4767


  Saving occupied orbitals to File 180.

  Saving SAPT 2-DIMER file.

*** tstop() called on node122.bme.utexas.edu at Thu Sep 19 00:03:28 2013
Module time:
	user time   =     458.57 seconds =       7.64 minutes
	system time =       6.52 seconds =       0.11 minutes
	total time  =        126 seconds =       2.10 minutes
Total time:
	user time   =     458.57 seconds =       7.64 minutes
	system time =       6.52 seconds =       0.11 minutes
	total time  =        126 seconds =       2.10 minutes

  //>>>>>>>>>>>>>>>>>>>>>>>>>>>>>>>>>>>//
  //            Monomer A HF           //
  //<<<<<<<<<<<<<<<<<<<<<<<<<<<<<<<<<<<//


  No DF_BASIS_SCF auxiliary basis selected, defaulting to aug-cc-pvdz-jkfit


*** tstart() called on node122.bme.utexas.edu
*** at Thu Sep 19 00:03:28 2013


         ---------------------------------------------------------
                                   SCF
            by Justin Turney, Rob Parrish, and Andy Simmonett
                              RHF Reference
                        4 Threads,   3000 MiB Core
         ---------------------------------------------------------

  ==> Geometry <==

    Molecular point group: c1
    Full point group: C1

    Geometry (in Angstrom), charge = 0, multiplicity = 1:

       Center              X                  Y                   Z       
    ------------   -----------------  -----------------  -----------------
           C          0.728914748856     1.197942858486    -2.722817958550
           H          1.302941979856     2.099063977486    -2.890385941550
           C          1.374813451856    -0.034524710514    -2.636769265550
           H          2.450240818856    -0.089782356514    -2.736239008550
           C          0.634765889856    -1.195711744514    -2.420160802550
           H          1.136060561856    -2.151175825514    -2.349329054550
           C         -0.751259546144    -1.124812654514    -2.291655873550
           H         -1.324799815144    -2.026571185514    -2.125347299550
           C         -1.397308347144     0.107512455486    -2.376456578550
           H         -2.472699286144     0.163329901486    -2.275548220550
           C         -0.657171231144     1.269137857486    -2.591207626550
           H         -1.158102362144     2.225428772486    -2.654450129550
           C(Gh)      0.171280832856     0.257437484486     1.151457965450
           H(Gh)      0.293407239856     0.482920940486     0.101031531450
           C(Gh)     -0.919800735144    -0.497461126514     1.578794234450
           H(Gh)     -1.640305264144    -0.853975383514     0.855099813450
           C(Gh)     -1.080500716144    -0.791586449514     2.931744301450
           H(Gh)     -1.927608303144    -1.377555013514     3.261991842450
           C(Gh)     -0.148618155144    -0.330533069514     3.860238379450
           H(Gh)     -0.272511651144    -0.558499230514     4.910245878450
           C(Gh)      0.942966943856     0.424568984486     3.434998095450
           H(Gh)      1.666086028856     0.782402164486     4.155380749450
           C(Gh)      1.101770837856     0.718054003486     2.081506778450
           H(Gh)      1.949028755856     1.304128798486     1.751459453450

  Running in c1 symmetry.

  Nuclear repulsion =  203.669220217791917

  Charge       = 0
  Multiplicity = 1
  Electrons    = 42
  Nalpha       = 21
  Nbeta        = 21

  ==> Algorithm <==

  SCF Algorithm Type is DF.
  DIIS enabled.
  MOM disabled.
  Fractional occupation disabled.
  Guess Type is CORE.
  Energy threshold   = 1.00e-08
  Density threshold  = 1.00e-08
  Integral threshold = 0.00e+00

  ==> Primary Basis <==

  Basis Set: AUG-CC-PVDZ
    Number of shells: 168
    Number of basis function: 384
    Number of Cartesian functions: 408
    Spherical Harmonics?: true
    Max angular momentum: 2

  ==> Pre-Iterations <==

   -------------------------------------------------------
    Irrep   Nso     Nmo     Nalpha   Nbeta   Ndocc  Nsocc
   -------------------------------------------------------
     A        384     384       0       0       0       0
   -------------------------------------------------------
    Total     384     384      21      21      21       0
   -------------------------------------------------------

 OEINTS: Wrapper to libmints.
   by Justin Turney

   Calculation information:
      Number of atoms:                  24
      Number of AO shells:             168
      Number of SO shells:             168
      Number of primitives:            384
      Number of atomic orbitals:       408
      Number of basis functions:       384

      Number of irreps:                  1
      Number of functions per irrep: [ 384 ]

      Overlap, kinetic, potential, dipole, and quadrupole integrals
        stored in file 35.

  ==> Integral Setup <==

  ==> DFJK: Density-Fitted J/K Matrices <==

    J tasked:                  Yes
    K tasked:                  Yes
    wK tasked:                  No
    OpenMP threads:              4
    Integrals threads:           4
    Memory (MB):              2145
    Algorithm:                Core
    Integral Cache:           LOAD
    Schwarz Cutoff:          0E+00
    Fitting Condition:       1E-12

   => Auxiliary Basis Set <=

  Basis Set: aug-cc-pvdz-jkfit
    Number of shells: 480
    Number of basis function: 1416
    Number of Cartesian functions: 1632
    Spherical Harmonics?: true
    Max angular momentum: 3

  Minimum eigenvalue in the overlap matrix is 1.9473439560E-06.
  Using Symmetric Orthogonalization.
  SCF Guess: Core (One-Electron) Hamiltonian.

  Guess energy:  -178.79417570567011

  ==> Iterations <==

                        Total Energy        Delta E     RMS |[F,P]|

   @RHF iter   1:  -193.37976003034220   -1.93380e+02   1.46523e-02 
   @RHF iter   2:  -171.75554599232680    2.16242e+01   1.19821e-02 DIIS
   @RHF iter   3:  -228.36094291639068   -5.66054e+01   4.91871e-03 DIIS
   @RHF iter   4:  -230.17972672195850   -1.81878e+00   2.37658e-03 DIIS
   @RHF iter   5:  -230.70053383667442   -5.20807e-01   4.96920e-04 DIIS
   @RHF iter   6:  -230.72763024364133   -2.70964e-02   1.16193e-04 DIIS
   @RHF iter   7:  -230.72899868044453   -1.36844e-03   3.08194e-05 DIIS
   @RHF iter   8:  -230.72910899325194   -1.10313e-04   7.62858e-06 DIIS
   @RHF iter   9:  -230.72911481172611   -5.81847e-06   2.72922e-06 DIIS
   @RHF iter  10:  -230.72911549777626   -6.86050e-07   7.44673e-07 DIIS
   @RHF iter  11:  -230.72911556623905   -6.84628e-08   1.43174e-07 DIIS
   @RHF iter  12:  -230.72911556889136   -2.65231e-09   2.81944e-08 DIIS
   @RHF iter  13:  -230.72911556906740   -1.76044e-10   1.00221e-08 DIIS
   @RHF iter  14:  -230.72911556910731   -3.99041e-11   4.44087e-09 DIIS

  ==> Post-Iterations <==

	Orbital Energies (a.u.)
	-----------------------

	Doubly Occupied:                                                      

	   1A    -11.242329     2A    -11.241784     3A    -11.241738  
	   4A    -11.240566     5A    -11.240527     6A    -11.239945  
	   7A     -1.152784     8A     -1.016999     9A     -1.016905  
	  10A     -0.825570    11A     -0.825487    12A     -0.710147  
	  13A     -0.644713    14A     -0.619401    15A     -0.588334  
	  16A     -0.588248    17A     -0.501747    18A     -0.494548  
	  19A     -0.494402    20A     -0.336210    21A     -0.336200  

	Virtual:                                                              

	  22A      0.023841    23A      0.035646    24A      0.037720  
	  25A      0.041709    26A      0.049586    27A      0.053738  
	  28A      0.057155    29A      0.058020    30A      0.070739  
	  31A      0.073213    32A      0.076275    33A      0.086763  
	  34A      0.089567    35A      0.103036    36A      0.105417  
	  37A      0.113536    38A      0.116952    39A      0.117966  
	  40A      0.123824    41A      0.127677    42A      0.131348  
	  43A      0.142044    44A      0.142475    45A      0.144152  
	  46A      0.148677    47A      0.150793    48A      0.151687  
	  49A      0.159295    50A      0.161046    51A      0.163341  
	  52A      0.165997    53A      0.169978    54A      0.172859  
	  55A      0.175810    56A      0.180713    57A      0.184236  
	  58A      0.185459    59A      0.188608    60A      0.191062  
	  61A      0.197630    62A      0.200428    63A      0.202745  
	  64A      0.215633    65A      0.218587    66A      0.221912  
	  67A      0.230809    68A      0.238058    69A      0.241976  
	  70A      0.246572    71A      0.255504    72A      0.265067  
	  73A      0.266634    74A      0.278036    75A      0.289717  
	  76A      0.295425    77A      0.301191    78A      0.310613  
	  79A      0.318616    80A      0.324491    81A      0.325481  
	  82A      0.328556    83A      0.333709    84A      0.346797  
	  85A      0.352852    86A      0.357908    87A      0.364610  
	  88A      0.375269    89A      0.378633    90A      0.380772  
	  91A      0.382818    92A      0.385910    93A      0.387472  
	  94A      0.393341    95A      0.396134    96A      0.400154  
	  97A      0.408071    98A      0.419639    99A      0.426012  
	 100A      0.431413   101A      0.435138   102A      0.441271  
	 103A      0.443311   104A      0.444917   105A      0.450658  
	 106A      0.455533   107A      0.460025   108A      0.473169  
	 109A      0.473515   110A      0.485926   111A      0.489954  
	 112A      0.496463   113A      0.498364   114A      0.504151  
	 115A      0.511828   116A      0.518071   117A      0.527213  
	 118A      0.533389   119A      0.543102   120A      0.555581  
	 121A      0.559265   122A      0.561509   123A      0.565320  
	 124A      0.569209   125A      0.576396   126A      0.587643  
	 127A      0.588017   128A      0.595155   129A      0.598928  
	 130A      0.603729   131A      0.605149   132A      0.612647  
	 133A      0.621927   134A      0.629601   135A      0.630080  
	 136A      0.641103   137A      0.645586   138A      0.651979  
	 139A      0.656503   140A      0.660082   141A      0.672171  
	 142A      0.676155   143A      0.682993   144A      0.690232  
	 145A      0.697415   146A      0.703655   147A      0.708986  
	 148A      0.713062   149A      0.718014   150A      0.720523  
	 151A      0.728188   152A      0.735957   153A      0.753024  
	 154A      0.758105   155A      0.768426   156A      0.778072  
	 157A      0.780338   158A      0.783199   159A      0.789940  
	 160A      0.801255   161A      0.804613   162A      0.806366  
	 163A      0.815984   164A      0.823753   165A      0.831651  
	 166A      0.842311   167A      0.858028   168A      0.858802  
	 169A      0.860602   170A      0.861740   171A      0.866173  
	 172A      0.872042   173A      0.872935   174A      0.885905  
	 175A      0.898979   176A      0.900502   177A      0.902940  
	 178A      0.905950   179A      0.908256   180A      0.918547  
	 181A      0.928721   182A      0.932176   183A      0.936371  
	 184A      0.941594   185A      0.952164   186A      0.957281  
	 187A      0.963126   188A      0.973500   189A      0.980399  
	 190A      0.993544   191A      0.995419   192A      1.009199  
	 193A      1.024094   194A      1.032035   195A      1.036327  
	 196A      1.042525   197A      1.046907   198A      1.053674  
	 199A      1.071509   200A      1.080902   201A      1.083158  
	 202A      1.094142   203A      1.105678   204A      1.111499  
	 205A      1.131725   206A      1.144295   207A      1.152553  
	 208A      1.164803   209A      1.181405   210A      1.199077  
	 211A      1.205229   212A      1.231323   213A      1.243954  
	 214A      1.256946   215A      1.272673   216A      1.286440  
	 217A      1.334413   218A      1.348100   219A      1.355557  
	 220A      1.365322   221A      1.417145   222A      1.429961  
	 223A      1.438552   224A      1.460344   225A      1.472959  
	 226A      1.494142   227A      1.499238   228A      1.513200  
	 229A      1.517737   230A      1.522252   231A      1.547752  
	 232A      1.551888   233A      1.559700   234A      1.573493  
	 235A      1.592092   236A      1.596461   237A      1.651400  
	 238A      1.657361   239A      1.660694   240A      1.663655  
	 241A      1.666207   242A      1.678467   243A      1.712379  
	 244A      1.735776   245A      1.737093   246A      1.741381  
	 247A      1.771643   248A      1.775685   249A      1.811485  
	 250A      1.816727   251A      1.832851   252A      1.862093  
	 253A      1.898994   254A      1.913474   255A      1.933917  
	 256A      1.937421   257A      1.971903   258A      1.979126  
	 259A      1.984710   260A      2.000944   261A      2.003271  
	 262A      2.016603   263A      2.062840   264A      2.092967  
	 265A      2.100682   266A      2.118125   267A      2.125183  
	 268A      2.140399   269A      2.143201   270A      2.145926  
	 271A      2.161805   272A      2.163567   273A      2.177601  
	 274A      2.182478   275A      2.201179   276A      2.211969  
	 277A      2.218332   278A      2.223905   279A      2.229115  
	 280A      2.231967   281A      2.236719   282A      2.248176  
	 283A      2.262869   284A      2.266785   285A      2.271421  
	 286A      2.281185   287A      2.285276   288A      2.294665  
	 289A      2.300386   290A      2.308004   291A      2.311110  
	 292A      2.326325   293A      2.328381   294A      2.339713  
	 295A      2.346387   296A      2.368736   297A      2.385157  
	 298A      2.386831   299A      2.406829   300A      2.422811  
	 301A      2.462431   302A      2.464287   303A      2.479272  
	 304A      2.511723   305A      2.515161   306A      2.533777  
	 307A      2.602440   308A      2.620605   309A      2.625602  
	 310A      2.629064   311A      2.657543   312A      2.662515  
	 313A      2.672845   314A      2.684150   315A      2.687574  
	 316A      2.696337   317A      2.703685   318A      2.718744  
	 319A      2.729079   320A      2.794313   321A      2.802857  
	 322A      2.808799   323A      2.814893   324A      2.820959  
	 325A      2.853198   326A      2.873309   327A      2.880067  
	 328A      2.892896   329A      2.903112   330A      2.922896  
	 331A      2.935517   332A      2.947199   333A      2.985281  
	 334A      2.986332   335A      2.994515   336A      3.008871  
	 337A      3.088289   338A      3.120896   339A      3.157379  
	 340A      3.166276   341A      3.174213   342A      3.196149  
	 343A      3.217898   344A      3.280613   345A      3.363520  
	 346A      3.389192   347A      3.405162   348A      3.407338  
	 349A      3.426026   350A      3.453077   351A      3.462719  
	 352A      3.467015   353A      3.498328   354A      3.539584  
	 355A      3.561143   356A      3.573865   357A      3.580374  
	 358A      3.591434   359A      3.712914   360A      3.894301  
	 361A      3.982413   362A      3.999118   363A      4.050637  
	 364A      4.129817   365A      4.152193   366A      4.396837  
	 367A      4.398239   368A      4.681718   369A      4.849928  
	 370A      4.874816   371A      4.892323   372A      5.345701  
	 373A      5.464527   374A      5.466550   375A      5.489340  
	 376A      5.496125   377A      5.658945   378A      6.126094  
	 379A     17.997277   380A     18.420144   381A     18.434532  
	 382A     19.036721   383A     19.042854   384A     20.764688  

	Final Occupation by Irrep:
	          A 
	DOCC [    21 ]

  Energy converged.

  @RHF Final Energy:  -230.72911556910731

   => Energetics <=

    Nuclear Repulsion Energy =            203.6692202177919171
    One-Electron Energy =                -713.5995011839585231
    Two-Electron Energy =                 279.2011653970602083
    DFT Exchange-Correlation Energy =       0.0000000000000000
    Empirical Dispersion Energy =           0.0000000000000000
    Total Energy =                       -230.7291155691063977



Properties will be evaluated at   0.000000,   0.000000,   0.000000 Bohr
  ==> Properties <==


Properties computed using the SCF density density matrix
  Nuclear Dipole Moment: (a.u.)
     X:    -0.8878      Y:     2.9056      Z:  -198.9234

  Electronic Dipole Moment: (a.u.)
     X:     0.8883      Y:    -2.9051      Z:   198.9257

  Dipole Moment: (a.u.)
     X:     0.0005      Y:     0.0004      Z:     0.0024     Total:     0.0025

  Dipole Moment: (Debye)
     X:     0.0012      Y:     0.0011      Z:     0.0060     Total:     0.0063


  Saving occupied orbitals to File 180.

  Saving SAPT 2-MONOMER_A file.

*** tstop() called on node122.bme.utexas.edu at Thu Sep 19 00:04:36 2013
Module time:
	user time   =     253.39 seconds =       4.22 minutes
	system time =       3.12 seconds =       0.05 minutes
	total time  =         68 seconds =       1.13 minutes
Total time:
	user time   =     711.97 seconds =      11.87 minutes
	system time =       9.64 seconds =       0.16 minutes
	total time  =        194 seconds =       3.23 minutes

  //>>>>>>>>>>>>>>>>>>>>>>>>>>>>>>>>>>>//
  //            Monomer B HF           //
  //<<<<<<<<<<<<<<<<<<<<<<<<<<<<<<<<<<<//


  No DF_BASIS_SCF auxiliary basis selected, defaulting to aug-cc-pvdz-jkfit


*** tstart() called on node122.bme.utexas.edu
*** at Thu Sep 19 00:04:36 2013


         ---------------------------------------------------------
                                   SCF
            by Justin Turney, Rob Parrish, and Andy Simmonett
                              RHF Reference
                        4 Threads,   3000 MiB Core
         ---------------------------------------------------------

  ==> Geometry <==

    Molecular point group: c1
    Full point group: C1

    Geometry (in Angstrom), charge = 0, multiplicity = 1:

       Center              X                  Y                   Z       
    ------------   -----------------  -----------------  -----------------
           C(Gh)      0.728914748856     1.197942858486    -2.722817958550
           H(Gh)      1.302941979856     2.099063977486    -2.890385941550
           C(Gh)      1.374813451856    -0.034524710514    -2.636769265550
           H(Gh)      2.450240818856    -0.089782356514    -2.736239008550
           C(Gh)      0.634765889856    -1.195711744514    -2.420160802550
           H(Gh)      1.136060561856    -2.151175825514    -2.349329054550
           C(Gh)     -0.751259546144    -1.124812654514    -2.291655873550
           H(Gh)     -1.324799815144    -2.026571185514    -2.125347299550
           C(Gh)     -1.397308347144     0.107512455486    -2.376456578550
           H(Gh)     -2.472699286144     0.163329901486    -2.275548220550
           C(Gh)     -0.657171231144     1.269137857486    -2.591207626550
           H(Gh)     -1.158102362144     2.225428772486    -2.654450129550
           C          0.171280832856     0.257437484486     1.151457965450
           H          0.293407239856     0.482920940486     0.101031531450
           C         -0.919800735144    -0.497461126514     1.578794234450
           H         -1.640305264144    -0.853975383514     0.855099813450
           C         -1.080500716144    -0.791586449514     2.931744301450
           H         -1.927608303144    -1.377555013514     3.261991842450
           C         -0.148618155144    -0.330533069514     3.860238379450
           H         -0.272511651144    -0.558499230514     4.910245878450
           C          0.942966943856     0.424568984486     3.434998095450
           H          1.666086028856     0.782402164486     4.155380749450
           C          1.101770837856     0.718054003486     2.081506778450
           H          1.949028755856     1.304128798486     1.751459453450

  Running in c1 symmetry.

  Nuclear repulsion =  203.676941848782718

  Charge       = 0
  Multiplicity = 1
  Electrons    = 42
  Nalpha       = 21
  Nbeta        = 21

  ==> Algorithm <==

  SCF Algorithm Type is DF.
  DIIS enabled.
  MOM disabled.
  Fractional occupation disabled.
  Guess Type is CORE.
  Energy threshold   = 1.00e-08
  Density threshold  = 1.00e-08
  Integral threshold = 0.00e+00

  ==> Primary Basis <==

  Basis Set: AUG-CC-PVDZ
    Number of shells: 168
    Number of basis function: 384
    Number of Cartesian functions: 408
    Spherical Harmonics?: true
    Max angular momentum: 2

  ==> Pre-Iterations <==

   -------------------------------------------------------
    Irrep   Nso     Nmo     Nalpha   Nbeta   Ndocc  Nsocc
   -------------------------------------------------------
     A        384     384       0       0       0       0
   -------------------------------------------------------
    Total     384     384      21      21      21       0
   -------------------------------------------------------

 OEINTS: Wrapper to libmints.
   by Justin Turney

   Calculation information:
      Number of atoms:                  24
      Number of AO shells:             168
      Number of SO shells:             168
      Number of primitives:            384
      Number of atomic orbitals:       408
      Number of basis functions:       384

      Number of irreps:                  1
      Number of functions per irrep: [ 384 ]

      Overlap, kinetic, potential, dipole, and quadrupole integrals
        stored in file 35.

  ==> Integral Setup <==

  ==> DFJK: Density-Fitted J/K Matrices <==

    J tasked:                  Yes
    K tasked:                  Yes
    wK tasked:                  No
    OpenMP threads:              4
    Integrals threads:           4
    Memory (MB):              2145
    Algorithm:                Core
    Integral Cache:           LOAD
    Schwarz Cutoff:          0E+00
    Fitting Condition:       1E-12

   => Auxiliary Basis Set <=

  Basis Set: aug-cc-pvdz-jkfit
    Number of shells: 480
    Number of basis function: 1416
    Number of Cartesian functions: 1632
    Spherical Harmonics?: true
    Max angular momentum: 3

  Minimum eigenvalue in the overlap matrix is 1.9473439560E-06.
  Using Symmetric Orthogonalization.
  SCF Guess: Core (One-Electron) Hamiltonian.

  Guess energy:  -178.69838256745126

  ==> Iterations <==

                        Total Energy        Delta E     RMS |[F,P]|

   @RHF iter   1:  -193.67778850267334   -1.93678e+02   1.45309e-02 
   @RHF iter   2:  -171.09416356221854    2.25836e+01   1.20609e-02 DIIS
   @RHF iter   3:  -228.45994855659146   -5.73658e+01   4.79340e-03 DIIS
   @RHF iter   4:  -230.23046195429649   -1.77051e+00   2.26401e-03 DIIS
   @RHF iter   5:  -230.69283118319541   -4.62369e-01   5.80980e-04 DIIS
   @RHF iter   6:  -230.72240737291415   -2.95762e-02   2.43303e-04 DIIS
   @RHF iter   7:  -230.72812033824684   -5.71297e-03   3.12909e-05 DIIS
   @RHF iter   8:  -230.72826666380794   -1.46326e-04   6.26340e-06 DIIS
   @RHF iter   9:  -230.72827088550466   -4.22170e-06   1.79521e-06 DIIS
   @RHF iter  10:  -230.72827119523717   -3.09733e-07   5.54148e-07 DIIS
   @RHF iter  11:  -230.72827123136406   -3.61269e-08   6.95805e-08 DIIS
   @RHF iter  12:  -230.72827123215254   -7.88475e-10   2.24329e-08 DIIS
   @RHF iter  13:  -230.72827123221961   -6.70752e-11   8.93396e-09 DIIS

  ==> Post-Iterations <==

	Orbital Energies (a.u.)
	-----------------------

	Doubly Occupied:                                                      

	   1A    -11.242268     2A    -11.241726     3A    -11.241665  
	   4A    -11.240503     5A    -11.240458     6A    -11.239873  
	   7A     -1.153163     8A     -1.017554     9A     -1.017164  
	  10A     -0.826000    11A     -0.825758    12A     -0.710547  
	  13A     -0.644937    14A     -0.619853    15A     -0.588997  
	  16A     -0.588433    17A     -0.501801    18A     -0.495287  
	  19A     -0.494363    20A     -0.336504    21A     -0.336324  

	Virtual:                                                              

	  22A      0.021920    23A      0.034570    24A      0.037799  
	  25A      0.038956    26A      0.048785    27A      0.052570  
	  28A      0.057460    29A      0.059396    30A      0.069625  
	  31A      0.076200    32A      0.078060    33A      0.082468  
	  34A      0.098861    35A      0.100789    36A      0.105655  
	  37A      0.108427    38A      0.110803    39A      0.112960  
	  40A      0.118977    41A      0.131858    42A      0.135892  
	  43A      0.139057    44A      0.141626    45A      0.143452  
	  46A      0.147454    47A      0.149265    48A      0.151736  
	  49A      0.156229    50A      0.162356    51A      0.167711  
	  52A      0.171056    53A      0.174347    54A      0.175555  
	  55A      0.181132    56A      0.182738    57A      0.183862  
	  58A      0.187865    59A      0.189712    60A      0.194532  
	  61A      0.195467    62A      0.197790    63A      0.199648  
	  64A      0.211486    65A      0.221105    66A      0.222356  
	  67A      0.226544    68A      0.235244    69A      0.236799  
	  70A      0.240941    71A      0.248936    72A      0.253212  
	  73A      0.258845    74A      0.269752    75A      0.270874  
	  76A      0.285476    77A      0.289510    78A      0.309394  
	  79A      0.312273    80A      0.327098    81A      0.328922  
	  82A      0.333128    83A      0.334398    84A      0.335591  
	  85A      0.343415    86A      0.353283    87A      0.355132  
	  88A      0.360762    89A      0.365736    90A      0.373128  
	  91A      0.379407    92A      0.382552    93A      0.390325  
	  94A      0.397009    95A      0.401142    96A      0.406614  
	  97A      0.410550    98A      0.419025    99A      0.421517  
	 100A      0.424565   101A      0.432293   102A      0.434968  
	 103A      0.444732   104A      0.445664   105A      0.448785  
	 106A      0.455112   107A      0.464019   108A      0.464511  
	 109A      0.470864   110A      0.476226   111A      0.486979  
	 112A      0.492152   113A      0.497540   114A      0.510068  
	 115A      0.511607   116A      0.518379   117A      0.524532  
	 118A      0.539486   119A      0.545977   120A      0.549272  
	 121A      0.554387   122A      0.554913   123A      0.559934  
	 124A      0.571083   125A      0.578785   126A      0.586845  
	 127A      0.592097   128A      0.600746   129A      0.606143  
	 130A      0.612181   131A      0.615413   132A      0.619153  
	 133A      0.628368   134A      0.631941   135A      0.635675  
	 136A      0.641784   137A      0.644191   138A      0.654443  
	 139A      0.662540   140A      0.667411   141A      0.673532  
	 142A      0.686636   143A      0.691471   144A      0.695793  
	 145A      0.698680   146A      0.707848   147A      0.711125  
	 148A      0.714264   149A      0.717266   150A      0.720626  
	 151A      0.730715   152A      0.748995   153A      0.753531  
	 154A      0.760119   155A      0.770366   156A      0.774469  
	 157A      0.778618   158A      0.782724   159A      0.790293  
	 160A      0.799632   161A      0.799836   162A      0.813509  
	 163A      0.814662   164A      0.820758   165A      0.829501  
	 166A      0.851927   167A      0.853822   168A      0.857246  
	 169A      0.865089   170A      0.873309   171A      0.874606  
	 172A      0.878562   173A      0.885445   174A      0.890300  
	 175A      0.895477   176A      0.899892   177A      0.904743  
	 178A      0.912883   179A      0.916148   180A      0.924554  
	 181A      0.925616   182A      0.935389   183A      0.941805  
	 184A      0.948085   185A      0.953953   186A      0.964908  
	 187A      0.965968   188A      0.973032   189A      0.987227  
	 190A      0.996143   191A      1.001004   192A      1.009337  
	 193A      1.010792   194A      1.019404   195A      1.025326  
	 196A      1.032014   197A      1.039573   198A      1.047559  
	 199A      1.052393   200A      1.059312   201A      1.067408  
	 202A      1.074773   203A      1.096836   204A      1.101394  
	 205A      1.119874   206A      1.125395   207A      1.126985  
	 208A      1.139331   209A      1.152589   210A      1.162432  
	 211A      1.179736   212A      1.188400   213A      1.192282  
	 214A      1.212032   215A      1.223405   216A      1.235200  
	 217A      1.251330   218A      1.264103   219A      1.287166  
	 220A      1.358153   221A      1.376685   222A      1.390923  
	 223A      1.406065   224A      1.406908   225A      1.458240  
	 226A      1.488910   227A      1.491143   228A      1.491964  
	 229A      1.495651   230A      1.501256   231A      1.522952  
	 232A      1.544967   233A      1.550012   234A      1.562180  
	 235A      1.570958   236A      1.575478   237A      1.607308  
	 238A      1.626477   239A      1.633480   240A      1.662555  
	 241A      1.669666   242A      1.683044   243A      1.713475  
	 244A      1.717834   245A      1.722136   246A      1.725848  
	 247A      1.739929   248A      1.750385   249A      1.800351  
	 250A      1.812841   251A      1.816227   252A      1.829558  
	 253A      1.904187   254A      1.915177   255A      1.934191  
	 256A      1.944082   257A      1.948742   258A      1.972524  
	 259A      1.976706   260A      1.984626   261A      1.998658  
	 262A      2.002937   263A      2.009668   264A      2.081403  
	 265A      2.100343   266A      2.110848   267A      2.117175  
	 268A      2.121083   269A      2.127992   270A      2.140782  
	 271A      2.148974   272A      2.165873   273A      2.170373  
	 274A      2.196519   275A      2.201109   276A      2.220417  
	 277A      2.223749   278A      2.230396   279A      2.238184  
	 280A      2.239065   281A      2.250281   282A      2.257084  
	 283A      2.275990   284A      2.282021   285A      2.290085  
	 286A      2.299224   287A      2.307262   288A      2.322520  
	 289A      2.329993   290A      2.342911   291A      2.349442  
	 292A      2.364501   293A      2.379139   294A      2.386502  
	 295A      2.391221   296A      2.406438   297A      2.424227  
	 298A      2.454585   299A      2.458725   300A      2.465725  
	 301A      2.472114   302A      2.502929   303A      2.522038  
	 304A      2.531378   305A      2.542318   306A      2.556712  
	 307A      2.576361   308A      2.589573   309A      2.607655  
	 310A      2.629923   311A      2.632471   312A      2.655171  
	 313A      2.659572   314A      2.663612   315A      2.684656  
	 316A      2.703487   317A      2.713518   318A      2.727233  
	 319A      2.733641   320A      2.768233   321A      2.798113  
	 322A      2.805271   323A      2.820936   324A      2.851885  
	 325A      2.859422   326A      2.872755   327A      2.874997  
	 328A      2.879509   329A      2.880886   330A      2.906464  
	 331A      2.928928   332A      2.954030   333A      2.958262  
	 334A      2.987672   335A      2.996786   336A      3.007343  
	 337A      3.046034   338A      3.160996   339A      3.171348  
	 340A      3.192303   341A      3.200043   342A      3.225764  
	 343A      3.259063   344A      3.334956   345A      3.396916  
	 346A      3.414442   347A      3.422710   348A      3.439656  
	 349A      3.446016   350A      3.475912   351A      3.477827  
	 352A      3.518737   353A      3.531948   354A      3.539849  
	 355A      3.589241   356A      3.594016   357A      3.601926  
	 358A      3.662152   359A      3.702790   360A      3.909328  
	 361A      3.962352   362A      3.989258   363A      3.998952  
	 364A      4.025877   365A      4.109639   366A      4.394801  
	 367A      4.408269   368A      4.675555   369A      4.856114  
	 370A      4.867098   371A      4.902556   372A      5.310201  
	 373A      5.454771   374A      5.455905   375A      5.474037  
	 376A      5.475381   377A      5.647381   378A      6.091267  
	 379A     18.014340   380A     18.402060   381A     18.410369  
	 382A     19.010120   383A     19.017924   384A     20.692913  

	Final Occupation by Irrep:
	          A 
	DOCC [    21 ]

  Energy converged.

  @RHF Final Energy:  -230.72827123221961

   => Energetics <=

    Nuclear Repulsion Energy =            203.6769418487827181
    One-Electron Energy =                -713.6040763465477994
    Two-Electron Energy =                 279.1988632655444462
    DFT Exchange-Correlation Energy =       0.0000000000000000
    Empirical Dispersion Energy =           0.0000000000000000
    Total Energy =                       -230.7282712322206635



Properties will be evaluated at   0.000000,   0.000000,   0.000000 Bohr
  ==> Properties <==


Properties computed using the SCF density density matrix
  Nuclear Dipole Moment: (a.u.)
     X:     0.8895      Y:    -2.9058      Z:   198.9270

  Electronic Dipole Moment: (a.u.)
     X:    -0.8892      Y:     2.9054      Z:  -198.9262

  Dipole Moment: (a.u.)
     X:     0.0003      Y:    -0.0005      Z:     0.0009     Total:     0.0010

  Dipole Moment: (Debye)
     X:     0.0007      Y:    -0.0012      Z:     0.0022     Total:     0.0026


  Saving occupied orbitals to File 180.

  Saving SAPT 2-MONOMER_B file.

*** tstop() called on node122.bme.utexas.edu at Thu Sep 19 00:05:39 2013
Module time:
	user time   =     235.83 seconds =       3.93 minutes
	system time =       2.75 seconds =       0.05 minutes
	total time  =         63 seconds =       1.05 minutes
Total time:
	user time   =     947.81 seconds =      15.80 minutes
	system time =      12.40 seconds =       0.21 minutes
	total time  =        257 seconds =       4.28 minutes
  No DF_BASIS_SAPT auxiliary basis selected, defaulting to aug-cc-pvdz-ri

  //>>>>>>>>>>>>>>>>>>>>>>>>>>>>>>>>>>>//
  //               SAPT2+              //
  //<<<<<<<<<<<<<<<<<<<<<<<<<<<<<<<<<<<//


*** tstart() called on node122.bme.utexas.edu
*** at Thu Sep 19 00:05:39 2013

        SAPT2+  
    Ed Hohenstein
     6 June 2009

      Orbital Information
  --------------------------
    NSO        =       384
    NMO        =       384
    NRI        =      1140
    NOCC A     =        21
    NOCC B     =        21
    FOCC A     =         6
    FOCC B     =         6
    NVIR A     =       363
    NVIR B     =       363

    Estimated memory usage: 2596.4 MB

    Elst10,r            =    -0.002462618860 H
    Exch10 (S^2)        =     0.004453216722 H
    Exch10              =     0.004460970939 H
    Ind20,r (A<-B)      =    -0.000615446608 H
    Ind20,r (B<-A)      =    -0.000562871031 H
    Ind20,r             =    -0.001178317639 H
    Exch-Ind20,r (A<-B) =     0.000452829368 H
    Exch-Ind20,r (B<-A) =     0.000407395534 H
    Exch-Ind20,r        =     0.000860224903 H
    Disp20              =    -0.007590175439 H
    Exch-Disp20         =     0.000657301770 H
    Elst12,r            =     0.000023413886 H
    Exch11              =     0.000078617169 H
    Exch12              =     0.000402514851 H
    Ind22               =    -0.000110416111 H
    Disp21              =     0.001825940113 H
    Disp22 (SDQ)        =     0.000190129892 H

    (i =   1 of  15)       1555 seconds
    (i =   2 of  15)       3109 seconds
    (i =   3 of  15)       4663 seconds
    (i =   4 of  15)       6218 seconds
    (i =   5 of  15)       7773 seconds
    (i =   6 of  15)       9328 seconds
    (i =   7 of  15)      10883 seconds
    (i =   8 of  15)      12437 seconds
    (i =   9 of  15)      13993 seconds
    (i =  10 of  15)      15548 seconds
    (i =  11 of  15)      17102 seconds
    (i =  12 of  15)      18656 seconds
    (i =  13 of  15)      20211 seconds
    (i =  14 of  15)      21765 seconds
    (i =  15 of  15)      23320 seconds

    Disp220 (T)         =    -0.000776417720 H

    (i =   1 of  15)       1554 seconds
    (i =   2 of  15)       3110 seconds
    (i =   3 of  15)       4665 seconds
    (i =   4 of  15)       6221 seconds
    (i =   5 of  15)       7777 seconds
    (i =   6 of  15)       9333 seconds
    (i =   7 of  15)      10887 seconds
    (i =   8 of  15)      12442 seconds
    (i =   9 of  15)      13996 seconds
    (i =  10 of  15)      15551 seconds
    (i =  11 of  15)      17105 seconds
    (i =  12 of  15)      18660 seconds
    (i =  13 of  15)      20214 seconds
    (i =  14 of  15)      21768 seconds
    (i =  15 of  15)      23321 seconds

    Disp202 (T)         =    -0.000742598204 H

    Disp22 (T)          =    -0.001519015924 H

    SAPT Results  
  -----------------------------------------------------------------------
    Electrostatics          -2.43920497 mH      -1.53062429 kcal mol^-1
      Elst10,r              -2.46261886 mH      -1.54531673 kcal mol^-1
      Elst12,r               0.02341389 mH       0.01469244 kcal mol^-1

    Exchange                 4.94210296 mH       3.10121656 kcal mol^-1
      Exch10                 4.46097094 mH       2.79930164 kcal mol^-1
      Exch10(S^2)            4.45321672 mH       2.79443580 kcal mol^-1
      Exch11(S^2)            0.07861717 mH       0.04933302 kcal mol^-1
      Exch12(S^2)            0.40251485 mH       0.25258189 kcal mol^-1

    Induction               -0.75583914 mH      -0.47429624 kcal mol^-1
      Ind20,r               -1.17831764 mH      -0.73940551 kcal mol^-1
      Ind22                 -0.11041611 mH      -0.06928716 kcal mol^-1
      Exch-Ind20,r           0.86022490 mH       0.53979930 kcal mol^-1
      Exch-Ind22             0.08060873 mH       0.05058274 kcal mol^-1
      delta HF,r (2)        -0.40793902 mH      -0.25598561 kcal mol^-1

    Dispersion              -6.43581959 mH      -4.03853793 kcal mol^-1
      Disp20                -7.59017544 mH      -4.76290719 kcal mol^-1
      Disp21                 1.82594011 mH       1.14579477 kcal mol^-1
      Disp22 (SDQ)           0.19012989 mH       0.11930831 kcal mol^-1
      Disp22 (T)            -1.51901592 mH      -0.95319692 kcal mol^-1
      Exch-Disp20            0.65730177 mH       0.41246310 kcal mol^-1

    Total HF                 1.27232032 mH       0.79839309 kcal mol^-1
    Total SAPT0             -5.66055335 mH      -3.55205100 kcal mol^-1
    Total SAPT2             -5.18581482 mH      -3.25414807 kcal mol^-1
    Total SAPT2+            -4.68876074 mH      -2.94224191 kcal mol^-1

*** tstop() called on node122.bme.utexas.edu at Thu Sep 19 14:09:01 2013
Module time:
	user time   =  177123.75 seconds =    2952.06 minutes
	system time =     314.05 seconds =       5.23 minutes
	total time  =      50602 seconds =     843.37 minutes
Total time:
	user time   =  178071.57 seconds =    2967.86 minutes
	system time =     326.45 seconds =       5.44 minutes
	total time  =      50859 seconds =     847.65 minutes

*** PSI4 exiting successfully. Buy a developer a beer!
