    -----------------------------------------------------------------------
          PSI4: An Open-Source Ab Initio Electronic Structure Package
                              PSI 4.0.0-beta4 Driver

    J. M. Turney, A. C. Simmonett, R. M. Parrish, E. G. Hohenstein,
    F. A. Evangelista, J. T. Fermann, B. J. Mintz, L. A. Burns, J. J. Wilke,
    M. L. Abrams, N. J. Russ, M. L. Leininger, C. L. Janssen, E. T. Seidl,
    W. D. Allen, H. F. Schaefer, R. A. King, E. F. Valeev, C. D. Sherrill,
    and T. D. Crawford, WIREs Comput. Mol. Sci., (2011) (doi: 10.1002/wcms.93)

                         Additional Contributions by
    A. E. DePrince, M. Saitow, U. Bozkaya, A. Yu. Sokolov
    -----------------------------------------------------------------------

    Process ID:  30666
    PSI4DATADIR: /home/xzhu216/psi4/psi4-install/share/psi

    Using LocalCommunicator (Number of processes = 1)

    Memory level set to 256.000 MB

  ==> Input File <==

--------------------------------------------------------------------------
#psi4
#
memory 3 gb

molecule Benzene_Benzene {
0 1
C    0.729188666   1.113101217   0.326728253
H    1.303215897   2.014222336   0.159160270
C    1.375087369  -0.119366352   0.412776946
H    2.450514736  -0.174623998   0.313307203
C    0.635039807  -1.280553386   0.629385409
H    1.136334479  -2.236017467   0.700217157
C   -0.750985629  -1.209654296   0.757890338
H   -1.324525898  -2.111412827   0.924198912
C   -1.397034430   0.022670814   0.673089633
H   -2.472425369   0.078488260   0.773997991
C   -0.656897314   1.184296216   0.458338585
H   -1.157828445   2.140587131   0.395096082
--
0 1
C    0.115547135   0.090530573   3.721571936
H    0.237673542   0.316014029   2.671145502
C   -0.975534433  -0.664368038   4.148908205
H   -1.696038962  -1.020882295   3.425213784
C   -1.136234414  -0.958493361   5.501858272
H   -1.983342001  -1.544461925   5.832105813
C   -0.204351853  -0.497439981   6.430352350
H   -0.328245349  -0.725406142   7.480359849
C    0.887233246   0.257662073   6.005112066
H    1.610352331   0.615495253   6.725494720
C    1.046037140   0.551147092   4.651620749
H    1.893295058   1.137221887   4.321573424
units angstrom
no_reorient  #important for SAPT in psi4, default
symmetry c1  #important for SAPT in psi4, default
}

set {
basis aug-cc-pVDZ
scf_type DF
freeze_core True
}
energy('sapt2+')
--------------------------------------------------------------------------

  Memory set to   3.000 GiB by Python script.

  //>>>>>>>>>>>>>>>>>>>>>>>>>>>>>>>>>>>//
  //              Dimer HF             //
  //<<<<<<<<<<<<<<<<<<<<<<<<<<<<<<<<<<<//


  No DF_BASIS_SCF auxiliary basis selected, defaulting to aug-cc-pvdz-jkfit


*** tstart() called on node119.bme.utexas.edu
*** at Wed Sep 18 23:18:21 2013


         ---------------------------------------------------------
                                   SCF
            by Justin Turney, Rob Parrish, and Andy Simmonett
                              RHF Reference
                        4 Threads,   3000 MiB Core
         ---------------------------------------------------------

  ==> Geometry <==

    Molecular point group: c1
    Full point group: C1

    Geometry (in Angstrom), charge = 0, multiplicity = 1:

       Center              X                  Y                   Z       
    ------------   -----------------  -----------------  -----------------
           C          0.756918556356     1.238975493486    -2.483101838050
           H          1.330945787356     2.140096612486    -2.650669821050
           C          1.402817259356     0.006507924486    -2.397053145050
           H          2.478244626356    -0.048749721514    -2.496522888050
           C          0.662769697356    -1.154679109514    -2.180444682050
           H          1.164064369356    -2.110143190514    -2.109612934050
           C         -0.723255738644    -1.083780019514    -2.051939753050
           H         -1.296796007644    -1.985538550514    -1.885631179050
           C         -1.369304539644     0.148545090486    -2.136740458050
           H         -2.444695478644     0.204362536486    -2.035832100050
           C         -0.629167423644     1.310170492486    -2.351491506050
           H         -1.130098554644     2.266461407486    -2.414734009050
           C          0.143277025356     0.216404849486     0.911741844950
           H          0.265403432356     0.441888305486    -0.138684589050
           C         -0.947804542644    -0.538493761514     1.339078113950
           H         -1.668309071644    -0.895008018514     0.615383692950
           C         -1.108504523644    -0.832619084514     2.692028180950
           H         -1.955612110644    -1.418587648514     3.022275721950
           C         -0.176621962644    -0.371565704514     3.620522258950
           H         -0.300515458644    -0.599531865514     4.670529757950
           C          0.914963136356     0.383536349486     3.195281974950
           H          1.638082221356     0.741369529486     3.915664628950
           C          1.073767030356     0.677021368486     1.841790657950
           H          1.921024948356     1.263096163486     1.511743332950

  Running in c1 symmetry.

  Nuclear repulsion =  606.888354299798834

  Charge       = 0
  Multiplicity = 1
  Electrons    = 84
  Nalpha       = 42
  Nbeta        = 42

  ==> Algorithm <==

  SCF Algorithm Type is DF.
  DIIS enabled.
  MOM disabled.
  Fractional occupation disabled.
  Guess Type is CORE.
  Energy threshold   = 1.00e-08
  Density threshold  = 1.00e-08
  Integral threshold = 0.00e+00

  ==> Primary Basis <==

  Basis Set: AUG-CC-PVDZ
    Number of shells: 168
    Number of basis function: 384
    Number of Cartesian functions: 408
    Spherical Harmonics?: true
    Max angular momentum: 2

  ==> Pre-Iterations <==

   -------------------------------------------------------
    Irrep   Nso     Nmo     Nalpha   Nbeta   Ndocc  Nsocc
   -------------------------------------------------------
     A        384     384       0       0       0       0
   -------------------------------------------------------
    Total     384     384      42      42      42       0
   -------------------------------------------------------

 OEINTS: Wrapper to libmints.
   by Justin Turney

   Calculation information:
      Number of atoms:                  24
      Number of AO shells:             168
      Number of SO shells:             168
      Number of primitives:            384
      Number of atomic orbitals:       408
      Number of basis functions:       384

      Number of irreps:                  1
      Number of functions per irrep: [ 384 ]

      Overlap, kinetic, potential, dipole, and quadrupole integrals
        stored in file 35.

  ==> Integral Setup <==

  ==> DFJK: Density-Fitted J/K Matrices <==

    J tasked:                  Yes
    K tasked:                  Yes
    wK tasked:                  No
    OpenMP threads:              4
    Integrals threads:           4
    Memory (MB):              2145
    Algorithm:                Core
    Integral Cache:           SAVE
    Schwarz Cutoff:          0E+00
    Fitting Condition:       1E-12

   => Auxiliary Basis Set <=

  Basis Set: aug-cc-pvdz-jkfit
    Number of shells: 480
    Number of basis function: 1416
    Number of Cartesian functions: 1632
    Spherical Harmonics?: true
    Max angular momentum: 3

  Minimum eigenvalue in the overlap matrix is 1.8736306064E-06.
  Using Symmetric Orthogonalization.
  SCF Guess: Core (One-Electron) Hamiltonian.

  Guess energy:  -365.65776720402300

  ==> Iterations <==

                        Total Energy        Delta E     RMS |[F,P]|

   @RHF iter   1:  -371.55762530969548   -3.71558e+02   2.24068e-02 
   @RHF iter   2:  -164.49132117977194    2.07066e+02   3.27179e-02 DIIS
   @RHF iter   3:  -295.92466126045235   -1.31433e+02   2.15699e-02 DIIS
   @RHF iter   4:  -260.20637859328315    3.57183e+01   2.85070e-02 DIIS
   @RHF iter   5:  -436.97459013766945   -1.76768e+02   1.19958e-02 DIIS
   @RHF iter   6:  -450.78903449892721   -1.38144e+01   1.06554e-02 DIIS
   @RHF iter   7:  -459.52994318932895   -8.74091e+00   3.26684e-03 DIIS
   @RHF iter   8:  -461.00724953924771   -1.47731e+00   2.17920e-03 DIIS
   @RHF iter   9:  -461.41195701583717   -4.04707e-01   5.65193e-04 DIIS
   @RHF iter  10:  -461.44276326614943   -3.08063e-02   2.27419e-04 DIIS
   @RHF iter  11:  -461.44824947089148   -5.48620e-03   4.74070e-05 DIIS
   @RHF iter  12:  -461.44862329619252   -3.73825e-04   2.00212e-05 DIIS
   @RHF iter  13:  -461.44871141105421   -8.81149e-05   9.18752e-06 DIIS
   @RHF iter  14:  -461.44873269243192   -2.12814e-05   4.73489e-06 DIIS
   @RHF iter  15:  -461.44873977893565   -7.08650e-06   2.02208e-06 DIIS
   @RHF iter  16:  -461.44874171481126   -1.93588e-06   7.98624e-07 DIIS
   @RHF iter  17:  -461.44874193885664   -2.24045e-07   3.13732e-07 DIIS
   @RHF iter  18:  -461.44874196049875   -2.16421e-08   6.22715e-08 DIIS
   @RHF iter  19:  -461.44874196147646   -9.77707e-10   2.94825e-08 DIIS
   @RHF iter  20:  -461.44874196167655   -2.00089e-10   1.38490e-08 DIIS
   @RHF iter  21:  -461.44874196172475   -4.82032e-11   6.24607e-09 DIIS

  ==> Post-Iterations <==

	Orbital Energies (a.u.)
	-----------------------

	Doubly Occupied:                                                      

	   1A    -11.247357     2A    -11.246776     3A    -11.246608  
	   4A    -11.245545     5A    -11.245481     6A    -11.244774  
	   7A    -11.233300     8A    -11.232847     9A    -11.231375  
	  10A    -11.230091    11A    -11.229101    12A    -11.224917  
	  13A     -1.159921    14A     -1.142906    15A     -1.023218  
	  16A     -1.022537    17A     -1.007653    18A     -1.006909  
	  19A     -0.830914    20A     -0.830747    21A     -0.816329  
	  22A     -0.815923    23A     -0.715978    24A     -0.701971  
	  25A     -0.649505    26A     -0.636245    27A     -0.624506  
	  28A     -0.609816    29A     -0.594028    30A     -0.593323  
	  31A     -0.584144    32A     -0.579358    33A     -0.509002  
	  34A     -0.499542    35A     -0.499257    36A     -0.492354  
	  37A     -0.484956    38A     -0.474073    39A     -0.347820  
	  40A     -0.343453    41A     -0.327603    42A     -0.320737  

	Virtual:                                                              

	  43A      0.031671    44A      0.037722    45A      0.041987  
	  46A      0.043377    47A      0.051957    48A      0.054652  
	  49A      0.056784    50A      0.061839    51A      0.073195  
	  52A      0.075386    53A      0.082408    54A      0.094197  
	  55A      0.097871    56A      0.105359    57A      0.113215  
	  58A      0.116238    59A      0.122474    60A      0.123736  
	  61A      0.135055    62A      0.136674    63A      0.140650  
	  64A      0.143607    65A      0.145366    66A      0.148528  
	  67A      0.150768    68A      0.152465    69A      0.156000  
	  70A      0.157572    71A      0.159059    72A      0.166327  
	  73A      0.169112    74A      0.175631    75A      0.180116  
	  76A      0.182035    77A      0.182777    78A      0.187415  
	  79A      0.188967    80A      0.189459    81A      0.192384  
	  82A      0.200205    83A      0.205948    84A      0.210638  
	  85A      0.214542    86A      0.215998    87A      0.230632  
	  88A      0.234612    89A      0.244488    90A      0.247752  
	  91A      0.250610    92A      0.256639    93A      0.265539  
	  94A      0.269065    95A      0.287623    96A      0.295422  
	  97A      0.304505    98A      0.309277    99A      0.315818  
	 100A      0.322200   101A      0.324084   102A      0.326649  
	 103A      0.330399   104A      0.334793   105A      0.339533  
	 106A      0.342530   107A      0.352583   108A      0.360419  
	 109A      0.367775   110A      0.369785   111A      0.372988  
	 112A      0.376141   113A      0.379254   114A      0.385231  
	 115A      0.387403   116A      0.390661   117A      0.394595  
	 118A      0.397975   119A      0.401454   120A      0.418428  
	 121A      0.422235   122A      0.432122   123A      0.435244  
	 124A      0.437399   125A      0.437957   126A      0.443841  
	 127A      0.445398   128A      0.448866   129A      0.455892  
	 130A      0.465866   131A      0.471663   132A      0.476002  
	 133A      0.480916   134A      0.494834   135A      0.506921  
	 136A      0.510713   137A      0.523057   138A      0.528414  
	 139A      0.537744   140A      0.547617   141A      0.568061  
	 142A      0.574860   143A      0.579653   144A      0.581029  
	 145A      0.587303   146A      0.592302   147A      0.598764  
	 148A      0.606205   149A      0.611658   150A      0.613153  
	 151A      0.618222   152A      0.620451   153A      0.628227  
	 154A      0.630615   155A      0.632518   156A      0.639737  
	 157A      0.645336   158A      0.652240   159A      0.655434  
	 160A      0.656957   161A      0.663798   162A      0.672268  
	 163A      0.682130   164A      0.687098   165A      0.691905  
	 166A      0.695311   167A      0.699110   168A      0.699734  
	 169A      0.702511   170A      0.713307   171A      0.717631  
	 172A      0.719454   173A      0.723629   174A      0.726763  
	 175A      0.736267   176A      0.743852   177A      0.745144  
	 178A      0.758097   179A      0.763718   180A      0.771165  
	 181A      0.780663   182A      0.781548   183A      0.789845  
	 184A      0.793624   185A      0.799403   186A      0.803343  
	 187A      0.815621   188A      0.831858   189A      0.842469  
	 190A      0.846545   191A      0.849331   192A      0.854761  
	 193A      0.857777   194A      0.859643   195A      0.879160  
	 196A      0.886586   197A      0.892444   198A      0.896092  
	 199A      0.906506   200A      0.909569   201A      0.914293  
	 202A      0.926275   203A      0.937298   204A      0.943569  
	 205A      0.945491   206A      0.957330   207A      0.961494  
	 208A      0.962780   209A      0.971163   210A      0.977272  
	 211A      0.982175   212A      0.989226   213A      0.990700  
	 214A      0.997812   215A      1.012242   216A      1.014617  
	 217A      1.025974   218A      1.032383   219A      1.037663  
	 220A      1.049715   221A      1.063066   222A      1.080758  
	 223A      1.092431   224A      1.096901   225A      1.104947  
	 226A      1.123212   227A      1.131086   228A      1.140463  
	 229A      1.163526   230A      1.168581   231A      1.187105  
	 232A      1.195396   233A      1.200605   234A      1.219821  
	 235A      1.252622   236A      1.258412   237A      1.297327  
	 238A      1.338620   239A      1.343208   240A      1.360899  
	 241A      1.383124   242A      1.384042   243A      1.407815  
	 244A      1.412308   245A      1.466680   246A      1.490824  
	 247A      1.498856   248A      1.505803   249A      1.519341  
	 250A      1.521884   251A      1.531914   252A      1.546363  
	 253A      1.558014   254A      1.561361   255A      1.578283  
	 256A      1.581962   257A      1.590069   258A      1.593929  
	 259A      1.596328   260A      1.605025   261A      1.632122  
	 262A      1.637972   263A      1.648675   264A      1.655739  
	 265A      1.660926   266A      1.663598   267A      1.677090  
	 268A      1.678684   269A      1.695802   270A      1.700318  
	 271A      1.705179   272A      1.716841   273A      1.726758  
	 274A      1.732453   275A      1.739719   276A      1.747665  
	 277A      1.758509   278A      1.767254   279A      1.770326  
	 280A      1.779678   281A      1.795902   282A      1.816882  
	 283A      1.829162   284A      1.832276   285A      1.843478  
	 286A      1.858219   287A      1.874723   288A      1.893358  
	 289A      1.904863   290A      1.919499   291A      1.925924  
	 292A      1.936815   293A      1.937616   294A      1.946119  
	 295A      1.964469   296A      1.972078   297A      1.980242  
	 298A      1.982275   299A      1.990523   300A      1.997090  
	 301A      2.001989   302A      2.005058   303A      2.020322  
	 304A      2.035125   305A      2.047143   306A      2.059556  
	 307A      2.075438   308A      2.093366   309A      2.109716  
	 310A      2.119885   311A      2.127012   312A      2.132025  
	 313A      2.145655   314A      2.156048   315A      2.171518  
	 316A      2.173242   317A      2.192187   318A      2.216823  
	 319A      2.228230   320A      2.232712   321A      2.243883  
	 322A      2.250194   323A      2.255017   324A      2.271924  
	 325A      2.281005   326A      2.296423   327A      2.298628  
	 328A      2.299705   329A      2.317088   330A      2.336075  
	 331A      2.355334   332A      2.361001   333A      2.371333  
	 334A      2.374737   335A      2.392304   336A      2.394208  
	 337A      2.402835   338A      2.415510   339A      2.427927  
	 340A      2.432730   341A      2.463570   342A      2.476890  
	 343A      2.492015   344A      2.507143   345A      2.525850  
	 346A      2.544716   347A      2.621942   348A      2.655467  
	 349A      2.684941   350A      2.715903   351A      2.797559  
	 352A      2.811691   353A      2.822612   354A      2.829366  
	 355A      2.832762   356A      2.836540   357A      2.852958  
	 358A      2.898991   359A      2.959033   360A      2.983230  
	 361A      2.987627   362A      2.993421   363A      3.003090  
	 364A      3.013040   365A      3.030813   366A      3.142434  
	 367A      3.153852   368A      3.169701   369A      3.176317  
	 370A      3.188981   371A      3.197175   372A      3.221476  
	 373A      3.289137   374A      3.385080   375A      3.397700  
	 376A      3.428888   377A      3.574087   378A      3.602598  
	 379A      3.612936   380A      3.642854   381A      3.891331  
	 382A      3.930163   383A      4.861378   384A      4.935740  

	Final Occupation by Irrep:
	          A 
	DOCC [    42 ]

  Energy converged.

  @RHF Final Energy:  -461.44874196172475

   => Energetics <=

    Nuclear Repulsion Energy =            606.8883542997988343
    One-Electron Energy =               -1826.4683937102383879
    Two-Electron Energy =                 758.1312974487173051
    DFT Exchange-Correlation Energy =       0.0000000000000000
    Empirical Dispersion Energy =           0.0000000000000000
    Total Energy =                       -461.4487419617221349



Properties will be evaluated at   0.000000,   0.000000,   0.000000 Bohr
  ==> Properties <==


Properties computed using the SCF density density matrix
  Nuclear Dipole Moment: (a.u.)
     X:     0.0016      Y:    -0.0003      Z:     0.0037

  Electronic Dipole Moment: (a.u.)
     X:     0.0153      Y:    -0.0030      Z:    -0.2496

  Dipole Moment: (a.u.)
     X:     0.0169      Y:    -0.0032      Z:    -0.2459     Total:     0.2465

  Dipole Moment: (Debye)
     X:     0.0429      Y:    -0.0082      Z:    -0.6251     Total:     0.6266


  Saving occupied orbitals to File 180.

  Saving SAPT 2-DIMER file.

*** tstop() called on node119.bme.utexas.edu at Wed Sep 18 23:20:33 2013
Module time:
	user time   =     493.36 seconds =       8.22 minutes
	system time =       3.83 seconds =       0.06 minutes
	total time  =        132 seconds =       2.20 minutes
Total time:
	user time   =     493.36 seconds =       8.22 minutes
	system time =       3.83 seconds =       0.06 minutes
	total time  =        132 seconds =       2.20 minutes

  //>>>>>>>>>>>>>>>>>>>>>>>>>>>>>>>>>>>//
  //            Monomer A HF           //
  //<<<<<<<<<<<<<<<<<<<<<<<<<<<<<<<<<<<//


  No DF_BASIS_SCF auxiliary basis selected, defaulting to aug-cc-pvdz-jkfit


*** tstart() called on node119.bme.utexas.edu
*** at Wed Sep 18 23:20:33 2013


         ---------------------------------------------------------
                                   SCF
            by Justin Turney, Rob Parrish, and Andy Simmonett
                              RHF Reference
                        4 Threads,   3000 MiB Core
         ---------------------------------------------------------

  ==> Geometry <==

    Molecular point group: c1
    Full point group: C1

    Geometry (in Angstrom), charge = 0, multiplicity = 1:

       Center              X                  Y                   Z       
    ------------   -----------------  -----------------  -----------------
           C          0.756918556356     1.238975493486    -2.483101838050
           H          1.330945787356     2.140096612486    -2.650669821050
           C          1.402817259356     0.006507924486    -2.397053145050
           H          2.478244626356    -0.048749721514    -2.496522888050
           C          0.662769697356    -1.154679109514    -2.180444682050
           H          1.164064369356    -2.110143190514    -2.109612934050
           C         -0.723255738644    -1.083780019514    -2.051939753050
           H         -1.296796007644    -1.985538550514    -1.885631179050
           C         -1.369304539644     0.148545090486    -2.136740458050
           H         -2.444695478644     0.204362536486    -2.035832100050
           C         -0.629167423644     1.310170492486    -2.351491506050
           H         -1.130098554644     2.266461407486    -2.414734009050
           C(Gh)      0.143277025356     0.216404849486     0.911741844950
           H(Gh)      0.265403432356     0.441888305486    -0.138684589050
           C(Gh)     -0.947804542644    -0.538493761514     1.339078113950
           H(Gh)     -1.668309071644    -0.895008018514     0.615383692950
           C(Gh)     -1.108504523644    -0.832619084514     2.692028180950
           H(Gh)     -1.955612110644    -1.418587648514     3.022275721950
           C(Gh)     -0.176621962644    -0.371565704514     3.620522258950
           H(Gh)     -0.300515458644    -0.599531865514     4.670529757950
           C(Gh)      0.914963136356     0.383536349486     3.195281974950
           H(Gh)      1.638082221356     0.741369529486     3.915664628950
           C(Gh)      1.073767030356     0.677021368486     1.841790657950
           H(Gh)      1.921024948356     1.263096163486     1.511743332950

  Running in c1 symmetry.

  Nuclear repulsion =  203.669220217791974

  Charge       = 0
  Multiplicity = 1
  Electrons    = 42
  Nalpha       = 21
  Nbeta        = 21

  ==> Algorithm <==

  SCF Algorithm Type is DF.
  DIIS enabled.
  MOM disabled.
  Fractional occupation disabled.
  Guess Type is CORE.
  Energy threshold   = 1.00e-08
  Density threshold  = 1.00e-08
  Integral threshold = 0.00e+00

  ==> Primary Basis <==

  Basis Set: AUG-CC-PVDZ
    Number of shells: 168
    Number of basis function: 384
    Number of Cartesian functions: 408
    Spherical Harmonics?: true
    Max angular momentum: 2

  ==> Pre-Iterations <==

   -------------------------------------------------------
    Irrep   Nso     Nmo     Nalpha   Nbeta   Ndocc  Nsocc
   -------------------------------------------------------
     A        384     384       0       0       0       0
   -------------------------------------------------------
    Total     384     384      21      21      21       0
   -------------------------------------------------------

 OEINTS: Wrapper to libmints.
   by Justin Turney

   Calculation information:
      Number of atoms:                  24
      Number of AO shells:             168
      Number of SO shells:             168
      Number of primitives:            384
      Number of atomic orbitals:       408
      Number of basis functions:       384

      Number of irreps:                  1
      Number of functions per irrep: [ 384 ]

      Overlap, kinetic, potential, dipole, and quadrupole integrals
        stored in file 35.

  ==> Integral Setup <==

  ==> DFJK: Density-Fitted J/K Matrices <==

    J tasked:                  Yes
    K tasked:                  Yes
    wK tasked:                  No
    OpenMP threads:              4
    Integrals threads:           4
    Memory (MB):              2145
    Algorithm:                Core
    Integral Cache:           LOAD
    Schwarz Cutoff:          0E+00
    Fitting Condition:       1E-12

   => Auxiliary Basis Set <=

  Basis Set: aug-cc-pvdz-jkfit
    Number of shells: 480
    Number of basis function: 1416
    Number of Cartesian functions: 1632
    Spherical Harmonics?: true
    Max angular momentum: 3

  Minimum eigenvalue in the overlap matrix is 1.8736306065E-06.
  Using Symmetric Orthogonalization.
  SCF Guess: Core (One-Electron) Hamiltonian.

  Guess energy:  -178.85766059789654

  ==> Iterations <==

                        Total Energy        Delta E     RMS |[F,P]|

   @RHF iter   1:  -193.21531879996166   -1.93215e+02   1.47078e-02 
   @RHF iter   2:  -171.77838977609372    2.14369e+01   1.19954e-02 DIIS
   @RHF iter   3:  -228.33676049972365   -5.65584e+01   4.95285e-03 DIIS
   @RHF iter   4:  -230.17372148939296   -1.83696e+00   2.38964e-03 DIIS
   @RHF iter   5:  -230.70083464112008   -5.27113e-01   4.97350e-04 DIIS
   @RHF iter   6:  -230.72800761051332   -2.71730e-02   1.20684e-04 DIIS
   @RHF iter   7:  -230.72946436391766   -1.45675e-03   2.98449e-05 DIIS
   @RHF iter   8:  -230.72957100695868   -1.06643e-04   8.06411e-06 DIIS
   @RHF iter   9:  -230.72957729987263   -6.29291e-06   3.02977e-06 DIIS
   @RHF iter  10:  -230.72957813550119   -8.35629e-07   8.10734e-07 DIIS
   @RHF iter  11:  -230.72957821655689   -8.10557e-08   1.48069e-07 DIIS
   @RHF iter  12:  -230.72957821959892   -3.04203e-09   2.64543e-08 DIIS
   @RHF iter  13:  -230.72957821974774   -1.48816e-10   7.79722e-09 DIIS

  ==> Post-Iterations <==

	Orbital Energies (a.u.)
	-----------------------

	Doubly Occupied:                                                      

	   1A    -11.242386     2A    -11.241856     3A    -11.241780  
	   4A    -11.240637     5A    -11.240565     6A    -11.240002  
	   7A     -1.152662     8A     -1.016867     9A     -1.016773  
	  10A     -0.825444    11A     -0.825360    12A     -0.710024  
	  13A     -0.644602    14A     -0.619262    15A     -0.588182  
	  16A     -0.588090    17A     -0.501692    18A     -0.494417  
	  19A     -0.494266    20A     -0.336163    21A     -0.336160  

	Virtual:                                                              

	  22A      0.024156    23A      0.035774    24A      0.038222  
	  25A      0.041678    26A      0.050479    27A      0.054303  
	  28A      0.057114    29A      0.059157    30A      0.072072  
	  31A      0.074578    32A      0.076411    33A      0.086740  
	  34A      0.090146    35A      0.103108    36A      0.105287  
	  37A      0.115201    38A      0.116896    39A      0.119217  
	  40A      0.126400    41A      0.129279    42A      0.132975  
	  43A      0.141132    44A      0.142977    45A      0.144290  
	  46A      0.150044    47A      0.151288    48A      0.151561  
	  49A      0.160794    50A      0.163308    51A      0.165648  
	  52A      0.168398    53A      0.172205    54A      0.175432  
	  55A      0.180047    56A      0.183082    57A      0.184672  
	  58A      0.187642    59A      0.189647    60A      0.192144  
	  61A      0.203947    62A      0.206532    63A      0.207984  
	  64A      0.217387    65A      0.221008    66A      0.223150  
	  67A      0.230430    68A      0.242552    69A      0.246703  
	  70A      0.251992    71A      0.258710    72A      0.264541  
	  73A      0.266605    74A      0.284630    75A      0.294987  
	  76A      0.296686    77A      0.304712    78A      0.312313  
	  79A      0.322659    80A      0.325533    81A      0.326946  
	  82A      0.331658    83A      0.339784    84A      0.346657  
	  85A      0.354706    86A      0.364895    87A      0.365307  
	  88A      0.379010    89A      0.380309    90A      0.381992  
	  91A      0.386778    92A      0.387840    93A      0.391082  
	  94A      0.397713    95A      0.400690    96A      0.407331  
	  97A      0.418519    98A      0.425912    99A      0.429217  
	 100A      0.434686   101A      0.440892   102A      0.442587  
	 103A      0.447418   104A      0.447931   105A      0.457354  
	 106A      0.462571   107A      0.469733   108A      0.479330  
	 109A      0.485243   110A      0.490864   111A      0.498325  
	 112A      0.501311   113A      0.506381   114A      0.512186  
	 115A      0.518042   116A      0.526809   117A      0.533628  
	 118A      0.551129   119A      0.558795   120A      0.563725  
	 121A      0.566560   122A      0.570079   123A      0.571916  
	 124A      0.579964   125A      0.580440   126A      0.594691  
	 127A      0.600287   128A      0.602482   129A      0.605574  
	 130A      0.609901   131A      0.613792   132A      0.624213  
	 133A      0.629542   134A      0.638301   135A      0.641721  
	 136A      0.649163   137A      0.650888   138A      0.662751  
	 139A      0.663847   140A      0.672867   141A      0.682850  
	 142A      0.686393   143A      0.691480   144A      0.701728  
	 145A      0.703339   146A      0.713717   147A      0.717541  
	 148A      0.718748   149A      0.734398   150A      0.737853  
	 151A      0.748147   152A      0.753850   153A      0.760127  
	 154A      0.764228   155A      0.780704   156A      0.782464  
	 157A      0.790926   158A      0.792814   159A      0.801749  
	 160A      0.809673   161A      0.820220   162A      0.822699  
	 163A      0.832102   164A      0.837584   165A      0.845447  
	 166A      0.849383   167A      0.858743   168A      0.859247  
	 169A      0.863338   170A      0.870092   171A      0.871335  
	 172A      0.875849   173A      0.893996   174A      0.899949  
	 175A      0.903626   176A      0.909472   177A      0.911824  
	 178A      0.917834   179A      0.927583   180A      0.935163  
	 181A      0.943592   182A      0.944586   183A      0.953026  
	 184A      0.962749   185A      0.968812   186A      0.971988  
	 187A      0.980475   188A      0.986596   189A      0.994121  
	 190A      1.000604   191A      1.016719   192A      1.018773  
	 193A      1.039411   194A      1.042911   195A      1.054000  
	 196A      1.065212   197A      1.075668   198A      1.084660  
	 199A      1.090967   200A      1.095095   201A      1.110097  
	 202A      1.111850   203A      1.120980   204A      1.133332  
	 205A      1.155943   206A      1.168204   207A      1.177857  
	 208A      1.188943   209A      1.199625   210A      1.224537  
	 211A      1.230160   212A      1.255138   213A      1.280557  
	 214A      1.297309   215A      1.325530   216A      1.343254  
	 217A      1.351987   218A      1.365514   219A      1.387096  
	 220A      1.398863   221A      1.437952   222A      1.444718  
	 223A      1.448279   224A      1.465882   225A      1.476416  
	 226A      1.500090   227A      1.506799   228A      1.514233  
	 229A      1.526236   230A      1.552654   231A      1.565496  
	 232A      1.567826   233A      1.587424   234A      1.597559  
	 235A      1.614079   236A      1.645815   237A      1.662900  
	 238A      1.666455   239A      1.680579   240A      1.687684  
	 241A      1.705517   242A      1.710425   243A      1.726945  
	 244A      1.747543   245A      1.755562   246A      1.761813  
	 247A      1.792687   248A      1.821732   249A      1.830070  
	 250A      1.846761   251A      1.857998   252A      1.869175  
	 253A      1.923856   254A      1.933040   255A      1.944743  
	 256A      1.958682   257A      1.973681   258A      1.977646  
	 259A      2.005597   260A      2.011910   261A      2.021276  
	 262A      2.044114   263A      2.078248   264A      2.115370  
	 265A      2.126512   266A      2.133625   267A      2.149657  
	 268A      2.156002   269A      2.159469   270A      2.171799  
	 271A      2.176192   272A      2.177518   273A      2.197222  
	 274A      2.205247   275A      2.216430   276A      2.218427  
	 277A      2.233125   278A      2.241932   279A      2.249521  
	 280A      2.259153   281A      2.262624   282A      2.266945  
	 283A      2.281503   284A      2.284229   285A      2.287845  
	 286A      2.294326   287A      2.298266   288A      2.304373  
	 289A      2.313879   290A      2.333000   291A      2.339710  
	 292A      2.348525   293A      2.359827   294A      2.361999  
	 295A      2.380544   296A      2.391560   297A      2.398886  
	 298A      2.410245   299A      2.424203   300A      2.461147  
	 301A      2.471159   302A      2.479856   303A      2.493703  
	 304A      2.520250   305A      2.525861   306A      2.554757  
	 307A      2.625879   308A      2.635181   309A      2.648773  
	 310A      2.666276   311A      2.671426   312A      2.675623  
	 313A      2.691103   314A      2.711087   315A      2.716725  
	 316A      2.721568   317A      2.732779   318A      2.741599  
	 319A      2.750205   320A      2.802050   321A      2.811984  
	 322A      2.827964   323A      2.834239   324A      2.854366  
	 325A      2.870248   326A      2.885967   327A      2.888572  
	 328A      2.926404   329A      2.934605   330A      2.945729  
	 331A      2.963155   332A      2.989087   333A      2.999056  
	 334A      3.002920   335A      3.025730   336A      3.068122  
	 337A      3.154570   338A      3.163675   339A      3.175702  
	 340A      3.188105   341A      3.192653   342A      3.260665  
	 343A      3.283867   344A      3.299706   345A      3.371337  
	 346A      3.390308   347A      3.410713   348A      3.412481  
	 349A      3.450682   350A      3.489566   351A      3.501420  
	 352A      3.516182   353A      3.542248   354A      3.572208  
	 355A      3.573020   356A      3.590912   357A      3.608545  
	 358A      3.649374   359A      3.718439   360A      3.898303  
	 361A      3.996397   362A      4.010561   363A      4.108179  
	 364A      4.153992   365A      4.279888   366A      4.405147  
	 367A      4.407726   368A      4.693705   369A      4.869250  
	 370A      4.893612   371A      4.918541   372A      5.376552  
	 373A      5.467851   374A      5.469657   375A      5.494370  
	 376A      5.517791   377A      5.662470   378A      6.146390  
	 379A     18.007591   380A     18.431450   381A     18.462520  
	 382A     19.048323   383A     19.068783   384A     20.801764  

	Final Occupation by Irrep:
	          A 
	DOCC [    21 ]

  Energy converged.

  @RHF Final Energy:  -230.72957821974774

   => Energetics <=

    Nuclear Repulsion Energy =            203.6692202177919739
    One-Electron Energy =                -713.6032252831760161
    Two-Electron Energy =                 279.2044268456365330
    DFT Exchange-Correlation Energy =       0.0000000000000000
    Empirical Dispersion Energy =           0.0000000000000000
    Total Energy =                       -230.7295782197475091



Properties will be evaluated at   0.000000,   0.000000,   0.000000 Bohr
  ==> Properties <==


Properties computed using the SCF density density matrix
  Nuclear Dipole Moment: (a.u.)
     X:     1.3348      Y:     6.1623      Z:  -179.8975

  Electronic Dipole Moment: (a.u.)
     X:    -1.3343      Y:    -6.1618      Z:   179.9004

  Dipole Moment: (a.u.)
     X:     0.0005      Y:     0.0004      Z:     0.0030     Total:     0.0031

  Dipole Moment: (Debye)
     X:     0.0013      Y:     0.0011      Z:     0.0076     Total:     0.0078


  Saving occupied orbitals to File 180.

  Saving SAPT 2-MONOMER_A file.

*** tstop() called on node119.bme.utexas.edu at Wed Sep 18 23:21:35 2013
Module time:
	user time   =     233.98 seconds =       3.90 minutes
	system time =       1.85 seconds =       0.03 minutes
	total time  =         62 seconds =       1.03 minutes
Total time:
	user time   =     727.36 seconds =      12.12 minutes
	system time =       5.68 seconds =       0.09 minutes
	total time  =        194 seconds =       3.23 minutes

  //>>>>>>>>>>>>>>>>>>>>>>>>>>>>>>>>>>>//
  //            Monomer B HF           //
  //<<<<<<<<<<<<<<<<<<<<<<<<<<<<<<<<<<<//


  No DF_BASIS_SCF auxiliary basis selected, defaulting to aug-cc-pvdz-jkfit


*** tstart() called on node119.bme.utexas.edu
*** at Wed Sep 18 23:21:35 2013


         ---------------------------------------------------------
                                   SCF
            by Justin Turney, Rob Parrish, and Andy Simmonett
                              RHF Reference
                        4 Threads,   3000 MiB Core
         ---------------------------------------------------------

  ==> Geometry <==

    Molecular point group: c1
    Full point group: C1

    Geometry (in Angstrom), charge = 0, multiplicity = 1:

       Center              X                  Y                   Z       
    ------------   -----------------  -----------------  -----------------
           C(Gh)      0.756918556356     1.238975493486    -2.483101838050
           H(Gh)      1.330945787356     2.140096612486    -2.650669821050
           C(Gh)      1.402817259356     0.006507924486    -2.397053145050
           H(Gh)      2.478244626356    -0.048749721514    -2.496522888050
           C(Gh)      0.662769697356    -1.154679109514    -2.180444682050
           H(Gh)      1.164064369356    -2.110143190514    -2.109612934050
           C(Gh)     -0.723255738644    -1.083780019514    -2.051939753050
           H(Gh)     -1.296796007644    -1.985538550514    -1.885631179050
           C(Gh)     -1.369304539644     0.148545090486    -2.136740458050
           H(Gh)     -2.444695478644     0.204362536486    -2.035832100050
           C(Gh)     -0.629167423644     1.310170492486    -2.351491506050
           H(Gh)     -1.130098554644     2.266461407486    -2.414734009050
           C          0.143277025356     0.216404849486     0.911741844950
           H          0.265403432356     0.441888305486    -0.138684589050
           C         -0.947804542644    -0.538493761514     1.339078113950
           H         -1.668309071644    -0.895008018514     0.615383692950
           C         -1.108504523644    -0.832619084514     2.692028180950
           H         -1.955612110644    -1.418587648514     3.022275721950
           C         -0.176621962644    -0.371565704514     3.620522258950
           H         -0.300515458644    -0.599531865514     4.670529757950
           C          0.914963136356     0.383536349486     3.195281974950
           H          1.638082221356     0.741369529486     3.915664628950
           C          1.073767030356     0.677021368486     1.841790657950
           H          1.921024948356     1.263096163486     1.511743332950

  Running in c1 symmetry.

  Nuclear repulsion =  203.676941848782747

  Charge       = 0
  Multiplicity = 1
  Electrons    = 42
  Nalpha       = 21
  Nbeta        = 21

  ==> Algorithm <==

  SCF Algorithm Type is DF.
  DIIS enabled.
  MOM disabled.
  Fractional occupation disabled.
  Guess Type is CORE.
  Energy threshold   = 1.00e-08
  Density threshold  = 1.00e-08
  Integral threshold = 0.00e+00

  ==> Primary Basis <==

  Basis Set: AUG-CC-PVDZ
    Number of shells: 168
    Number of basis function: 384
    Number of Cartesian functions: 408
    Spherical Harmonics?: true
    Max angular momentum: 2

  ==> Pre-Iterations <==

   -------------------------------------------------------
    Irrep   Nso     Nmo     Nalpha   Nbeta   Ndocc  Nsocc
   -------------------------------------------------------
     A        384     384       0       0       0       0
   -------------------------------------------------------
    Total     384     384      21      21      21       0
   -------------------------------------------------------

 OEINTS: Wrapper to libmints.
   by Justin Turney

   Calculation information:
      Number of atoms:                  24
      Number of AO shells:             168
      Number of SO shells:             168
      Number of primitives:            384
      Number of atomic orbitals:       408
      Number of basis functions:       384

      Number of irreps:                  1
      Number of functions per irrep: [ 384 ]

      Overlap, kinetic, potential, dipole, and quadrupole integrals
        stored in file 35.

  ==> Integral Setup <==

  ==> DFJK: Density-Fitted J/K Matrices <==

    J tasked:                  Yes
    K tasked:                  Yes
    wK tasked:                  No
    OpenMP threads:              4
    Integrals threads:           4
    Memory (MB):              2145
    Algorithm:                Core
    Integral Cache:           LOAD
    Schwarz Cutoff:          0E+00
    Fitting Condition:       1E-12

   => Auxiliary Basis Set <=

  Basis Set: aug-cc-pvdz-jkfit
    Number of shells: 480
    Number of basis function: 1416
    Number of Cartesian functions: 1632
    Spherical Harmonics?: true
    Max angular momentum: 3

  Minimum eigenvalue in the overlap matrix is 1.8736306065E-06.
  Using Symmetric Orthogonalization.
  SCF Guess: Core (One-Electron) Hamiltonian.

  Guess energy:  -178.71080096874601

  ==> Iterations <==

                        Total Energy        Delta E     RMS |[F,P]|

   @RHF iter   1:  -193.64846401762810   -1.93648e+02   1.45523e-02 
   @RHF iter   2:  -171.37251455367544    2.22759e+01   1.20678e-02 DIIS
   @RHF iter   3:  -228.45028271210737   -5.70778e+01   4.80668e-03 DIIS
   @RHF iter   4:  -230.22815380805042   -1.77787e+00   2.26999e-03 DIIS
   @RHF iter   5:  -230.69182024600906   -4.63666e-01   5.92808e-04 DIIS
   @RHF iter   6:  -230.72242354369735   -3.06033e-02   2.46865e-04 DIIS
   @RHF iter   7:  -230.72833758921763   -5.91405e-03   3.11200e-05 DIIS
   @RHF iter   8:  -230.72848328716282   -1.45698e-04   6.29332e-06 DIIS
   @RHF iter   9:  -230.72848756514094   -4.27798e-06   1.74636e-06 DIIS
   @RHF iter  10:  -230.72848786708647   -3.01946e-07   5.00850e-07 DIIS
   @RHF iter  11:  -230.72848789676368   -2.96772e-08   6.84562e-08 DIIS
   @RHF iter  12:  -230.72848789751447   -7.50788e-10   1.92992e-08 DIIS
   @RHF iter  13:  -230.72848789756148   -4.70095e-11   6.62442e-09 DIIS

  ==> Post-Iterations <==

	Orbital Energies (a.u.)
	-----------------------

	Doubly Occupied:                                                      

	   1A    -11.242238     2A    -11.241693     3A    -11.241616  
	   4A    -11.240467     5A    -11.240420     6A    -11.239824  
	   7A     -1.153145     8A     -1.017527     9A     -1.017145  
	  10A     -0.825981    11A     -0.825739    12A     -0.710541  
	  13A     -0.644916    14A     -0.619839    15A     -0.588980  
	  16A     -0.588414    17A     -0.501797    18A     -0.495265  
	  19A     -0.494339    20A     -0.336499    21A     -0.336315  

	Virtual:                                                              

	  22A      0.022630    23A      0.034859    24A      0.037959  
	  25A      0.039382    26A      0.049386    27A      0.053004  
	  28A      0.057624    29A      0.059837    30A      0.070997  
	  31A      0.076956    32A      0.079834    33A      0.083318  
	  34A      0.100013    35A      0.101029    36A      0.106847  
	  37A      0.108665    38A      0.111042    39A      0.113587  
	  40A      0.120062    41A      0.133374    42A      0.137386  
	  43A      0.139170    44A      0.142132    45A      0.143532  
	  46A      0.148134    47A      0.149942    48A      0.152007  
	  49A      0.155367    50A      0.165232    51A      0.172038  
	  52A      0.173415    53A      0.177272    54A      0.179856  
	  55A      0.182001    56A      0.186148    57A      0.187212  
	  58A      0.188797    59A      0.190846    60A      0.195853  
	  61A      0.200186    62A      0.201577    63A      0.204101  
	  64A      0.217015    65A      0.225137    66A      0.226369  
	  67A      0.231432    68A      0.236877    69A      0.238061  
	  70A      0.245489    71A      0.253712    72A      0.254648  
	  73A      0.262906    74A      0.269494    75A      0.270620  
	  76A      0.285745    77A      0.290477    78A      0.313290  
	  79A      0.317777    80A      0.327436    81A      0.329955  
	  82A      0.333076    83A      0.337044    84A      0.338759  
	  85A      0.349853    86A      0.356252    87A      0.361970  
	  88A      0.366827    89A      0.367475    90A      0.375889  
	  91A      0.378897    92A      0.383353    93A      0.391457  
	  94A      0.400003    95A      0.406699    96A      0.412114  
	  97A      0.422253    98A      0.424775    99A      0.429767  
	 100A      0.433660   101A      0.436812   102A      0.441361  
	 103A      0.448849   104A      0.451474   105A      0.455107  
	 106A      0.462261   107A      0.463062   108A      0.470717  
	 109A      0.478740   110A      0.485784   111A      0.499666  
	 112A      0.502905   113A      0.507142   114A      0.517494  
	 115A      0.521288   116A      0.529777   117A      0.540182  
	 118A      0.543710   119A      0.549216   120A      0.552430  
	 121A      0.555266   122A      0.560799   123A      0.570742  
	 124A      0.584071   125A      0.585262   126A      0.595411  
	 127A      0.600768   128A      0.608724   129A      0.613210  
	 130A      0.621923   131A      0.623287   132A      0.628691  
	 133A      0.634330   134A      0.637901   135A      0.643932  
	 136A      0.650891   137A      0.663644   138A      0.673198  
	 139A      0.678843   140A      0.681621   141A      0.681780  
	 142A      0.689339   143A      0.693196   144A      0.702952  
	 145A      0.711688   146A      0.716236   147A      0.717738  
	 148A      0.725463   149A      0.733019   150A      0.736847  
	 151A      0.743099   152A      0.763164   153A      0.765330  
	 154A      0.771046   155A      0.780189   156A      0.783993  
	 157A      0.791484   158A      0.794953   159A      0.801454  
	 160A      0.805192   161A      0.827193   162A      0.830110  
	 163A      0.835653   164A      0.848381   165A      0.856154  
	 166A      0.864170   167A      0.866684   168A      0.871654  
	 169A      0.876930   170A      0.878975   171A      0.885616  
	 172A      0.891815   173A      0.894127   174A      0.899330  
	 175A      0.904739   176A      0.906268   177A      0.916282  
	 178A      0.919233   179A      0.929757   180A      0.931622  
	 181A      0.940593   182A      0.945311   183A      0.950371  
	 184A      0.960507   185A      0.964939   186A      0.976929  
	 187A      0.984824   188A      0.992496   189A      0.997605  
	 190A      1.014128   191A      1.017668   192A      1.020190  
	 193A      1.032236   194A      1.035218   195A      1.041340  
	 196A      1.053231   197A      1.056037   198A      1.059541  
	 199A      1.074911   200A      1.075482   201A      1.079907  
	 202A      1.104686   203A      1.115838   204A      1.118637  
	 205A      1.120644   206A      1.129886   207A      1.140858  
	 208A      1.173527   209A      1.182281   210A      1.198899  
	 211A      1.213641   212A      1.225335   213A      1.234353  
	 214A      1.237149   215A      1.247555   216A      1.258042  
	 217A      1.266784   218A      1.278606   219A      1.309013  
	 220A      1.366561   221A      1.392313   222A      1.396892  
	 223A      1.406601   224A      1.409236   225A      1.483370  
	 226A      1.489403   227A      1.493869   228A      1.494223  
	 229A      1.503117   230A      1.514222   231A      1.527740  
	 232A      1.554124   233A      1.564558   234A      1.572112  
	 235A      1.580231   236A      1.589915   237A      1.611514  
	 238A      1.633477   239A      1.639430   240A      1.668074  
	 241A      1.675882   242A      1.706912   243A      1.720064  
	 244A      1.725131   245A      1.733428   246A      1.744845  
	 247A      1.751261   248A      1.799888   249A      1.810415  
	 250A      1.815424   251A      1.826065   252A      1.848951  
	 253A      1.908558   254A      1.919572   255A      1.946944  
	 256A      1.955841   257A      1.978085   258A      1.981812  
	 259A      1.988732   260A      2.001046   261A      2.007312  
	 262A      2.021378   263A      2.036227   264A      2.091131  
	 265A      2.106470   266A      2.109589   267A      2.119965  
	 268A      2.135048   269A      2.136004   270A      2.151852  
	 271A      2.167995   272A      2.184681   273A      2.191240  
	 274A      2.210401   275A      2.223813   276A      2.233543  
	 277A      2.249756   278A      2.256721   279A      2.261878  
	 280A      2.265046   281A      2.272599   282A      2.285517  
	 283A      2.289743   284A      2.312682   285A      2.318721  
	 286A      2.323502   287A      2.337905   288A      2.344393  
	 289A      2.360053   290A      2.377803   291A      2.385385  
	 292A      2.391235   293A      2.400904   294A      2.405349  
	 295A      2.436227   296A      2.446028   297A      2.459753  
	 298A      2.466901   299A      2.485240   300A      2.493986  
	 301A      2.503343   302A      2.530613   303A      2.552736  
	 304A      2.557746   305A      2.571746   306A      2.600639  
	 307A      2.609072   308A      2.616716   309A      2.628183  
	 310A      2.641972   311A      2.658936   312A      2.660653  
	 313A      2.666771   314A      2.668818   315A      2.719702  
	 316A      2.729679   317A      2.734343   318A      2.767251  
	 319A      2.773508   320A      2.786261   321A      2.809391  
	 322A      2.825516   323A      2.829330   324A      2.857371  
	 325A      2.882397   326A      2.885372   327A      2.894509  
	 328A      2.901317   329A      2.945507   330A      2.952319  
	 331A      2.971112   332A      2.982895   333A      2.994304  
	 334A      3.005457   335A      3.048674   336A      3.056218  
	 337A      3.149238   338A      3.167996   339A      3.181545  
	 340A      3.203328   341A      3.247946   342A      3.260464  
	 343A      3.335374   344A      3.337728   345A      3.398030  
	 346A      3.427376   347A      3.452662   348A      3.464873  
	 349A      3.489963   350A      3.499302   351A      3.512050  
	 352A      3.540348   353A      3.577367   354A      3.613570  
	 355A      3.633322   356A      3.682159   357A      3.706198  
	 358A      3.743206   359A      3.868899   360A      3.958662  
	 361A      4.000927   362A      4.004124   363A      4.021337  
	 364A      4.088669   365A      4.110952   366A      4.428564  
	 367A      4.485841   368A      4.696280   369A      4.865059  
	 370A      4.886546   371A      4.944201   372A      5.320085  
	 373A      5.455500   374A      5.456905   375A      5.473766  
	 376A      5.476437   377A      5.646387   378A      6.105622  
	 379A     18.020998   380A     18.412051   381A     18.422882  
	 382A     19.013253   383A     19.036765   384A     20.708658  

	Final Occupation by Irrep:
	          A 
	DOCC [    21 ]

  Energy converged.

  @RHF Final Energy:  -230.72848789756148

   => Energetics <=

    Nuclear Repulsion Energy =            203.6769418487827465
    One-Electron Energy =                -713.6054605153558441
    Two-Electron Energy =                 279.2000307690105956
    DFT Exchange-Correlation Energy =       0.0000000000000000
    Empirical Dispersion Energy =           0.0000000000000000
    Total Energy =                       -230.7284878975625020



Properties will be evaluated at   0.000000,   0.000000,   0.000000 Bohr
  ==> Properties <==


Properties computed using the SCF density density matrix
  Nuclear Dipole Moment: (a.u.)
     X:    -1.3331      Y:    -6.1625      Z:   179.9011

  Electronic Dipole Moment: (a.u.)
     X:     1.3334      Y:     6.1620      Z:  -179.9004

  Dipole Moment: (a.u.)
     X:     0.0003      Y:    -0.0005      Z:     0.0008     Total:     0.0010

  Dipole Moment: (Debye)
     X:     0.0006      Y:    -0.0014      Z:     0.0019     Total:     0.0024


  Saving occupied orbitals to File 180.

  Saving SAPT 2-MONOMER_B file.

*** tstop() called on node119.bme.utexas.edu at Wed Sep 18 23:22:38 2013
Module time:
	user time   =     234.15 seconds =       3.90 minutes
	system time =       1.85 seconds =       0.03 minutes
	total time  =         63 seconds =       1.05 minutes
Total time:
	user time   =     961.53 seconds =      16.03 minutes
	system time =       7.53 seconds =       0.13 minutes
	total time  =        257 seconds =       4.28 minutes
  No DF_BASIS_SAPT auxiliary basis selected, defaulting to aug-cc-pvdz-ri

  //>>>>>>>>>>>>>>>>>>>>>>>>>>>>>>>>>>>//
  //               SAPT2+              //
  //<<<<<<<<<<<<<<<<<<<<<<<<<<<<<<<<<<<//


*** tstart() called on node119.bme.utexas.edu
*** at Wed Sep 18 23:22:38 2013

        SAPT2+  
    Ed Hohenstein
     6 June 2009

      Orbital Information
  --------------------------
    NSO        =       384
    NMO        =       384
    NRI        =      1140
    NOCC A     =        21
    NOCC B     =        21
    FOCC A     =         6
    FOCC B     =         6
    NVIR A     =       363
    NVIR B     =       363

    Estimated memory usage: 2596.4 MB

    Elst10,r            =    -0.007666287091 H
    Exch10 (S^2)        =     0.019211214396 H
    Exch10              =     0.019363646156 H
    Ind20,r (A<-B)      =    -0.002885145037 H
    Ind20,r (B<-A)      =    -0.002756043327 H
    Ind20,r             =    -0.005641188365 H
    Exch-Ind20,r (A<-B) =     0.002352627350 H
    Exch-Ind20,r (B<-A) =     0.002521924211 H
    Exch-Ind20,r        =     0.004874551561 H
    Disp20              =    -0.016274051972 H
    Exch-Disp20         =     0.002305423085 H
    Elst12,r            =    -0.000408689677 H
    Exch11              =     0.000426220115 H
    Exch12              =     0.001014620703 H
    Ind22               =    -0.000552417696 H
    Disp21              =     0.003858209557 H
    Disp22 (SDQ)        =     0.000353897153 H

    (i =   1 of  15)       1552 seconds
    (i =   2 of  15)       3104 seconds
    (i =   3 of  15)       4654 seconds
    (i =   4 of  15)       6206 seconds
    (i =   5 of  15)       7758 seconds
    (i =   6 of  15)       9310 seconds
    (i =   7 of  15)      10861 seconds
    (i =   8 of  15)      12412 seconds
    (i =   9 of  15)      13960 seconds
    (i =  10 of  15)      15512 seconds
    (i =  11 of  15)      17064 seconds
    (i =  12 of  15)      18617 seconds
    (i =  13 of  15)      20165 seconds
    (i =  14 of  15)      21712 seconds
    (i =  15 of  15)      23259 seconds

    Disp220 (T)         =    -0.001586241744 H

    (i =   1 of  15)       1552 seconds
    (i =   2 of  15)       3105 seconds
    (i =   3 of  15)       4657 seconds
    (i =   4 of  15)       6210 seconds
    (i =   5 of  15)       7762 seconds
    (i =   6 of  15)       9315 seconds
    (i =   7 of  15)      10867 seconds
    (i =   8 of  15)      12420 seconds
    (i =   9 of  15)      13972 seconds
    (i =  10 of  15)      15525 seconds
    (i =  11 of  15)      17077 seconds
    (i =  12 of  15)      18629 seconds
    (i =  13 of  15)      20177 seconds
    (i =  14 of  15)      21727 seconds
    (i =  15 of  15)      23275 seconds

    Disp202 (T)         =    -0.001489835437 H

    Disp22 (T)          =    -0.003076077182 H

    SAPT Results  
  -----------------------------------------------------------------------
    Electrostatics          -8.07497677 mH      -5.06712463 kcal mol^-1
      Elst10,r              -7.66628709 mH      -4.81066798 kcal mol^-1
      Elst12,r              -0.40868968 mH      -0.25645666 kcal mol^-1

    Exchange                20.80448697 mH      13.05501322 kcal mol^-1
      Exch10                19.36364616 mH      12.15087192 kcal mol^-1
      Exch10(S^2)           19.21121440 mH      12.05521954 kcal mol^-1
      Exch11(S^2)            0.42622012 mH       0.26745717 kcal mol^-1
      Exch12(S^2)            1.01462070 mH       0.63668413 kcal mol^-1

    Induction               -2.44827698 mH      -1.53631706 kcal mol^-1
      Ind20,r               -5.64118836 mH      -3.53989929 kcal mol^-1
      Ind22                 -0.55241770 mH      -0.34664735 kcal mol^-1
      Exch-Ind20,r           4.87455156 mH       3.05882741 kcal mol^-1
      Exch-Ind22             0.47734420 mH       0.29953802 kcal mol^-1
      delta HF,r (2)        -1.60656668 mH      -1.00813585 kcal mol^-1

    Dispersion             -12.83259936 mH      -8.05257801 kcal mol^-1
      Disp20               -16.27405197 mH     -10.21212222 kcal mol^-1
      Disp21                 3.85820956 mH       2.42106315 kcal mol^-1
      Disp22 (SDQ)           0.35389715 mH       0.22207383 kcal mol^-1
      Disp22 (T)            -3.07607718 mH      -1.93026765 kcal mol^-1
      Exch-Disp20            2.30542308 mH       1.44667489 kcal mol^-1

    Total HF                 9.32415558 mH       5.85099621 kcal mol^-1
    Total SAPT0             -4.64447330 mH      -2.91445112 kcal mol^-1
    Total SAPT2             -3.68739566 mH      -2.31387581 kcal mol^-1
    Total SAPT2+            -2.55136613 mH      -1.60100648 kcal mol^-1

*** tstop() called on node119.bme.utexas.edu at Thu Sep 19 13:23:46 2013
Module time:
	user time   =  176925.53 seconds =    2948.76 minutes
	system time =     287.47 seconds =       4.79 minutes
	total time  =      50468 seconds =     841.13 minutes
Total time:
	user time   =  177887.06 seconds =    2964.78 minutes
	system time =     295.00 seconds =       4.92 minutes
	total time  =      50725 seconds =     845.42 minutes

*** PSI4 exiting successfully. Buy a developer a beer!
