    -----------------------------------------------------------------------
          PSI4: An Open-Source Ab Initio Electronic Structure Package
                              PSI 4.0.0-beta4 Driver

    J. M. Turney, A. C. Simmonett, R. M. Parrish, E. G. Hohenstein,
    F. A. Evangelista, J. T. Fermann, B. J. Mintz, L. A. Burns, J. J. Wilke,
    M. L. Abrams, N. J. Russ, M. L. Leininger, C. L. Janssen, E. T. Seidl,
    W. D. Allen, H. F. Schaefer, R. A. King, E. F. Valeev, C. D. Sherrill,
    and T. D. Crawford, WIREs Comput. Mol. Sci., (2011) (doi: 10.1002/wcms.93)

                         Additional Contributions by
    A. E. DePrince, M. Saitow, U. Bozkaya, A. Yu. Sokolov
    -----------------------------------------------------------------------

    Process ID:  21368
    PSI4DATADIR: /home/xzhu216/psi4/psi4-install/share/psi

    Using LocalCommunicator (Number of processes = 1)

    Memory level set to 256.000 MB

  ==> Input File <==

--------------------------------------------------------------------------
#psi4
#
memory 7 gb

molecule Benzene_Pyridine {
0 1
C    0.845077202   1.057918690   0.699454900
H    1.506406005   1.903221780   0.833382351
C    1.375509314  -0.217455339   0.511160934
H    2.447183668  -0.361472579   0.502852324
C    0.524068101  -1.307044317   0.333192325
H    0.935727260  -2.296026407   0.184923048
C   -0.857715735  -1.121463408   0.346384085
H   -1.518381190  -1.966458055   0.208363251
C   -1.388045696   0.153634383   0.537613494
H   -2.459717525   0.297415869   0.550032292
C   -0.536613149   1.243422206   0.712738819
H   -0.948924265   2.232806277   0.857366346
--
0 1
N    0.019619367   0.295628752   7.052016144
C    0.174303187   1.233590357   6.107139264
H    0.316074014   2.246116362   6.465040990
C    0.160093920   0.966300592   4.740639826
H    0.290333978   1.767326390   4.026754414
C   -0.024244391  -0.345329093   4.315349395
H   -0.040810844  -0.588447760   3.262001462
C   -0.186093317  -1.330363426   5.284208484
H   -0.332636338  -2.365574394   5.009436970
C   -0.156890844  -0.963030325   6.627297990
H   -0.280486978  -1.710544294   7.401398987
units angstrom
no_reorient  #important for SAPT in psi4, default
symmetry c1  #important for SAPT in psi4, default
}

set {
basis aug-cc-pVDZ
scf_type DF
freeze_core True
}
energy('sapt2+')
--------------------------------------------------------------------------

  Memory set to   7.000 GiB by Python script.

  //>>>>>>>>>>>>>>>>>>>>>>>>>>>>>>>>>>>//
  //              Dimer HF             //
  //<<<<<<<<<<<<<<<<<<<<<<<<<<<<<<<<<<<//


  No DF_BASIS_SCF auxiliary basis selected, defaulting to aug-cc-pvdz-jkfit


*** tstart() called on node52.bme.utexas.edu
*** at Fri Nov  8 21:08:22 2013


         ---------------------------------------------------------
                                   SCF
            by Justin Turney, Rob Parrish, and Andy Simmonett
                              RHF Reference
                        4 Threads,   7000 MiB Core
         ---------------------------------------------------------

  ==> Geometry <==

    Molecular point group: c1
    Full point group: C1

    Geometry (in Angstrom), charge = 0, multiplicity = 1:

       Center              X                  Y                   Z       
    ------------   -----------------  -----------------  -----------------
           C          0.849264535183     1.085077456416    -2.425286039583
           H          1.510593338183     1.930380546416    -2.291358588583
           C          1.379696647183    -0.190296572584    -2.613580005583
           H          2.451371001183    -0.334313812584    -2.621888615583
           C          0.528255434183    -1.279885550584    -2.791548614583
           H          0.939914593183    -2.268867640584    -2.939817891583
           C         -0.853528401817    -1.094304641584    -2.778356854583
           H         -1.514193856817    -1.939299288584    -2.916377688583
           C         -1.383858362817     0.180793149416    -2.587127445583
           H         -2.455530191817     0.324574635416    -2.574708647583
           C         -0.532425815817     1.270580972416    -2.412002120583
           H         -0.944736931817     2.259965043416    -2.267374593583
           N          0.023806700183     0.322787518416     3.927275204417
           C          0.178490520183     1.260749123416     2.982398324417
           H          0.320261347183     2.273275128416     3.340300050417
           C          0.164281253183     0.993459358416     1.615898886417
           H          0.294521311183     1.794485156416     0.902013474417
           C         -0.020057057817    -0.318170326584     1.190608455417
           H         -0.036623510817    -0.561288993584     0.137260522417
           C         -0.181905983817    -1.303204659584     2.159467544417
           H         -0.328449004817    -2.338415627584     1.884696030417
           C         -0.152703510817    -0.935871558584     3.502557050417
           H         -0.276299644817    -1.683385527584     4.276658047417

  Running in c1 symmetry.

  Nuclear repulsion =  586.978001636821091

  Charge       = 0
  Multiplicity = 1
  Electrons    = 84
  Nalpha       = 42
  Nbeta        = 42

  ==> Algorithm <==

  SCF Algorithm Type is DF.
  DIIS enabled.
  MOM disabled.
  Fractional occupation disabled.
  Guess Type is CORE.
  Energy threshold   = 1.00e-08
  Density threshold  = 1.00e-08
  Integral threshold = 0.00e+00

  ==> Primary Basis <==

  Basis Set: AUG-CC-PVDZ
    Number of shells: 163
    Number of basis function: 375
    Number of Cartesian functions: 399
    Spherical Harmonics?: true
    Max angular momentum: 2

  ==> Pre-Iterations <==

   -------------------------------------------------------
    Irrep   Nso     Nmo     Nalpha   Nbeta   Ndocc  Nsocc
   -------------------------------------------------------
     A        375     375       0       0       0       0
   -------------------------------------------------------
    Total     375     375      42      42      42       0
   -------------------------------------------------------

 OEINTS: Wrapper to libmints.
   by Justin Turney

   Calculation information:
      Number of atoms:                  23
      Number of AO shells:             163
      Number of SO shells:             163
      Number of primitives:            377
      Number of atomic orbitals:       399
      Number of basis functions:       375

      Number of irreps:                  1
      Number of functions per irrep: [ 375 ]

      Overlap, kinetic, potential, dipole, and quadrupole integrals
        stored in file 35.

  ==> Integral Setup <==

  ==> DFJK: Density-Fitted J/K Matrices <==

    J tasked:                  Yes
    K tasked:                  Yes
    wK tasked:                  No
    OpenMP threads:              4
    Integrals threads:           4
    Memory (MB):              5006
    Algorithm:                Core
    Integral Cache:           SAVE
    Schwarz Cutoff:          0E+00
    Fitting Condition:       1E-12

   => Auxiliary Basis Set <=

  Basis Set: aug-cc-pvdz-jkfit
    Number of shells: 468
    Number of basis function: 1384
    Number of Cartesian functions: 1597
    Spherical Harmonics?: true
    Max angular momentum: 3

  Minimum eigenvalue in the overlap matrix is 2.3310901853E-06.
  Using Symmetric Orthogonalization.
  SCF Guess: Core (One-Electron) Hamiltonian.

  Guess energy:  -372.20417270966186

  ==> Iterations <==

                        Total Energy        Delta E     RMS |[F,P]|

   @RHF iter   1:  -396.34090061372513   -3.96341e+02   2.22023e-02 
   @RHF iter   2:  -305.56387000994005    9.07770e+01   2.24568e-02 DIIS
   @RHF iter   3:  -269.39019939760385    3.61737e+01   3.14078e-02 DIIS
   @RHF iter   4:  -457.50803292609862   -1.88118e+02   1.25257e-02 DIIS
   @RHF iter   5:  -449.51324253769258    7.99479e+00   1.26026e-02 DIIS
   @RHF iter   6:  -475.17503012903853   -2.56618e+01   3.57730e-03 DIIS
   @RHF iter   7:  -475.00186516964641    1.73165e-01   4.24862e-03 DIIS
   @RHF iter   8:  -477.34918746425069   -2.34732e+00   1.07961e-03 DIIS
   @RHF iter   9:  -477.42251732611885   -7.33299e-02   5.29465e-04 DIIS
   @RHF iter  10:  -477.44105295323016   -1.85356e-02   3.35371e-04 DIIS
   @RHF iter  11:  -477.45197173847760   -1.09188e-02   9.38361e-05 DIIS
   @RHF iter  12:  -477.45323182401603   -1.26009e-03   2.78542e-05 DIIS
   @RHF iter  13:  -477.45342195606531   -1.90132e-04   1.44649e-05 DIIS
   @RHF iter  14:  -477.45348569237990   -6.37363e-05   7.29779e-06 DIIS
   @RHF iter  15:  -477.45349952940001   -1.38370e-05   2.42017e-06 DIIS
   @RHF iter  16:  -477.45350100100882   -1.47161e-06   6.24290e-07 DIIS
   @RHF iter  17:  -477.45350110220943   -1.01201e-07   2.55312e-07 DIIS
   @RHF iter  18:  -477.45350111420748   -1.19981e-08   8.77306e-08 DIIS
   @RHF iter  19:  -477.45350111626362   -2.05614e-09   3.06778e-08 DIIS
   @RHF iter  20:  -477.45350111660196   -3.38332e-10   1.24071e-08 DIIS
   @RHF iter  21:  -477.45350111668017   -7.82165e-11   5.89440e-09 DIIS

  ==> Post-Iterations <==

	Orbital Energies (a.u.)
	-----------------------

	Doubly Occupied:                                                      

	   1A    -15.568951     2A    -11.275359     3A    -11.275204  
	   4A    -11.256095     5A    -11.251660     6A    -11.251160  
	   7A    -11.251032     8A    -11.249944     9A    -11.249809  
	  10A    -11.249277    11A    -11.240950    12A    -11.240166  
	  13A     -1.253429    14A     -1.162737    15A     -1.084469  
	  16A     -1.029136    17A     -1.026637    18A     -1.026471  
	  19A     -0.853202    20A     -0.850692    21A     -0.834893  
	  22A     -0.834770    23A     -0.719449    24A     -0.715132  
	  25A     -0.653985    26A     -0.653637    27A     -0.647686  
	  28A     -0.628772    29A     -0.597673    30A     -0.597400  
	  31A     -0.591673    32A     -0.570640    33A     -0.534120  
	  34A     -0.512360    35A     -0.509638    36A     -0.503609  
	  37A     -0.503527    38A     -0.413018    39A     -0.376106  
	  40A     -0.346746    41A     -0.345861    42A     -0.340746  

	Virtual:                                                              

	  43A      0.029092    44A      0.035366    45A      0.039503  
	  46A      0.045373    47A      0.051568    48A      0.054020  
	  49A      0.055428    50A      0.063548    51A      0.073286  
	  52A      0.077694    53A      0.086948    54A      0.091498  
	  55A      0.096154    56A      0.101787    57A      0.109433  
	  58A      0.115845    59A      0.118207    60A      0.126593  
	  61A      0.127498    62A      0.134218    63A      0.136124  
	  64A      0.138969    65A      0.142683    66A      0.144559  
	  67A      0.147561    68A      0.148987    69A      0.149555  
	  70A      0.155311    71A      0.162094    72A      0.164802  
	  73A      0.167517    74A      0.171602    75A      0.176348  
	  76A      0.180552    77A      0.183080    78A      0.185588  
	  79A      0.186028    80A      0.187661    81A      0.196784  
	  82A      0.201574    83A      0.201763    84A      0.209987  
	  85A      0.220721    86A      0.227497    87A      0.237166  
	  88A      0.240789    89A      0.243683    90A      0.249262  
	  91A      0.260293    92A      0.263095    93A      0.285902  
	  94A      0.290499    95A      0.298407    96A      0.300397  
	  97A      0.305007    98A      0.311836    99A      0.317658  
	 100A      0.319176   101A      0.327145   102A      0.332923  
	 103A      0.334759   104A      0.334927   105A      0.339436  
	 106A      0.351800   107A      0.357664   108A      0.360091  
	 109A      0.360802   110A      0.369401   111A      0.370999  
	 112A      0.375913   113A      0.376129   114A      0.382795  
	 115A      0.388285   116A      0.389203   117A      0.394026  
	 118A      0.397073   119A      0.422831   120A      0.427575  
	 121A      0.428582   122A      0.431093   123A      0.434972  
	 124A      0.435069   125A      0.439111   126A      0.443976  
	 127A      0.450817   128A      0.463237   129A      0.469186  
	 130A      0.472984   131A      0.490395   132A      0.491296  
	 133A      0.494461   134A      0.511488   135A      0.521199  
	 136A      0.523196   137A      0.544557   138A      0.547267  
	 139A      0.549831   140A      0.567823   141A      0.575799  
	 142A      0.584981   143A      0.587287   144A      0.588898  
	 145A      0.593064   146A      0.597594   147A      0.600845  
	 148A      0.606293   149A      0.611520   150A      0.614555  
	 151A      0.617195   152A      0.618824   153A      0.623714  
	 154A      0.633607   155A      0.638761   156A      0.646658  
	 157A      0.650825   158A      0.656590   159A      0.664135  
	 160A      0.672662   161A      0.678808   162A      0.682662  
	 163A      0.688607   164A      0.691588   165A      0.692398  
	 166A      0.697772   167A      0.701229   168A      0.704891  
	 169A      0.706891   170A      0.708245   171A      0.720270  
	 172A      0.723610   173A      0.733121   174A      0.742805  
	 175A      0.743178   176A      0.760810   177A      0.769404  
	 178A      0.773870   179A      0.777235   180A      0.779742  
	 181A      0.784654   182A      0.804974   183A      0.809007  
	 184A      0.812626   185A      0.821859   186A      0.822926  
	 187A      0.850174   188A      0.850591   189A      0.855609  
	 190A      0.855845   191A      0.861983   192A      0.869955  
	 193A      0.877542   194A      0.884206   195A      0.889799  
	 196A      0.890601   197A      0.903181   198A      0.915076  
	 199A      0.923734   200A      0.930438   201A      0.934739  
	 202A      0.941092   203A      0.949192   204A      0.950413  
	 205A      0.960594   206A      0.962296   207A      0.968772  
	 208A      0.978273   209A      0.980882   210A      0.992908  
	 211A      1.006206   212A      1.008499   213A      1.022128  
	 214A      1.023331   215A      1.042043   216A      1.056081  
	 217A      1.066156   218A      1.072051   219A      1.081091  
	 220A      1.102820   221A      1.105577   222A      1.108230  
	 223A      1.119082   224A      1.125213   225A      1.143576  
	 226A      1.148590   227A      1.191207   228A      1.210934  
	 229A      1.230493   230A      1.249211   231A      1.253565  
	 232A      1.278634   233A      1.287380   234A      1.289923  
	 235A      1.307526   236A      1.330342   237A      1.349468  
	 238A      1.354547   239A      1.407065   240A      1.418436  
	 241A      1.442998   242A      1.449745   243A      1.480809  
	 244A      1.481268   245A      1.501965   246A      1.533400  
	 247A      1.535824   248A      1.537903   249A      1.538861  
	 250A      1.551925   251A      1.573095   252A      1.581351  
	 253A      1.586289   254A      1.588524   255A      1.618508  
	 256A      1.623637   257A      1.633920   258A      1.637977  
	 259A      1.642722   260A      1.646060   261A      1.654312  
	 262A      1.665230   263A      1.683060   264A      1.683820  
	 265A      1.693091   266A      1.694695   267A      1.704764  
	 268A      1.715788   269A      1.717664   270A      1.724998  
	 271A      1.745135   272A      1.755652   273A      1.758277  
	 274A      1.768431   275A      1.782831   276A      1.792207  
	 277A      1.799389   278A      1.815346   279A      1.828152  
	 280A      1.830778   281A      1.849057   282A      1.863308  
	 283A      1.870562   284A      1.897694   285A      1.898646  
	 286A      1.925114   287A      1.931570   288A      1.953033  
	 289A      1.957305   290A      1.962450   291A      1.965808  
	 292A      1.966151   293A      1.988300   294A      1.989953  
	 295A      1.994637   296A      1.996863   297A      2.009703  
	 298A      2.031055   299A      2.054970   300A      2.088378  
	 301A      2.099663   302A      2.107024   303A      2.120542  
	 304A      2.129071   305A      2.133709   306A      2.137766  
	 307A      2.162558   308A      2.164901   309A      2.174819  
	 310A      2.207296   311A      2.211489   312A      2.215474  
	 313A      2.220066   314A      2.233444   315A      2.233874  
	 316A      2.256375   317A      2.265433   318A      2.275603  
	 319A      2.289294   320A      2.295076   321A      2.310767  
	 322A      2.312344   323A      2.339864   324A      2.356562  
	 325A      2.364220   326A      2.365301   327A      2.374707  
	 328A      2.395428   329A      2.396439   330A      2.401235  
	 331A      2.450573   332A      2.455525   333A      2.470381  
	 334A      2.486567   335A      2.515539   336A      2.578741  
	 337A      2.614635   338A      2.634557   339A      2.659035  
	 340A      2.676068   341A      2.712377   342A      2.755425  
	 343A      2.790520   344A      2.796689   345A      2.800962  
	 346A      2.805353   347A      2.833705   348A      2.857650  
	 349A      2.897664   350A      2.910336   351A      2.955840  
	 352A      2.975335   353A      2.978323   354A      2.981718  
	 355A      2.994727   356A      3.025078   357A      3.051779  
	 358A      3.144156   359A      3.146052   360A      3.148176  
	 361A      3.154655   362A      3.161361   363A      3.193549  
	 364A      3.211919   365A      3.293779   366A      3.379971  
	 367A      3.416310   368A      3.429244   369A      3.566184  
	 370A      3.574413   371A      3.670659   372A      3.710009  
	 373A      3.882880   374A      4.338629   375A      4.832613  

	Final Occupation by Irrep:
	          A 
	DOCC [    42 ]

  Energy converged.

  @RHF Final Energy:  -477.45350111668017

   => Energetics <=

    Nuclear Repulsion Energy =            586.9780016368210909
    One-Electron Energy =               -1808.7073568551682001
    Two-Electron Energy =                 744.2758541016681875
    DFT Exchange-Correlation Energy =       0.0000000000000000
    Empirical Dispersion Energy =           0.0000000000000000
    Total Energy =                       -477.4535011166789218



Properties will be evaluated at   0.000000,   0.000000,   0.000000 Bohr
  ==> Properties <==


Properties computed using the SCF density density matrix
  Nuclear Dipole Moment: (a.u.)
     X:    -0.0368      Y:    -0.5099      Z:    -4.7649

  Electronic Dipole Moment: (a.u.)
     X:     0.0191      Y:     0.2985      Z:     3.6491

  Dipole Moment: (a.u.)
     X:    -0.0176      Y:    -0.2113      Z:    -1.1159     Total:     1.1358

  Dipole Moment: (Debye)
     X:    -0.0449      Y:    -0.5372      Z:    -2.8362     Total:     2.8870


  Saving occupied orbitals to File 180.

  Saving SAPT 2-DIMER file.

*** tstop() called on node52.bme.utexas.edu at Fri Nov  8 21:10:18 2013
Module time:
	user time   =     432.75 seconds =       7.21 minutes
	system time =       3.82 seconds =       0.06 minutes
	total time  =        116 seconds =       1.93 minutes
Total time:
	user time   =     432.75 seconds =       7.21 minutes
	system time =       3.82 seconds =       0.06 minutes
	total time  =        116 seconds =       1.93 minutes

  //>>>>>>>>>>>>>>>>>>>>>>>>>>>>>>>>>>>//
  //            Monomer A HF           //
  //<<<<<<<<<<<<<<<<<<<<<<<<<<<<<<<<<<<//


  No DF_BASIS_SCF auxiliary basis selected, defaulting to aug-cc-pvdz-jkfit


*** tstart() called on node52.bme.utexas.edu
*** at Fri Nov  8 21:10:18 2013


         ---------------------------------------------------------
                                   SCF
            by Justin Turney, Rob Parrish, and Andy Simmonett
                              RHF Reference
                        4 Threads,   7000 MiB Core
         ---------------------------------------------------------

  ==> Geometry <==

    Molecular point group: c1
    Full point group: C1

    Geometry (in Angstrom), charge = 0, multiplicity = 1:

       Center              X                  Y                   Z       
    ------------   -----------------  -----------------  -----------------
           C          0.849264535183     1.085077456416    -2.425286039583
           H          1.510593338183     1.930380546416    -2.291358588583
           C          1.379696647183    -0.190296572584    -2.613580005583
           H          2.451371001183    -0.334313812584    -2.621888615583
           C          0.528255434183    -1.279885550584    -2.791548614583
           H          0.939914593183    -2.268867640584    -2.939817891583
           C         -0.853528401817    -1.094304641584    -2.778356854583
           H         -1.514193856817    -1.939299288584    -2.916377688583
           C         -1.383858362817     0.180793149416    -2.587127445583
           H         -2.455530191817     0.324574635416    -2.574708647583
           C         -0.532425815817     1.270580972416    -2.412002120583
           H         -0.944736931817     2.259965043416    -2.267374593583
           N(Gh)      0.023806700183     0.322787518416     3.927275204417
           C(Gh)      0.178490520183     1.260749123416     2.982398324417
           H(Gh)      0.320261347183     2.273275128416     3.340300050417
           C(Gh)      0.164281253183     0.993459358416     1.615898886417
           H(Gh)      0.294521311183     1.794485156416     0.902013474417
           C(Gh)     -0.020057057817    -0.318170326584     1.190608455417
           H(Gh)     -0.036623510817    -0.561288993584     0.137260522417
           C(Gh)     -0.181905983817    -1.303204659584     2.159467544417
           H(Gh)     -0.328449004817    -2.338415627584     1.884696030417
           C(Gh)     -0.152703510817    -0.935871558584     3.502557050417
           H(Gh)     -0.276299644817    -1.683385527584     4.276658047417

  Running in c1 symmetry.

  Nuclear repulsion =  203.650459216149954

  Charge       = 0
  Multiplicity = 1
  Electrons    = 42
  Nalpha       = 21
  Nbeta        = 21

  ==> Algorithm <==

  SCF Algorithm Type is DF.
  DIIS enabled.
  MOM disabled.
  Fractional occupation disabled.
  Guess Type is CORE.
  Energy threshold   = 1.00e-08
  Density threshold  = 1.00e-08
  Integral threshold = 0.00e+00

  ==> Primary Basis <==

  Basis Set: AUG-CC-PVDZ
    Number of shells: 163
    Number of basis function: 375
    Number of Cartesian functions: 399
    Spherical Harmonics?: true
    Max angular momentum: 2

  ==> Pre-Iterations <==

   -------------------------------------------------------
    Irrep   Nso     Nmo     Nalpha   Nbeta   Ndocc  Nsocc
   -------------------------------------------------------
     A        375     375       0       0       0       0
   -------------------------------------------------------
    Total     375     375      21      21      21       0
   -------------------------------------------------------

 OEINTS: Wrapper to libmints.
   by Justin Turney

   Calculation information:
      Number of atoms:                  23
      Number of AO shells:             163
      Number of SO shells:             163
      Number of primitives:            377
      Number of atomic orbitals:       399
      Number of basis functions:       375

      Number of irreps:                  1
      Number of functions per irrep: [ 375 ]

      Overlap, kinetic, potential, dipole, and quadrupole integrals
        stored in file 35.

  ==> Integral Setup <==

  ==> DFJK: Density-Fitted J/K Matrices <==

    J tasked:                  Yes
    K tasked:                  Yes
    wK tasked:                  No
    OpenMP threads:              4
    Integrals threads:           4
    Memory (MB):              5006
    Algorithm:                Core
    Integral Cache:           LOAD
    Schwarz Cutoff:          0E+00
    Fitting Condition:       1E-12

   => Auxiliary Basis Set <=

  Basis Set: aug-cc-pvdz-jkfit
    Number of shells: 468
    Number of basis function: 1384
    Number of Cartesian functions: 1597
    Spherical Harmonics?: true
    Max angular momentum: 3

  Minimum eigenvalue in the overlap matrix is 2.3310901853E-06.
  Using Symmetric Orthogonalization.
  SCF Guess: Core (One-Electron) Hamiltonian.

  Guess energy:  -178.77352238408929

  ==> Iterations <==

                        Total Energy        Delta E     RMS |[F,P]|

   @RHF iter   1:  -193.43285800071379   -1.93433e+02   1.49856e-02 
   @RHF iter   2:  -172.03026222064960    2.14026e+01   1.22661e-02 DIIS
   @RHF iter   3:  -228.36993886231602   -5.63397e+01   5.02413e-03 DIIS
   @RHF iter   4:  -230.18262878134175   -1.81269e+00   2.42710e-03 DIIS
   @RHF iter   5:  -230.70097305686772   -5.18344e-01   5.02951e-04 DIIS
   @RHF iter   6:  -230.72799198135101   -2.70189e-02   9.08779e-05 DIIS
   @RHF iter   7:  -230.72892886450956   -9.36883e-04   1.99399e-05 DIIS
   @RHF iter   8:  -230.72897092699810   -4.20625e-05   7.53617e-06 DIIS
   @RHF iter   9:  -230.72897588935803   -4.96236e-06   2.54960e-06 DIIS
   @RHF iter  10:  -230.72897645325128   -5.63893e-07   7.44123e-07 DIIS
   @RHF iter  11:  -230.72897651688680   -6.36355e-08   1.47645e-07 DIIS
   @RHF iter  12:  -230.72897651943987   -2.55307e-09   2.43806e-08 DIIS
   @RHF iter  13:  -230.72897651952832   -8.84484e-11   3.83130e-09 DIIS

  ==> Post-Iterations <==

	Orbital Energies (a.u.)
	-----------------------

	Doubly Occupied:                                                      

	   1A    -11.242350     2A    -11.241811     3A    -11.241768  
	   4A    -11.240596     5A    -11.240550     6A    -11.239979  
	   7A     -1.152735     8A     -1.016997     9A     -1.016901  
	  10A     -0.825595    11A     -0.825508    12A     -0.710152  
	  13A     -0.644795    14A     -0.619389    15A     -0.588376  
	  16A     -0.588288    17A     -0.501708    18A     -0.494607  
	  19A     -0.494447    20A     -0.336196    21A     -0.336187  

	Virtual:                                                              

	  22A      0.024156    23A      0.035794    24A      0.038726  
	  25A      0.041530    26A      0.050145    27A      0.056390  
	  28A      0.057103    29A      0.059727    30A      0.073348  
	  31A      0.076133    32A      0.078501    33A      0.083131  
	  34A      0.102722    35A      0.105472    36A      0.105610  
	  37A      0.113717    38A      0.117038    39A      0.120791  
	  40A      0.124089    41A      0.131792    42A      0.138468  
	  43A      0.141495    44A      0.143507    45A      0.144012  
	  46A      0.150375    47A      0.151593    48A      0.151640  
	  49A      0.160711    50A      0.163075    51A      0.165933  
	  52A      0.166769    53A      0.171235    54A      0.180802  
	  55A      0.183036    56A      0.184310    57A      0.185116  
	  58A      0.186495    59A      0.192937    60A      0.194786  
	  61A      0.205371    62A      0.207665    63A      0.219136  
	  64A      0.223765    65A      0.227388    66A      0.233659  
	  67A      0.242648    68A      0.249032    69A      0.249536  
	  70A      0.256263    71A      0.264059    72A      0.266654  
	  73A      0.274015    74A      0.289977    75A      0.302718  
	  76A      0.307205    77A      0.313539    78A      0.319834  
	  79A      0.324414    80A      0.326315    81A      0.331189  
	  82A      0.337482    83A      0.347218    84A      0.353759  
	  85A      0.365765    86A      0.372258    87A      0.378434  
	  88A      0.381773    89A      0.382533    90A      0.383094  
	  91A      0.386638    92A      0.397467    93A      0.403466  
	  94A      0.404491    95A      0.406565    96A      0.412940  
	  97A      0.427846    98A      0.431054    99A      0.431831  
	 100A      0.443764   101A      0.444888   102A      0.450884  
	 103A      0.458694   104A      0.473517   105A      0.475625  
	 106A      0.477706   107A      0.483773   108A      0.487456  
	 109A      0.489680   110A      0.503732   111A      0.512295  
	 112A      0.519628   113A      0.522016   114A      0.530369  
	 115A      0.540520   116A      0.549572   117A      0.554461  
	 118A      0.558756   119A      0.561942   120A      0.569503  
	 121A      0.578672   122A      0.583692   123A      0.588784  
	 124A      0.592297   125A      0.594922   126A      0.597329  
	 127A      0.602745   128A      0.611357   129A      0.617225  
	 130A      0.625185   131A      0.629283   132A      0.640005  
	 133A      0.643568   134A      0.648359   135A      0.650297  
	 136A      0.659300   137A      0.666570   138A      0.673150  
	 139A      0.682455   140A      0.683140   141A      0.694204  
	 142A      0.703135   143A      0.703965   144A      0.708357  
	 145A      0.712077   146A      0.715269   147A      0.720112  
	 148A      0.732622   149A      0.758540   150A      0.767563  
	 151A      0.770210   152A      0.775920   153A      0.776763  
	 154A      0.783943   155A      0.790422   156A      0.800033  
	 157A      0.802276   158A      0.810578   159A      0.812192  
	 160A      0.815863   161A      0.819824   162A      0.849775  
	 163A      0.858588   164A      0.860631   165A      0.861735  
	 166A      0.868502   167A      0.872616   168A      0.876941  
	 169A      0.879850   170A      0.884178   171A      0.889019  
	 172A      0.893609   173A      0.900493   174A      0.907347  
	 175A      0.914677   176A      0.933630   177A      0.938565  
	 178A      0.939392   179A      0.946993   180A      0.953506  
	 181A      0.963275   182A      0.968848   183A      0.978601  
	 184A      0.981245   185A      0.991125   186A      0.993056  
	 187A      1.024592   188A      1.034871   189A      1.038986  
	 190A      1.043596   191A      1.059562   192A      1.070198  
	 193A      1.075419   194A      1.081123   195A      1.096330  
	 196A      1.108089   197A      1.124612   198A      1.127027  
	 199A      1.130758   200A      1.138348   201A      1.156390  
	 202A      1.167351   203A      1.174384   204A      1.199243  
	 205A      1.200592   206A      1.225258   207A      1.231111  
	 208A      1.266809   209A      1.274139   210A      1.300535  
	 211A      1.301545   212A      1.304305   213A      1.338247  
	 214A      1.360234   215A      1.361258   216A      1.366121  
	 217A      1.381583   218A      1.403046   219A      1.421662  
	 220A      1.440563   221A      1.474784   222A      1.499605  
	 223A      1.501982   224A      1.508400   225A      1.523761  
	 226A      1.538945   227A      1.546752   228A      1.550077  
	 229A      1.553094   230A      1.578814   231A      1.592210  
	 232A      1.600734   233A      1.645067   234A      1.652011  
	 235A      1.654901   236A      1.656998   237A      1.664776  
	 238A      1.676070   239A      1.697318   240A      1.729903  
	 241A      1.732120   242A      1.734354   243A      1.750221  
	 244A      1.774252   245A      1.806123   246A      1.817751  
	 247A      1.830020   248A      1.893561   249A      1.907411  
	 250A      1.932824   251A      1.933925   252A      1.970724  
	 253A      1.978530   254A      1.979851   255A      1.993701  
	 256A      1.998465   257A      2.007088   258A      2.076449  
	 259A      2.086249   260A      2.115053   261A      2.118952  
	 262A      2.123112   263A      2.139672   264A      2.163404  
	 265A      2.183397   266A      2.183555   267A      2.190188  
	 268A      2.191155   269A      2.203003   270A      2.204446  
	 271A      2.217491   272A      2.222151   273A      2.223280  
	 274A      2.230817   275A      2.231919   276A      2.248246  
	 277A      2.273034   278A      2.274237   279A      2.286039  
	 280A      2.290770   281A      2.292173   282A      2.299863  
	 283A      2.320353   284A      2.327576   285A      2.334748  
	 286A      2.366120   287A      2.378755   288A      2.382566  
	 289A      2.384855   290A      2.404757   291A      2.415024  
	 292A      2.441180   293A      2.462200   294A      2.463919  
	 295A      2.485028   296A      2.516783   297A      2.532028  
	 298A      2.542571   299A      2.551927   300A      2.602403  
	 301A      2.620268   302A      2.623919   303A      2.653507  
	 304A      2.668643   305A      2.687725   306A      2.701452  
	 307A      2.720015   308A      2.755808   309A      2.776889  
	 310A      2.797241   311A      2.806296   312A      2.809314  
	 313A      2.814232   314A      2.841468   315A      2.873554  
	 316A      2.874982   317A      2.892204   318A      2.927200  
	 319A      2.970313   320A      2.982948   321A      2.987014  
	 322A      2.991895   323A      3.000393   324A      3.047665  
	 325A      3.073871   326A      3.104699   327A      3.144686  
	 328A      3.155496   329A      3.163329   330A      3.168184  
	 331A      3.171657   332A      3.190544   333A      3.221433  
	 334A      3.297913   335A      3.374000   336A      3.381379  
	 337A      3.388855   338A      3.417562   339A      3.439973  
	 340A      3.468713   341A      3.501195   342A      3.514964  
	 343A      3.575773   344A      3.584268   345A      3.601947  
	 346A      3.634058   347A      3.638503   348A      3.884706  
	 349A      3.892946   350A      3.955281   351A      3.970115  
	 352A      4.029284   353A      4.118025   354A      4.202062  
	 355A      4.453228   356A      4.525441   357A      4.639370  
	 358A      4.669922   359A      4.776749   360A      4.843292  
	 361A      4.990897   362A      5.168632   363A      5.417521  
	 364A      5.506343   365A      5.558118   366A      5.616168  
	 367A      5.617463   368A      5.802459   369A      6.149800  
	 370A     18.074932   371A     18.392618   372A     18.754055  
	 373A     19.081653   374A     19.956446   375A     25.331308  

	Final Occupation by Irrep:
	          A 
	DOCC [    21 ]

  Energy converged.

  @RHF Final Energy:  -230.72897651952832

   => Energetics <=

    Nuclear Repulsion Energy =            203.6504592161499545
    One-Electron Energy =                -713.5610092825343145
    Two-Electron Energy =                 279.1815735468563275
    DFT Exchange-Correlation Energy =       0.0000000000000000
    Empirical Dispersion Energy =           0.0000000000000000
    Total Energy =                       -230.7289765195280324



Properties will be evaluated at   0.000000,   0.000000,   0.000000 Bohr
  ==> Properties <==


Properties computed using the SCF density density matrix
  Nuclear Dipole Moment: (a.u.)
     X:    -0.1666      Y:    -0.3700      Z:  -206.4695

  Electronic Dipole Moment: (a.u.)
     X:     0.1666      Y:     0.3698      Z:   206.4685

  Dipole Moment: (a.u.)
     X:    -0.0000      Y:    -0.0002      Z:    -0.0009     Total:     0.0010

  Dipole Moment: (Debye)
     X:    -0.0001      Y:    -0.0005      Z:    -0.0024     Total:     0.0024


  Saving occupied orbitals to File 180.

  Saving SAPT 2-MONOMER_A file.

*** tstop() called on node52.bme.utexas.edu at Fri Nov  8 21:11:12 2013
Module time:
	user time   =     200.75 seconds =       3.35 minutes
	system time =       1.71 seconds =       0.03 minutes
	total time  =         54 seconds =       0.90 minutes
Total time:
	user time   =     633.52 seconds =      10.56 minutes
	system time =       5.53 seconds =       0.09 minutes
	total time  =        170 seconds =       2.83 minutes

  //>>>>>>>>>>>>>>>>>>>>>>>>>>>>>>>>>>>//
  //            Monomer B HF           //
  //<<<<<<<<<<<<<<<<<<<<<<<<<<<<<<<<<<<//


  No DF_BASIS_SCF auxiliary basis selected, defaulting to aug-cc-pvdz-jkfit


*** tstart() called on node52.bme.utexas.edu
*** at Fri Nov  8 21:11:12 2013


         ---------------------------------------------------------
                                   SCF
            by Justin Turney, Rob Parrish, and Andy Simmonett
                              RHF Reference
                        4 Threads,   7000 MiB Core
         ---------------------------------------------------------

  ==> Geometry <==

    Molecular point group: c1
    Full point group: C1

    Geometry (in Angstrom), charge = 0, multiplicity = 1:

       Center              X                  Y                   Z       
    ------------   -----------------  -----------------  -----------------
           C(Gh)      0.849264535183     1.085077456416    -2.425286039583
           H(Gh)      1.510593338183     1.930380546416    -2.291358588583
           C(Gh)      1.379696647183    -0.190296572584    -2.613580005583
           H(Gh)      2.451371001183    -0.334313812584    -2.621888615583
           C(Gh)      0.528255434183    -1.279885550584    -2.791548614583
           H(Gh)      0.939914593183    -2.268867640584    -2.939817891583
           C(Gh)     -0.853528401817    -1.094304641584    -2.778356854583
           H(Gh)     -1.514193856817    -1.939299288584    -2.916377688583
           C(Gh)     -1.383858362817     0.180793149416    -2.587127445583
           H(Gh)     -2.455530191817     0.324574635416    -2.574708647583
           C(Gh)     -0.532425815817     1.270580972416    -2.412002120583
           H(Gh)     -0.944736931817     2.259965043416    -2.267374593583
           N          0.023806700183     0.322787518416     3.927275204417
           C          0.178490520183     1.260749123416     2.982398324417
           H          0.320261347183     2.273275128416     3.340300050417
           C          0.164281253183     0.993459358416     1.615898886417
           H          0.294521311183     1.794485156416     0.902013474417
           C         -0.020057057817    -0.318170326584     1.190608455417
           H         -0.036623510817    -0.561288993584     0.137260522417
           C         -0.181905983817    -1.303204659584     2.159467544417
           H         -0.328449004817    -2.338415627584     1.884696030417
           C         -0.152703510817    -0.935871558584     3.502557050417
           H         -0.276299644817    -1.683385527584     4.276658047417

  Running in c1 symmetry.

  Nuclear repulsion =  206.224593595557934

  Charge       = 0
  Multiplicity = 1
  Electrons    = 42
  Nalpha       = 21
  Nbeta        = 21

  ==> Algorithm <==

  SCF Algorithm Type is DF.
  DIIS enabled.
  MOM disabled.
  Fractional occupation disabled.
  Guess Type is CORE.
  Energy threshold   = 1.00e-08
  Density threshold  = 1.00e-08
  Integral threshold = 0.00e+00

  ==> Primary Basis <==

  Basis Set: AUG-CC-PVDZ
    Number of shells: 163
    Number of basis function: 375
    Number of Cartesian functions: 399
    Spherical Harmonics?: true
    Max angular momentum: 2

  ==> Pre-Iterations <==

   -------------------------------------------------------
    Irrep   Nso     Nmo     Nalpha   Nbeta   Ndocc  Nsocc
   -------------------------------------------------------
     A        375     375       0       0       0       0
   -------------------------------------------------------
    Total     375     375      21      21      21       0
   -------------------------------------------------------

 OEINTS: Wrapper to libmints.
   by Justin Turney

   Calculation information:
      Number of atoms:                  23
      Number of AO shells:             163
      Number of SO shells:             163
      Number of primitives:            377
      Number of atomic orbitals:       399
      Number of basis functions:       375

      Number of irreps:                  1
      Number of functions per irrep: [ 375 ]

      Overlap, kinetic, potential, dipole, and quadrupole integrals
        stored in file 35.

  ==> Integral Setup <==

  ==> DFJK: Density-Fitted J/K Matrices <==

    J tasked:                  Yes
    K tasked:                  Yes
    wK tasked:                  No
    OpenMP threads:              4
    Integrals threads:           4
    Memory (MB):              5006
    Algorithm:                Core
    Integral Cache:           LOAD
    Schwarz Cutoff:          0E+00
    Fitting Condition:       1E-12

   => Auxiliary Basis Set <=

  Basis Set: aug-cc-pvdz-jkfit
    Number of shells: 468
    Number of basis function: 1384
    Number of Cartesian functions: 1597
    Spherical Harmonics?: true
    Max angular momentum: 3

  Minimum eigenvalue in the overlap matrix is 2.3310901853E-06.
  Using Symmetric Orthogonalization.
  SCF Guess: Core (One-Electron) Hamiltonian.

  Guess energy:  -190.84423706789843

  ==> Iterations <==

                        Total Energy        Delta E     RMS |[F,P]|

   @RHF iter   1:  -206.35962346454622   -2.06360e+02   1.60390e-02 
   @RHF iter   2:  -177.81411995400711    2.85455e+01   1.51638e-02 DIIS
   @RHF iter   3:  -237.34777540074739   -5.95337e+01   8.18166e-03 DIIS
   @RHF iter   4:  -244.17611529400702   -6.82834e+00   5.88457e-03 DIIS
   @RHF iter   5:  -246.38586523855318   -2.20975e+00   1.94200e-03 DIIS
   @RHF iter   6:  -246.67575247172468   -2.89887e-01   6.58368e-04 DIIS
   @RHF iter   7:  -246.71448537186805   -3.87329e-02   2.87165e-04 DIIS
   @RHF iter   8:  -246.72375797987488   -9.27261e-03   4.29572e-05 DIIS
   @RHF iter   9:  -246.72407927266320   -3.21293e-04   1.66556e-05 DIIS
   @RHF iter  10:  -246.72412015892579   -4.08863e-05   6.90224e-06 DIIS
   @RHF iter  11:  -246.72412445114779   -4.29222e-06   3.24171e-06 DIIS
   @RHF iter  12:  -246.72412589988292   -1.44874e-06   8.14847e-07 DIIS
   @RHF iter  13:  -246.72412602392805   -1.24045e-07   4.45221e-07 DIIS
   @RHF iter  14:  -246.72412606418280   -4.02547e-08   2.04255e-07 DIIS
   @RHF iter  15:  -246.72412608003313   -1.58503e-08   6.05775e-08 DIIS
   @RHF iter  16:  -246.72412608138998   -1.35685e-09   1.52529e-08 DIIS
   @RHF iter  17:  -246.72412608143563   -4.56453e-11   5.25053e-09 DIIS

  ==> Post-Iterations <==

	Orbital Energies (a.u.)
	-----------------------

	Doubly Occupied:                                                      

	   1A    -15.575988     2A    -11.282020     3A    -11.282001  
	   4A    -11.266696     5A    -11.248871     6A    -11.248692  
	   7A     -1.260383     8A     -1.093102     9A     -1.036325  
	  10A     -0.861480    11A     -0.858156    12A     -0.723101  
	  13A     -0.661761    14A     -0.655100    15A     -0.598755  
	  16A     -0.578648    17A     -0.541099    18A     -0.519628  
	  19A     -0.419940    20A     -0.383925    21A     -0.347719  

	Virtual:                                                              

	  22A      0.017749    23A      0.031506    24A      0.035044  
	  25A      0.040893    26A      0.049667    27A      0.054544  
	  28A      0.054772    29A      0.059910    30A      0.072888  
	  31A      0.074924    32A      0.076264    33A      0.085859  
	  34A      0.089628    35A      0.102074    36A      0.103895  
	  37A      0.105519    38A      0.106685    39A      0.113665  
	  40A      0.119694    41A      0.124534    42A      0.129873  
	  43A      0.136928    44A      0.138590    45A      0.141603  
	  46A      0.144456    47A      0.152209    48A      0.153668  
	  49A      0.158926    50A      0.163323    51A      0.166360  
	  52A      0.168736    53A      0.175346    54A      0.176117  
	  55A      0.177585    56A      0.180580    57A      0.185195  
	  58A      0.185587    59A      0.189258    60A      0.191423  
	  61A      0.194046    62A      0.209024    63A      0.215397  
	  64A      0.216568    65A      0.229392    66A      0.230485  
	  67A      0.232868    68A      0.233165    69A      0.242128  
	  70A      0.248253    71A      0.263352    72A      0.267326  
	  73A      0.284222    74A      0.284515    75A      0.292227  
	  76A      0.297565    77A      0.300495    78A      0.320835  
	  79A      0.324831    80A      0.325613    81A      0.333353  
	  82A      0.333433    83A      0.334222    84A      0.347738  
	  85A      0.350095    86A      0.353111    87A      0.364780  
	  88A      0.377361    89A      0.380236    90A      0.381718  
	  91A      0.385512    92A      0.395425    93A      0.397786  
	  94A      0.400771    95A      0.405776    96A      0.415947  
	  97A      0.420554    98A      0.430342    99A      0.432307  
	 100A      0.433534   101A      0.436785   102A      0.443737  
	 103A      0.452157   104A      0.460366   105A      0.462717  
	 106A      0.463158   107A      0.465944   108A      0.483296  
	 109A      0.487582   110A      0.489737   111A      0.494111  
	 112A      0.511077   113A      0.516529   114A      0.525737  
	 115A      0.533761   116A      0.539526   117A      0.544006  
	 118A      0.548918   119A      0.549619   120A      0.553542  
	 121A      0.558312   122A      0.571308   123A      0.585117  
	 124A      0.587061   125A      0.592754   126A      0.608414  
	 127A      0.609618   128A      0.621810   129A      0.623428  
	 130A      0.625229   131A      0.627157   132A      0.631604  
	 133A      0.641349   134A      0.643306   135A      0.648425  
	 136A      0.662994   137A      0.668716   138A      0.681055  
	 139A      0.684315   140A      0.694591   141A      0.695502  
	 142A      0.698701   143A      0.703027   144A      0.710227  
	 145A      0.713361   146A      0.723356   147A      0.727038  
	 148A      0.747054   149A      0.750228   150A      0.753854  
	 151A      0.761048   152A      0.767448   153A      0.777633  
	 154A      0.781636   155A      0.783377   156A      0.788507  
	 157A      0.802250   158A      0.806526   159A      0.818282  
	 160A      0.830445   161A      0.833796   162A      0.837910  
	 163A      0.845991   164A      0.857684   165A      0.864315  
	 166A      0.869810   167A      0.871919   168A      0.877201  
	 169A      0.884684   170A      0.889910   171A      0.890607  
	 172A      0.901161   173A      0.907583   174A      0.908677  
	 175A      0.912301   176A      0.924239   177A      0.933617  
	 178A      0.933992   179A      0.939787   180A      0.947424  
	 181A      0.948189   182A      0.969530   183A      0.978242  
	 184A      0.982947   185A      0.996986   186A      1.002910  
	 187A      1.007834   188A      1.012170   189A      1.024574  
	 190A      1.026991   191A      1.031539   192A      1.032886  
	 193A      1.053101   194A      1.060072   195A      1.061959  
	 196A      1.072272   197A      1.090334   198A      1.091238  
	 199A      1.109748   200A      1.116586   201A      1.120337  
	 202A      1.121222   203A      1.130526   204A      1.140339  
	 205A      1.160900   206A      1.185825   207A      1.187530  
	 208A      1.202741   209A      1.230816   210A      1.247595  
	 211A      1.251998   212A      1.259054   213A      1.274519  
	 214A      1.285516   215A      1.319967   216A      1.383739  
	 217A      1.392140   218A      1.400301   219A      1.400742  
	 220A      1.405360   221A      1.435101   222A      1.478820  
	 223A      1.482882   224A      1.484880   225A      1.485355  
	 226A      1.500613   227A      1.545653   228A      1.565538  
	 229A      1.577378   230A      1.595587   231A      1.624311  
	 232A      1.635642   233A      1.662035   234A      1.669411  
	 235A      1.673094   236A      1.673696   237A      1.694794  
	 238A      1.703228   239A      1.741998   240A      1.746934  
	 241A      1.764177   242A      1.775235   243A      1.807020  
	 244A      1.807724   245A      1.830828   246A      1.839982  
	 247A      1.856259   248A      1.944337   249A      1.954113  
	 250A      1.963019   251A      1.970437   252A      1.976906  
	 253A      2.046302   254A      2.055092   255A      2.070875  
	 256A      2.089302   257A      2.098824   258A      2.116795  
	 259A      2.120130   260A      2.133694   261A      2.136564  
	 262A      2.148835   263A      2.151852   264A      2.164706  
	 265A      2.194857   266A      2.205616   267A      2.215174  
	 268A      2.221326   269A      2.228785   270A      2.235001  
	 271A      2.246569   272A      2.256349   273A      2.259488  
	 274A      2.277897   275A      2.288716   276A      2.292686  
	 277A      2.297713   278A      2.304761   279A      2.316910  
	 280A      2.324830   281A      2.337458   282A      2.356014  
	 283A      2.363530   284A      2.378633   285A      2.383380  
	 286A      2.432751   287A      2.452080   288A      2.454450  
	 289A      2.457133   290A      2.495809   291A      2.502351  
	 292A      2.506503   293A      2.515000   294A      2.516131  
	 295A      2.524323   296A      2.562594   297A      2.569213  
	 298A      2.571771   299A      2.601119   300A      2.621732  
	 301A      2.630336   302A      2.652553   303A      2.653697  
	 304A      2.656523   305A      2.664438   306A      2.672403  
	 307A      2.694423   308A      2.703832   309A      2.708456  
	 310A      2.721310   311A      2.750321   312A      2.753825  
	 313A      2.785700   314A      2.829102   315A      2.858548  
	 316A      2.860088   317A      2.867469   318A      2.872525  
	 319A      2.887291   320A      2.889007   321A      2.905064  
	 322A      2.924645   323A      2.945143   324A      2.950164  
	 325A      2.987861   326A      3.005919   327A      3.024755  
	 328A      3.043632   329A      3.137890   330A      3.147689  
	 331A      3.165674   332A      3.191352   333A      3.252421  
	 334A      3.277917   335A      3.329634   336A      3.396731  
	 337A      3.405694   338A      3.409709   339A      3.414176  
	 340A      3.430407   341A      3.441661   342A      3.466129  
	 343A      3.475026   344A      3.502119   345A      3.504566  
	 346A      3.517796   347A      3.533006   348A      3.556140  
	 349A      3.671291   350A      3.690230   351A      3.708238  
	 352A      3.949737   353A      3.981508   354A      3.987998  
	 355A      4.014283   356A      4.102246   357A      4.327151  
	 358A      4.381119   359A      4.401764   360A      4.668386  
	 361A      4.847393   362A      4.857679   363A      5.299746  
	 364A      5.447811   365A      5.449463   366A      5.467259  
	 367A      5.468628   368A      5.640565   369A      6.079825  
	 370A     18.005219   371A     18.392952   372A     18.401957  
	 373A     19.002023   374A     19.008599   375A     20.681147  

	Final Occupation by Irrep:
	          A 
	DOCC [    21 ]

  Energy converged.

  @RHF Final Energy:  -246.72412608143563

   => Energetics <=

    Nuclear Repulsion Energy =            206.2245935955579341
    One-Electron Energy =                -741.0106614083748582
    Two-Electron Energy =                 288.0619417313828876
    DFT Exchange-Correlation Energy =       0.0000000000000000
    Empirical Dispersion Energy =           0.0000000000000000
    Total Energy =                       -246.7241260814340080



Properties will be evaluated at   0.000000,   0.000000,   0.000000 Bohr
  ==> Properties <==


Properties computed using the SCF density density matrix
  Nuclear Dipole Moment: (a.u.)
     X:     0.1298      Y:    -0.1399      Z:   201.7045

  Electronic Dipole Moment: (a.u.)
     X:    -0.1442      Y:    -0.0705      Z:  -202.6026

  Dipole Moment: (a.u.)
     X:    -0.0144      Y:    -0.2104      Z:    -0.8981     Total:     0.9225

  Dipole Moment: (Debye)
     X:    -0.0367      Y:    -0.5349      Z:    -2.2826     Total:     2.3448


  Saving occupied orbitals to File 180.

  Saving SAPT 2-MONOMER_B file.

*** tstop() called on node52.bme.utexas.edu at Fri Nov  8 21:12:21 2013
Module time:
	user time   =     261.55 seconds =       4.36 minutes
	system time =       1.94 seconds =       0.03 minutes
	total time  =         69 seconds =       1.15 minutes
Total time:
	user time   =     895.09 seconds =      14.92 minutes
	system time =       7.47 seconds =       0.12 minutes
	total time  =        239 seconds =       3.98 minutes
  No DF_BASIS_SAPT auxiliary basis selected, defaulting to aug-cc-pvdz-ri

  //>>>>>>>>>>>>>>>>>>>>>>>>>>>>>>>>>>>//
  //               SAPT2+              //
  //<<<<<<<<<<<<<<<<<<<<<<<<<<<<<<<<<<<//


*** tstart() called on node52.bme.utexas.edu
*** at Fri Nov  8 21:12:21 2013

        SAPT2+  
    Ed Hohenstein
     6 June 2009

      Orbital Information
  --------------------------
    NSO        =       375
    NMO        =       375
    NRI        =      1117
    NOCC A     =        21
    NOCC B     =        21
    FOCC A     =         6
    FOCC B     =         6
    NVIR A     =       354
    NVIR B     =       354

    Estimated memory usage: 2446.2 MB

    Elst10,r            =    -0.002580338878 H
    Exch10 (S^2)        =     0.002821252005 H
    Exch10              =     0.002824398032 H
    Ind20,r (A<-B)      =    -0.000516912678 H
    Ind20,r (B<-A)      =    -0.000327873338 H
    Ind20,r             =    -0.000844786015 H
    Exch-Ind20,r (A<-B) =     0.000310638099 H
    Exch-Ind20,r (B<-A) =     0.000191682548 H
    Exch-Ind20,r        =     0.000502320647 H
    Disp20              =    -0.005966140506 H
    Exch-Disp20         =     0.000416716022 H
    Elst12,r            =     0.000273758072 H
    Exch11              =     0.000036230620 H
    Exch12              =     0.000284792605 H
    Ind22               =    -0.000043386460 H
    Disp21              =     0.001446817993 H
    Disp22 (SDQ)        =     0.000123642470 H

    (i =   1 of  15)       1395 seconds
    (i =   2 of  15)       2791 seconds
    (i =   3 of  15)       4187 seconds
    (i =   4 of  15)       5585 seconds
    (i =   5 of  15)       6982 seconds
    (i =   6 of  15)       8384 seconds
    (i =   7 of  15)       9781 seconds
    (i =   8 of  15)      11178 seconds
    (i =   9 of  15)      12578 seconds
    (i =  10 of  15)      13979 seconds
    (i =  11 of  15)      15376 seconds
    (i =  12 of  15)      16774 seconds
    (i =  13 of  15)      18170 seconds
    (i =  14 of  15)      19565 seconds
    (i =  15 of  15)      20960 seconds

    Disp220 (T)         =    -0.000612631360 H

    (i =   1 of  15)       1395 seconds
    (i =   2 of  15)       2790 seconds
    (i =   3 of  15)       4185 seconds
    (i =   4 of  15)       5580 seconds
    (i =   5 of  15)       6977 seconds
    (i =   6 of  15)       8373 seconds
    (i =   7 of  15)       9769 seconds
    (i =   8 of  15)      11166 seconds
    (i =   9 of  15)      12562 seconds
    (i =  10 of  15)      13958 seconds
    (i =  11 of  15)      15355 seconds
    (i =  12 of  15)      16751 seconds
    (i =  13 of  15)      18147 seconds
    (i =  14 of  15)      19543 seconds
    (i =  15 of  15)      20940 seconds

    Disp202 (T)         =    -0.000592653003 H

    Disp22 (T)          =    -0.001205284362 H

    SAPT Results  
  -----------------------------------------------------------------------
    Electrostatics          -2.30658081 mH      -1.44740137 kcal mol^-1
      Elst10,r              -2.58033888 mH      -1.61918716 kcal mol^-1
      Elst12,r               0.27375807 mH       0.17178579 kcal mol^-1

    Exchange                 3.14542126 mH       1.97378172 kcal mol^-1
      Exch10                 2.82439803 mH       1.77233660 kcal mol^-1
      Exch10(S^2)            2.82125200 mH       1.77036243 kcal mol^-1
      Exch11(S^2)            0.03623062 mH       0.02273506 kcal mol^-1
      Exch12(S^2)            0.28479260 mH       0.17871007 kcal mol^-1

    Induction               -0.66016318 mH      -0.41425867 kcal mol^-1
      Ind20,r               -0.84478602 mH      -0.53011125 kcal mol^-1
      Ind22                 -0.04338646 mH      -0.02722542 kcal mol^-1
      Exch-Ind20,r           0.50232065 mH       0.31521098 kcal mol^-1
      Exch-Ind22             0.02579815 mH       0.01618858 kcal mol^-1
      delta HF,r (2)        -0.30010950 mH      -0.18832156 kcal mol^-1

    Dispersion              -5.18424838 mH      -3.25316511 kcal mol^-1
      Disp20                -5.96614051 mH      -3.74380985 kcal mol^-1
      Disp21                 1.44681799 mH       0.90789204 kcal mol^-1
      Disp22 (SDQ)           0.12364247 mH       0.07758682 kcal mol^-1
      Disp22 (T)            -1.20528436 mH      -0.75632739 kcal mol^-1
      Exch-Disp20            0.41671602 mH       0.26149326 kcal mol^-1

    Total HF                -0.39851572 mH      -0.25007240 kcal mol^-1
    Total SAPT0             -5.94794020 mH      -3.73238898 kcal mol^-1
    Total SAPT2             -5.37074721 mH      -3.37019490 kcal mol^-1
    Total SAPT2+            -5.00557111 mH      -3.14104343 kcal mol^-1

*** tstop() called on node52.bme.utexas.edu at Sat Nov  9 09:49:14 2013
Module time:
	user time   =  160021.07 seconds =    2667.02 minutes
	system time =     283.39 seconds =       4.72 minutes
	total time  =      45413 seconds =     756.88 minutes
Total time:
	user time   =  160916.16 seconds =    2681.94 minutes
	system time =     290.86 seconds =       4.85 minutes
	total time  =      45652 seconds =     760.87 minutes

*** PSI4 exiting successfully. Buy a developer a beer!
