
    -----------------------------------------------------------------------
          Psi4: An Open-Source Ab Initio Electronic Structure Package
                               Psi4 1.4a2.dev224 

                         Git: Rev {master} e453b16 


    R. M. Parrish, L. A. Burns, D. G. A. Smith, A. C. Simmonett,
    A. E. DePrince III, E. G. Hohenstein, U. Bozkaya, A. Yu. Sokolov,
    R. Di Remigio, R. M. Richard, J. F. Gonthier, A. M. James,
    H. R. McAlexander, A. Kumar, M. Saitow, X. Wang, B. P. Pritchard,
    P. Verma, H. F. Schaefer III, K. Patkowski, R. A. King, E. F. Valeev,
    F. A. Evangelista, J. M. Turney, T. D. Crawford, and C. D. Sherrill,
    J. Chem. Theory Comput. 13(7) pp 3185--3197 (2017).
    (doi: 10.1021/acs.jctc.7b00174)


                         Additional Contributions by
    P. Kraus, H. Kruse, M. H. Lechner, M. C. Schieber, R. A. Shaw,
    A. Alenaizan, R. Galvelis, Z. L. Glick, S. Lehtola, and J. P. Misiewicz

    -----------------------------------------------------------------------


    Psi4 started on: Thursday, 23 April 2020 05:32PM

    Process ID: 45662
    Host:       node97.bme.utexas.edu
    PSIDATADIR: /home/liuchw/anaconda3/envs/psi4env/share/psi4
    Memory:     500.0 MiB
    Threads:    8
    
  ==> Input File <==

--------------------------------------------------------------------------
#Generated by lconvert.py for sapt job

memory 20 GB

molecule  {
0 1
  C       0.845080    1.057920    0.699460
  H       1.506410    1.903220    0.833380
  C       1.375510   -0.217460    0.511160
  H       2.447180   -0.361470    0.502850
  C       0.524070   -1.307040    0.333190
  H       0.935730   -2.296030    0.184920
  C      -0.857720   -1.121460    0.346380
  H      -1.518380   -1.966460    0.208360
  C      -1.388050    0.153630    0.537610
  H      -2.459720    0.297420    0.550030
  C      -0.536610    1.243420    0.712740
  H      -0.948920    2.232810    0.857370
--
0 1
  N       0.010350    0.146240    7.787030
  C       0.165040    1.084200    6.842150
  H       0.306810    2.096720    7.200050
  C       0.150830    0.816910    5.475650
  H       0.281070    1.617930    4.761770
  C      -0.033510   -0.494720    5.050360
  H      -0.050080   -0.737840    3.997020
  C      -0.195360   -1.479750    6.019220
  H      -0.341900   -2.514970    5.744450
  C      -0.166160   -1.112420    7.362310
  H      -0.289750   -1.859940    8.136410
units angstrom
no_reorient
symmetry c1
}

set {
scf_type DF
basis aug-cc-pvdz
freeze_core True
guess SAD
}
energy('sapt2+')
--------------------------------------------------------------------------

  Memory set to  18.626 GiB by Python driver.

Scratch directory: /scratch/liuchw/

  //>>>>>>>>>>>>>>>>>>>>>>>>>>>>>>>>>>>//
  //              Dimer HF             //
  //<<<<<<<<<<<<<<<<<<<<<<<<<<<<<<<<<<<//


*** tstart() called on node97.bme.utexas.edu
*** at Thu Apr 23 17:32:58 2020

   => Loading Basis Set <=

    Name: AUG-CC-PVDZ
    Role: ORBITAL
    Keyword: BASIS
    atoms 1, 3, 5, 7, 9, 11, 14, 16, 18, 20, 22  entry C          line   182 file /home/liuchw/anaconda3/envs/psi4env/share/psi4/basis/aug-cc-pvdz.gbs 
    atoms 2, 4, 6, 8, 10, 12, 15, 17, 19, 21, 23 entry H          line    40 file /home/liuchw/anaconda3/envs/psi4env/share/psi4/basis/aug-cc-pvdz.gbs 
    atoms 13                                     entry N          line   218 file /home/liuchw/anaconda3/envs/psi4env/share/psi4/basis/aug-cc-pvdz.gbs 


         ---------------------------------------------------------
                                   SCF
               by Justin Turney, Rob Parrish, Andy Simmonett
                          and Daniel G. A. Smith
                              RHF Reference
                        8 Threads,  19073 MiB Core
         ---------------------------------------------------------

  ==> Geometry <==

    Molecular point group: c1
    Full point group: C1

    Geometry (in Angstrom), charge = 0, multiplicity = 1:

       Center              X                  Y                   Z               Mass       
    ------------   -----------------  -----------------  -----------------  -----------------
         C            0.853929800083     1.160247063630    -2.795114721685    12.000000000000
         H            1.515259800083     2.005547063630    -2.661194721685     1.007825032230
         C            1.384359800083    -0.115132936370    -2.983414721685    12.000000000000
         H            2.456029800083    -0.259142936370    -2.991724721685     1.007825032230
         C            0.532919800083    -1.204712936370    -3.161384721685    12.000000000000
         H            0.944579800083    -2.193702936370    -3.309654721685     1.007825032230
         C           -0.848870199917    -1.019132936370    -3.148194721685    12.000000000000
         H           -1.509530199917    -1.864132936370    -3.286214721685     1.007825032230
         C           -1.379200199917     0.255957063630    -2.956964721685    12.000000000000
         H           -2.450870199917     0.399747063630    -2.944544721685     1.007825032230
         C           -0.527760199917     1.345747063630    -2.781834721685    12.000000000000
         H           -0.940070199917     2.335137063630    -2.637204721685     1.007825032230
         N            0.019199800083     0.248567063630     4.292455278315    14.003074004430
         C            0.173889800083     1.186527063630     3.347575278315    12.000000000000
         H            0.315659800083     2.199047063630     3.705475278315     1.007825032230
         C            0.159679800083     0.919237063630     1.981075278315    12.000000000000
         H            0.289919800083     1.720257063630     1.267195278315     1.007825032230
         C           -0.024660199917    -0.392392936370     1.555785278315    12.000000000000
         H           -0.041230199917    -0.635512936370     0.502445278315     1.007825032230
         C           -0.186510199917    -1.377422936370     2.524645278315    12.000000000000
         H           -0.333050199917    -2.412642936370     2.249875278315     1.007825032230
         C           -0.157310199917    -1.010092936370     3.867735278315    12.000000000000
         H           -0.280900199917    -1.757612936370     4.641835278315     1.007825032230

  Running in c1 symmetry.

  Rotational constants: A =      0.06512  B =      0.01090  C =      0.01035 [cm^-1]
  Rotational constants: A =   1952.30862  B =    326.68452  C =    310.28183 [MHz]
  Nuclear repulsion =  565.651399898798786

  Charge       = 0
  Multiplicity = 1
  Electrons    = 84
  Nalpha       = 42
  Nbeta        = 42

  ==> Algorithm <==

  SCF Algorithm Type is DF.
  DIIS enabled.
  MOM disabled.
  Fractional occupation disabled.
  Guess Type is SAD.
  Energy threshold   = 1.00e-08
  Density threshold  = 1.00e-08
  Integral threshold = 0.00e+00

  ==> Primary Basis <==

  Basis Set: AUG-CC-PVDZ
    Blend: AUG-CC-PVDZ
    Number of shells: 163
    Number of basis function: 375
    Number of Cartesian functions: 399
    Spherical Harmonics?: true
    Max angular momentum: 2

   => Loading Basis Set <=

    Name: (AUG-CC-PVDZ AUX)
    Role: JKFIT
    Keyword: DF_BASIS_SCF
    atoms 1, 3, 5, 7, 9, 11, 14, 16, 18, 20, 22  entry C          line   154 file /home/liuchw/anaconda3/envs/psi4env/share/psi4/basis/aug-cc-pvdz-jkfit.gbs 
    atoms 2, 4, 6, 8, 10, 12, 15, 17, 19, 21, 23 entry H          line    70 file /home/liuchw/anaconda3/envs/psi4env/share/psi4/basis/aug-cc-pvdz-jkfit.gbs 
    atoms 13                                     entry N          line   212 file /home/liuchw/anaconda3/envs/psi4env/share/psi4/basis/aug-cc-pvdz-jkfit.gbs 

  ==> Pre-Iterations <==

   -------------------------------------------------------
    Irrep   Nso     Nmo     Nalpha   Nbeta   Ndocc  Nsocc
   -------------------------------------------------------
     A        375     375       0       0       0       0
   -------------------------------------------------------
    Total     375     375      42      42      42       0
   -------------------------------------------------------

  ==> Integral Setup <==

  ==> DiskDFJK: Density-Fitted J/K Matrices <==

    J tasked:                  Yes
    K tasked:                  Yes
    wK tasked:                  No
    OpenMP threads:              8
    Integrals threads:           8
    Memory [MiB]:            14305
    Algorithm:                Core
    Integral Cache:           SAVE
    Schwarz Cutoff:          1E-12
    Fitting Condition:       1E-10

   => Auxiliary Basis Set <=

  Basis Set: (AUG-CC-PVDZ AUX)
    Blend: AUG-CC-PVDZ-JKFIT
    Number of shells: 468
    Number of basis function: 1384
    Number of Cartesian functions: 1597
    Spherical Harmonics?: true
    Max angular momentum: 3

  Minimum eigenvalue in the overlap matrix is 2.3313550320E-06.
  Using Symmetric Orthogonalization.

  SCF Guess: Superposition of Atomic Densities via on-the-fly atomic UHF.

  ==> Iterations <==

                           Total Energy        Delta E     RMS |[F,P]|

   @DF-RHF iter SAD:  -476.28260849886487   -4.76283e+02   0.00000e+00 
   @DF-RHF iter   1:  -477.13917388829793   -8.56565e-01   1.84855e-03 DIIS
   @DF-RHF iter   2:  -477.39567785344320   -2.56504e-01   8.66590e-04 DIIS
   @DF-RHF iter   3:  -477.45058919411775   -5.49113e-02   1.53339e-04 DIIS
   @DF-RHF iter   4:  -477.45334173806788   -2.75254e-03   3.21827e-05 DIIS
   @DF-RHF iter   5:  -477.45342414889660   -8.24108e-05   1.20627e-05 DIIS
   @DF-RHF iter   6:  -477.45343620638175   -1.20575e-05   3.05315e-06 DIIS
   @DF-RHF iter   7:  -477.45343711101890   -9.04637e-07   9.50521e-07 DIIS
   @DF-RHF iter   8:  -477.45343722373923   -1.12720e-07   3.61567e-07 DIIS
   @DF-RHF iter   9:  -477.45343724837295   -2.46337e-08   1.23741e-07 DIIS
   @DF-RHF iter  10:  -477.45343725168914   -3.31619e-09   5.05376e-08 DIIS
   @DF-RHF iter  11:  -477.45343725261165   -9.22512e-10   2.06996e-08 DIIS
   @DF-RHF iter  12:  -477.45343725277706   -1.65414e-10   8.74455e-09 DIIS
  Energy and wave function converged.


  ==> Post-Iterations <==

    Orbital Energies [Eh]
    ---------------------

    Doubly Occupied:                                                      

       1A    -15.571263     2A    -11.277458     3A    -11.277352  
       4A    -11.260000     5A    -11.249478     6A    -11.248968  
       7A    -11.248865     8A    -11.247752     9A    -11.247643  
      10A    -11.247101    11A    -11.243613    12A    -11.243087  
      13A     -1.255672    14A     -1.160345    15A     -1.087343  
      16A     -1.031416    17A     -1.024475    18A     -1.024416  
      19A     -0.855866    20A     -0.853084    21A     -0.832922  
      22A     -0.832804    23A     -0.717541    24A     -0.717440  
      25A     -0.656512    26A     -0.651815    27A     -0.649972  
      28A     -0.626796    29A     -0.595679    30A     -0.595566  
      31A     -0.593890    32A     -0.572099    33A     -0.536329  
      34A     -0.514597    35A     -0.509261    36A     -0.501718  
      37A     -0.501696    38A     -0.415258    39A     -0.378362  
      40A     -0.344017    41A     -0.343823    42A     -0.342886  

    Virtual:                                                              

      43A      0.029100    44A      0.035263    45A      0.039571  
      46A      0.044226    47A      0.051004    48A      0.054246  
      49A      0.054617    50A      0.061752    51A      0.073605  
      52A      0.075074    53A      0.084152    54A      0.090682  
      55A      0.098267    56A      0.101603    57A      0.112341  
      58A      0.114198    59A      0.117316    60A      0.126003  
      61A      0.126937    62A      0.133571    63A      0.136500  
      64A      0.138693    65A      0.140251    66A      0.142414  
      67A      0.145505    68A      0.147951    69A      0.149835  
      70A      0.154107    71A      0.158255    72A      0.161297  
      73A      0.162403    74A      0.168560    75A      0.171357  
      76A      0.178022    77A      0.181357    78A      0.185775  
      79A      0.186191    80A      0.186530    81A      0.189519  
      82A      0.194700    83A      0.195177    84A      0.203164  
      85A      0.210284    86A      0.215474    87A      0.230240  
      88A      0.230826    89A      0.238185    90A      0.248482  
      91A      0.249197    92A      0.263498    93A      0.286050  
      94A      0.287070    95A      0.294500    96A      0.298658  
      97A      0.302291    98A      0.311423    99A      0.317183  
     100A      0.318161   101A      0.328063   102A      0.331323  
     103A      0.334117   104A      0.335528   105A      0.342053  
     106A      0.343067   107A      0.351798   108A      0.355923  
     109A      0.359738   110A      0.363003   111A      0.366860  
     112A      0.370265   113A      0.371423   114A      0.380028  
     115A      0.380382   116A      0.385163   117A      0.389871  
     118A      0.393566   119A      0.410801   120A      0.413658  
     121A      0.423753   122A      0.427362   123A      0.434063  
     124A      0.435504   125A      0.439442   126A      0.440905  
     127A      0.441873   128A      0.457364   129A      0.461743  
     130A      0.464292   131A      0.483917   132A      0.490265  
     133A      0.502114   134A      0.503995   135A      0.518830  
     136A      0.520592   137A      0.540499   138A      0.547756  
     139A      0.552580   140A      0.562065   141A      0.566605  
     142A      0.574555   143A      0.582360   144A      0.585975  
     145A      0.589939   146A      0.590632   147A      0.597340  
     148A      0.598053   149A      0.601386   150A      0.602498  
     151A      0.607235   152A      0.612608   153A      0.620892  
     154A      0.623530   155A      0.627171   156A      0.636239  
     157A      0.648730   158A      0.659954   159A      0.662475  
     160A      0.677292   161A      0.677594   162A      0.679126  
     163A      0.680393   164A      0.684905   165A      0.691015  
     166A      0.693039   167A      0.695419   168A      0.701383  
     169A      0.704405   170A      0.705455   171A      0.714358  
     172A      0.719683   173A      0.725073   174A      0.727214  
     175A      0.738457   176A      0.748796   177A      0.752302  
     178A      0.755433   179A      0.759386   180A      0.772039  
     181A      0.772974   182A      0.780311   183A      0.786448  
     184A      0.790960   185A      0.805530   186A      0.817185  
     187A      0.834990   188A      0.837982   189A      0.852114  
     190A      0.852710   191A      0.853868   192A      0.864555  
     193A      0.871527   194A      0.882628   195A      0.885369  
     196A      0.896036   197A      0.898068   198A      0.899715  
     199A      0.912413   200A      0.917358   201A      0.924657  
     202A      0.934194   203A      0.935845   204A      0.943431  
     205A      0.947840   206A      0.954416   207A      0.960860  
     208A      0.965062   209A      0.972260   210A      0.973466  
     211A      0.981563   212A      0.987550   213A      1.004482  
     214A      1.018666   215A      1.021956   216A      1.032929  
     217A      1.035924   218A      1.051807   219A      1.061501  
     220A      1.067022   221A      1.073404   222A      1.080101  
     223A      1.092228   224A      1.107700   225A      1.114617  
     226A      1.129186   227A      1.134385   228A      1.169869  
     229A      1.178276   230A      1.186592   231A      1.190809  
     232A      1.192666   233A      1.249209   234A      1.258746  
     235A      1.271481   236A      1.318805   237A      1.348231  
     238A      1.353162   239A      1.374120   240A      1.404866  
     241A      1.427986   242A      1.432041   243A      1.478387  
     244A      1.479492   245A      1.498890   246A      1.529281  
     247A      1.531504   248A      1.534060   249A      1.535032  
     250A      1.543019   251A      1.555871   252A      1.571091  
     253A      1.581663   254A      1.588365   255A      1.605623  
     256A      1.614605   257A      1.619482   258A      1.623044  
     259A      1.628219   260A      1.639542   261A      1.643385  
     262A      1.649841   263A      1.661818   264A      1.675414  
     265A      1.679616   266A      1.693535   267A      1.694595  
     268A      1.706835   269A      1.708954   270A      1.715631  
     271A      1.717436   272A      1.727376   273A      1.741235  
     274A      1.756421   275A      1.763535   276A      1.774329  
     277A      1.789883   278A      1.795397   279A      1.802259  
     280A      1.815869   281A      1.829253   282A      1.839315  
     283A      1.858041   284A      1.862872   285A      1.891729  
     286A      1.893170   287A      1.927247   288A      1.931542  
     289A      1.932827   290A      1.945712   291A      1.958849  
     292A      1.964278   293A      1.964347   294A      1.970780  
     295A      1.974144   296A      1.982882   297A      1.985130  
     298A      1.994596   299A      1.995972   300A      2.062484  
     301A      2.074447   302A      2.100339   303A      2.105936  
     304A      2.108009   305A      2.116129   306A      2.126193  
     307A      2.129084   308A      2.138642   309A      2.153538  
     310A      2.158123   311A      2.198847   312A      2.200885  
     313A      2.209447   314A      2.213806   315A      2.217500  
     316A      2.231979   317A      2.241170   318A      2.249880  
     319A      2.270636   320A      2.278030   321A      2.287396  
     322A      2.291020   323A      2.296271   324A      2.335475  
     325A      2.357089   326A      2.364185   327A      2.367313  
     328A      2.374463   329A      2.374705   330A      2.397307  
     331A      2.443166   332A      2.451570   333A      2.453631  
     334A      2.474610   335A      2.498167   336A      2.560546  
     337A      2.615907   338A      2.628792   339A      2.652692  
     340A      2.676388   341A      2.701050   342A      2.750673  
     343A      2.786838   344A      2.793577   345A      2.797198  
     346A      2.802893   347A      2.810648   348A      2.818714  
     349A      2.857684   350A      2.887863   351A      2.911623  
     352A      2.973076   353A      2.976636   354A      2.977588  
     355A      2.989718   356A      3.011368   357A      3.032319  
     358A      3.138500   359A      3.141764   360A      3.145075  
     361A      3.147443   362A      3.152892   363A      3.157328  
     364A      3.173502   365A      3.284865   366A      3.381698  
     367A      3.406554   368A      3.413656   369A      3.564425  
     370A      3.566516   371A      3.655600   372A      3.689759  
     373A      3.883055   374A      4.320233   375A      4.815765  

    Final Occupation by Irrep:
              A 
    DOCC [    42 ]

  @DF-RHF Final Energy:  -477.45343725277706

   => Energetics <=

    Nuclear Repulsion Energy =            565.6513998987987861
    One-Electron Energy =               -1766.0373111249155045
    Two-Electron Energy =                 722.9324739733395973
    Total Energy =                       -477.4534372527770074

Computation Completed


Properties will be evaluated at   0.000000,   0.000000,   0.000000 [a0]

Properties computed using the SCF density matrix

  Nuclear Dipole Moment: [e a0]
     X:    -0.0321      Y:    -0.4348      Z:    -5.1345

  Electronic Dipole Moment: [e a0]
     X:     0.0157      Y:     0.2272      Z:     4.0898

  Dipole Moment: [e a0]
     X:    -0.0165      Y:    -0.2076      Z:    -1.0447     Total:     1.0653

  Dipole Moment: [D]
     X:    -0.0418      Y:    -0.5277      Z:    -2.6555     Total:     2.7077


*** tstop() called on node97.bme.utexas.edu at Thu Apr 23 17:33:16 2020
Module time:
	user time   =     120.41 seconds =       2.01 minutes
	system time =       2.77 seconds =       0.05 minutes
	total time  =         18 seconds =       0.30 minutes
Total time:
	user time   =     120.41 seconds =       2.01 minutes
	system time =       2.77 seconds =       0.05 minutes
	total time  =         18 seconds =       0.30 minutes

  //>>>>>>>>>>>>>>>>>>>>>>>>>>>>>>>>>>>//
  //            Monomer A HF           //
  //<<<<<<<<<<<<<<<<<<<<<<<<<<<<<<<<<<<//


*** tstart() called on node97.bme.utexas.edu
*** at Thu Apr 23 17:33:16 2020

   => Loading Basis Set <=

    Name: AUG-CC-PVDZ
    Role: ORBITAL
    Keyword: BASIS
    atoms 1, 3, 5, 7, 9, 11, 14, 16, 18, 20, 22  entry C          line   182 file /home/liuchw/anaconda3/envs/psi4env/share/psi4/basis/aug-cc-pvdz.gbs 
    atoms 2, 4, 6, 8, 10, 12, 15, 17, 19, 21, 23 entry H          line    40 file /home/liuchw/anaconda3/envs/psi4env/share/psi4/basis/aug-cc-pvdz.gbs 
    atoms 13                                     entry N          line   218 file /home/liuchw/anaconda3/envs/psi4env/share/psi4/basis/aug-cc-pvdz.gbs 


         ---------------------------------------------------------
                                   SCF
               by Justin Turney, Rob Parrish, Andy Simmonett
                          and Daniel G. A. Smith
                              RHF Reference
                        8 Threads,  19073 MiB Core
         ---------------------------------------------------------

  ==> Geometry <==

    Molecular point group: c1
    Full point group: C1

    Geometry (in Angstrom), charge = 0, multiplicity = 1:

       Center              X                  Y                   Z               Mass       
    ------------   -----------------  -----------------  -----------------  -----------------
         C            0.853929800083     1.160247063630    -2.795114721685    12.000000000000
         H            1.515259800083     2.005547063630    -2.661194721685     1.007825032230
         C            1.384359800083    -0.115132936370    -2.983414721685    12.000000000000
         H            2.456029800083    -0.259142936370    -2.991724721685     1.007825032230
         C            0.532919800083    -1.204712936370    -3.161384721685    12.000000000000
         H            0.944579800083    -2.193702936370    -3.309654721685     1.007825032230
         C           -0.848870199917    -1.019132936370    -3.148194721685    12.000000000000
         H           -1.509530199917    -1.864132936370    -3.286214721685     1.007825032230
         C           -1.379200199917     0.255957063630    -2.956964721685    12.000000000000
         H           -2.450870199917     0.399747063630    -2.944544721685     1.007825032230
         C           -0.527760199917     1.345747063630    -2.781834721685    12.000000000000
         H           -0.940070199917     2.335137063630    -2.637204721685     1.007825032230
      Gh(N)           0.019199800083     0.248567063630     4.292455278315    14.003074004430
      Gh(C)           0.173889800083     1.186527063630     3.347575278315    12.000000000000
      Gh(H)           0.315659800083     2.199047063630     3.705475278315     1.007825032230
      Gh(C)           0.159679800083     0.919237063630     1.981075278315    12.000000000000
      Gh(H)           0.289919800083     1.720257063630     1.267195278315     1.007825032230
      Gh(C)          -0.024660199917    -0.392392936370     1.555785278315    12.000000000000
      Gh(H)          -0.041230199917    -0.635512936370     0.502445278315     1.007825032230
      Gh(C)          -0.186510199917    -1.377422936370     2.524645278315    12.000000000000
      Gh(H)          -0.333050199917    -2.412642936370     2.249875278315     1.007825032230
      Gh(C)          -0.157310199917    -1.010092936370     3.867735278315    12.000000000000
      Gh(H)          -0.280900199917    -1.757612936370     4.641835278315     1.007825032230

  Running in c1 symmetry.

  Rotational constants: A =      0.06512  B =      0.01090  C =      0.01035 [cm^-1]
  Rotational constants: A =   1952.30862  B =    326.68452  C =    310.28183 [MHz]
  Nuclear repulsion =  203.650377054179074

  Charge       = 0
  Multiplicity = 1
  Electrons    = 42
  Nalpha       = 21
  Nbeta        = 21

  ==> Algorithm <==

  SCF Algorithm Type is DF.
  DIIS enabled.
  MOM disabled.
  Fractional occupation disabled.
  Guess Type is SAD.
  Energy threshold   = 1.00e-08
  Density threshold  = 1.00e-08
  Integral threshold = 0.00e+00

  ==> Primary Basis <==

  Basis Set: AUG-CC-PVDZ
    Blend: AUG-CC-PVDZ
    Number of shells: 163
    Number of basis function: 375
    Number of Cartesian functions: 399
    Spherical Harmonics?: true
    Max angular momentum: 2

   => Loading Basis Set <=

    Name: (AUG-CC-PVDZ AUX)
    Role: JKFIT
    Keyword: DF_BASIS_SCF
    atoms 1, 3, 5, 7, 9, 11, 14, 16, 18, 20, 22  entry C          line   154 file /home/liuchw/anaconda3/envs/psi4env/share/psi4/basis/aug-cc-pvdz-jkfit.gbs 
    atoms 2, 4, 6, 8, 10, 12, 15, 17, 19, 21, 23 entry H          line    70 file /home/liuchw/anaconda3/envs/psi4env/share/psi4/basis/aug-cc-pvdz-jkfit.gbs 
    atoms 13                                     entry N          line   212 file /home/liuchw/anaconda3/envs/psi4env/share/psi4/basis/aug-cc-pvdz-jkfit.gbs 

  ==> Pre-Iterations <==

   -------------------------------------------------------
    Irrep   Nso     Nmo     Nalpha   Nbeta   Ndocc  Nsocc
   -------------------------------------------------------
     A        375     375       0       0       0       0
   -------------------------------------------------------
    Total     375     375      21      21      21       0
   -------------------------------------------------------

  ==> Integral Setup <==

  ==> DiskDFJK: Density-Fitted J/K Matrices <==

    J tasked:                  Yes
    K tasked:                  Yes
    wK tasked:                  No
    OpenMP threads:              8
    Integrals threads:           8
    Memory [MiB]:            14305
    Algorithm:                Core
    Integral Cache:           LOAD
    Schwarz Cutoff:          1E-12
    Fitting Condition:       1E-10

   => Auxiliary Basis Set <=

  Basis Set: (AUG-CC-PVDZ AUX)
    Blend: AUG-CC-PVDZ-JKFIT
    Number of shells: 468
    Number of basis function: 1384
    Number of Cartesian functions: 1597
    Spherical Harmonics?: true
    Max angular momentum: 3

  Minimum eigenvalue in the overlap matrix is 2.3313550320E-06.
  Using Symmetric Orthogonalization.

  SCF Guess: Superposition of Atomic Densities via on-the-fly atomic UHF.

  ==> Iterations <==

                           Total Energy        Delta E     RMS |[F,P]|

   @DF-RHF iter SAD:  -230.14523294194098   -2.30145e+02   0.00000e+00 
   @DF-RHF iter   1:  -230.55307397194548   -4.07841e-01   1.37956e-03 DIIS
   @DF-RHF iter   2:  -230.69273272256964   -1.39659e-01   6.75140e-04 DIIS
   @DF-RHF iter   3:  -230.72687305896551   -3.41403e-02   1.07581e-04 DIIS
   @DF-RHF iter   4:  -230.72831673808329   -1.44368e-03   1.15171e-05 DIIS
   @DF-RHF iter   5:  -230.72833748456358   -2.07465e-05   2.16921e-06 DIIS
   @DF-RHF iter   6:  -230.72833825587432   -7.71311e-07   2.32698e-07 DIIS
   @DF-RHF iter   7:  -230.72833826540784   -9.53352e-09   3.64340e-08 DIIS
   @DF-RHF iter   8:  -230.72833826561074   -2.02903e-10   1.76701e-08 DIIS
   @DF-RHF iter   9:  -230.72833826564400   -3.32534e-11   4.08190e-09 DIIS
  Energy and wave function converged.


  ==> Post-Iterations <==

    Orbital Energies [Eh]
    ---------------------

    Doubly Occupied:                                                      

       1A    -11.242325     2A    -11.241782     3A    -11.241750  
       4A    -11.240566     5A    -11.240533     6A    -11.239956  
       7A     -1.152946     8A     -1.017252     9A     -1.017156  
      10A     -0.825835    11A     -0.825746    12A     -0.710417  
      13A     -0.645004    14A     -0.619641    15A     -0.588670  
      16A     -0.588585    17A     -0.501744    18A     -0.494853  
      19A     -0.494695    20A     -0.336317    21A     -0.336289  

    Virtual:                                                              

      22A      0.023674    23A      0.035756    24A      0.037628  
      25A      0.041740    26A      0.048848    27A      0.055634  
      28A      0.057189    29A      0.057568    30A      0.070987  
      31A      0.076242    32A      0.077202    33A      0.082118  
      34A      0.101679    35A      0.105881    36A      0.109187  
      37A      0.110433    38A      0.116845    39A      0.118190  
      40A      0.126745    41A      0.128729    42A      0.134884  
      43A      0.141734    44A      0.144142    45A      0.144790  
      46A      0.145921    47A      0.152051    48A      0.152153  
      49A      0.157419    50A      0.158965    51A      0.163496  
      52A      0.164533    53A      0.167885    54A      0.176131  
      55A      0.176947    56A      0.181519    57A      0.182424  
      58A      0.185379    59A      0.191377    60A      0.192003  
      61A      0.198850    62A      0.201272    63A      0.216050  
      64A      0.217440    65A      0.223021    66A      0.227974  
      67A      0.233662    68A      0.244355    69A      0.245301  
      70A      0.250811    71A      0.257274    72A      0.266705  
      73A      0.268735    74A      0.289936    75A      0.300584  
      76A      0.302105    77A      0.311287    78A      0.317568  
      79A      0.322520    80A      0.324897    81A      0.327833  
      82A      0.335049    83A      0.348540    84A      0.354283  
      85A      0.365215    86A      0.365937    87A      0.368789  
      88A      0.372397    89A      0.379749    90A      0.383068  
      91A      0.385416    92A      0.390895    93A      0.396397  
      94A      0.398722    95A      0.404776    96A      0.407388  
      97A      0.415398    98A      0.426692    99A      0.430539  
     100A      0.442358   101A      0.442550   102A      0.444820  
     103A      0.444935   104A      0.460127   105A      0.464677  
     106A      0.470273   107A      0.477023   108A      0.483011  
     109A      0.492031   110A      0.499150   111A      0.507757  
     112A      0.514305   113A      0.522310   114A      0.530287  
     115A      0.538555   116A      0.539793   117A      0.551733  
     118A      0.557977   119A      0.559492   120A      0.565115  
     121A      0.572231   122A      0.578124   123A      0.584544  
     124A      0.589120   125A      0.594629   126A      0.594928  
     127A      0.598132   128A      0.603295   129A      0.610528  
     130A      0.616110   131A      0.619638   132A      0.626841  
     133A      0.638460   134A      0.641898   135A      0.649901  
     136A      0.652737   137A      0.658281   138A      0.659599  
     139A      0.677023   140A      0.682503   141A      0.690454  
     142A      0.690675   143A      0.691651   144A      0.698891  
     145A      0.709765   146A      0.711855   147A      0.720722  
     148A      0.724560   149A      0.730187   150A      0.744858  
     151A      0.756389   152A      0.772209   153A      0.774467  
     154A      0.780590   155A      0.781631   156A      0.782115  
     157A      0.784144   158A      0.798711   159A      0.799589  
     160A      0.801469   161A      0.811254   162A      0.836337  
     163A      0.842277   164A      0.853699   165A      0.854410  
     166A      0.858392   167A      0.863391   168A      0.871602  
     169A      0.876510   170A      0.879927   171A      0.881550  
     172A      0.889509   173A      0.893000   174A      0.901931  
     175A      0.905220   176A      0.908602   177A      0.928050  
     178A      0.936066   179A      0.937456   180A      0.942149  
     181A      0.942207   182A      0.950276   183A      0.970349  
     184A      0.973935   185A      0.980218   186A      0.981834  
     187A      0.988982   188A      0.995050   189A      1.013638  
     190A      1.035530   191A      1.036156   192A      1.048351  
     193A      1.053804   194A      1.069229   195A      1.075129  
     196A      1.077965   197A      1.082101   198A      1.101199  
     199A      1.109772   200A      1.114758   201A      1.126979  
     202A      1.143131   203A      1.150122   204A      1.168016  
     205A      1.172927   206A      1.187459   207A      1.189692  
     208A      1.198783   209A      1.226401   210A      1.233086  
     211A      1.238932   212A      1.297453   213A      1.299602  
     214A      1.331037   215A      1.352648   216A      1.355520  
     217A      1.363626   218A      1.367414   219A      1.397200  
     220A      1.411678   221A      1.434707   222A      1.471096  
     223A      1.487525   224A      1.505643   225A      1.509225  
     226A      1.535277   227A      1.537702   228A      1.540086  
     229A      1.542230   230A      1.546446   231A      1.587717  
     232A      1.595571   233A      1.629910   234A      1.634905  
     235A      1.644527   236A      1.646956   237A      1.652326  
     238A      1.659458   239A      1.676293   240A      1.716203  
     241A      1.717140   242A      1.723214   243A      1.724115  
     244A      1.739886   245A      1.798093   246A      1.799249  
     247A      1.808230   248A      1.870440   249A      1.898706  
     250A      1.903794   251A      1.933899   252A      1.961305  
     253A      1.966191   254A      1.968966   255A      1.971544  
     256A      1.972985   257A      1.988659   258A      2.002205  
     259A      2.074526   260A      2.099853   261A      2.112471  
     262A      2.113728   263A      2.138377   264A      2.142898  
     265A      2.161254   266A      2.164600   267A      2.169902  
     268A      2.175934   269A      2.196780   270A      2.198900  
     271A      2.206203   272A      2.208140   273A      2.214592  
     274A      2.223734   275A      2.225866   276A      2.235447  
     277A      2.246781   278A      2.251235   279A      2.262683  
     280A      2.273816   281A      2.282410   282A      2.297844  
     283A      2.311047   284A      2.313743   285A      2.330377  
     286A      2.363926   287A      2.368229   288A      2.377663  
     289A      2.381531   290A      2.394370   291A      2.404486  
     292A      2.427638   293A      2.452025   294A      2.458347  
     295A      2.458577   296A      2.471406   297A      2.503498  
     298A      2.526927   299A      2.542362   300A      2.594452  
     301A      2.601641   302A      2.622996   303A      2.624283  
     304A      2.660420   305A      2.665233   306A      2.683554  
     307A      2.697572   308A      2.737919   309A      2.744548  
     310A      2.767125   311A      2.800466   312A      2.802413  
     313A      2.810254   314A      2.811783   315A      2.827064  
     316A      2.862650   317A      2.863984   318A      2.898253  
     319A      2.905234   320A      2.959948   321A      2.979190  
     322A      2.983351   323A      2.986925   324A      2.996981  
     325A      3.061700   326A      3.067561   327A      3.133240  
     328A      3.148277   329A      3.152183   330A      3.158157  
     331A      3.165001   332A      3.179065   333A      3.208622  
     334A      3.289144   335A      3.354145   336A      3.366742  
     337A      3.388481   338A      3.406158   339A      3.421454  
     340A      3.446317   341A      3.483900   342A      3.493493  
     343A      3.571591   344A      3.571913   345A      3.579779  
     346A      3.616098   347A      3.630168   348A      3.882599  
     349A      3.890662   350A      3.906251   351A      3.931906  
     352A      4.015413   353A      4.076447   354A      4.193203  
     355A      4.448882   356A      4.510865   357A      4.621466  
     358A      4.664503   359A      4.771488   360A      4.823338  
     361A      4.959874   362A      5.152097   363A      5.408648  
     364A      5.499318   365A      5.554596   366A      5.606618  
     367A      5.612812   368A      5.789808   369A      6.147757  
     370A     18.068323   371A     18.378979   372A     18.728232  
     373A     19.065453   374A     19.927697   375A     25.329628  

    Final Occupation by Irrep:
              A 
    DOCC [    21 ]

  @DF-RHF Final Energy:  -230.72833826564400

   => Energetics <=

    Nuclear Repulsion Energy =            203.6503770541790743
    One-Electron Energy =                -713.5533082325702026
    Two-Electron Energy =                 279.1745929127470731
    Total Energy =                       -230.7283382656440267

Computation Completed


Properties will be evaluated at   0.000000,   0.000000,   0.000000 [a0]

Properties computed using the SCF density matrix

  Nuclear Dipole Moment: [e a0]
     X:     0.2035      Y:     5.5960      Z:  -235.8227

  Electronic Dipole Moment: [e a0]
     X:    -0.2035      Y:    -5.5959      Z:   235.8213

  Dipole Moment: [e a0]
     X:    -0.0000      Y:     0.0001      Z:    -0.0014     Total:     0.0014

  Dipole Moment: [D]
     X:    -0.0001      Y:     0.0002      Z:    -0.0035     Total:     0.0035


*** tstop() called on node97.bme.utexas.edu at Thu Apr 23 17:33:24 2020
Module time:
	user time   =      49.06 seconds =       0.82 minutes
	system time =       1.17 seconds =       0.02 minutes
	total time  =          8 seconds =       0.13 minutes
Total time:
	user time   =     169.54 seconds =       2.83 minutes
	system time =       3.94 seconds =       0.07 minutes
	total time  =         26 seconds =       0.43 minutes

  //>>>>>>>>>>>>>>>>>>>>>>>>>>>>>>>>>>>//
  //            Monomer B HF           //
  //<<<<<<<<<<<<<<<<<<<<<<<<<<<<<<<<<<<//


*** tstart() called on node97.bme.utexas.edu
*** at Thu Apr 23 17:33:24 2020

   => Loading Basis Set <=

    Name: AUG-CC-PVDZ
    Role: ORBITAL
    Keyword: BASIS
    atoms 1, 3, 5, 7, 9, 11, 14, 16, 18, 20, 22  entry C          line   182 file /home/liuchw/anaconda3/envs/psi4env/share/psi4/basis/aug-cc-pvdz.gbs 
    atoms 2, 4, 6, 8, 10, 12, 15, 17, 19, 21, 23 entry H          line    40 file /home/liuchw/anaconda3/envs/psi4env/share/psi4/basis/aug-cc-pvdz.gbs 
    atoms 13                                     entry N          line   218 file /home/liuchw/anaconda3/envs/psi4env/share/psi4/basis/aug-cc-pvdz.gbs 


         ---------------------------------------------------------
                                   SCF
               by Justin Turney, Rob Parrish, Andy Simmonett
                          and Daniel G. A. Smith
                              RHF Reference
                        8 Threads,  19073 MiB Core
         ---------------------------------------------------------

  ==> Geometry <==

    Molecular point group: c1
    Full point group: C1

    Geometry (in Angstrom), charge = 0, multiplicity = 1:

       Center              X                  Y                   Z               Mass       
    ------------   -----------------  -----------------  -----------------  -----------------
      Gh(C)           0.853929800083     1.160247063630    -2.795114721685    12.000000000000
      Gh(H)           1.515259800083     2.005547063630    -2.661194721685     1.007825032230
      Gh(C)           1.384359800083    -0.115132936370    -2.983414721685    12.000000000000
      Gh(H)           2.456029800083    -0.259142936370    -2.991724721685     1.007825032230
      Gh(C)           0.532919800083    -1.204712936370    -3.161384721685    12.000000000000
      Gh(H)           0.944579800083    -2.193702936370    -3.309654721685     1.007825032230
      Gh(C)          -0.848870199917    -1.019132936370    -3.148194721685    12.000000000000
      Gh(H)          -1.509530199917    -1.864132936370    -3.286214721685     1.007825032230
      Gh(C)          -1.379200199917     0.255957063630    -2.956964721685    12.000000000000
      Gh(H)          -2.450870199917     0.399747063630    -2.944544721685     1.007825032230
      Gh(C)          -0.527760199917     1.345747063630    -2.781834721685    12.000000000000
      Gh(H)          -0.940070199917     2.335137063630    -2.637204721685     1.007825032230
         N            0.019199800083     0.248567063630     4.292455278315    14.003074004430
         C            0.173889800083     1.186527063630     3.347575278315    12.000000000000
         H            0.315659800083     2.199047063630     3.705475278315     1.007825032230
         C            0.159679800083     0.919237063630     1.981075278315    12.000000000000
         H            0.289919800083     1.720257063630     1.267195278315     1.007825032230
         C           -0.024660199917    -0.392392936370     1.555785278315    12.000000000000
         H           -0.041230199917    -0.635512936370     0.502445278315     1.007825032230
         C           -0.186510199917    -1.377422936370     2.524645278315    12.000000000000
         H           -0.333050199917    -2.412642936370     2.249875278315     1.007825032230
         C           -0.157310199917    -1.010092936370     3.867735278315    12.000000000000
         H           -0.280900199917    -1.757612936370     4.641835278315     1.007825032230

  Running in c1 symmetry.

  Rotational constants: A =      0.06512  B =      0.01090  C =      0.01035 [cm^-1]
  Rotational constants: A =   1952.30862  B =    326.68452  C =    310.28183 [MHz]
  Nuclear repulsion =  206.224609948591279

  Charge       = 0
  Multiplicity = 1
  Electrons    = 42
  Nalpha       = 21
  Nbeta        = 21

  ==> Algorithm <==

  SCF Algorithm Type is DF.
  DIIS enabled.
  MOM disabled.
  Fractional occupation disabled.
  Guess Type is SAD.
  Energy threshold   = 1.00e-08
  Density threshold  = 1.00e-08
  Integral threshold = 0.00e+00

  ==> Primary Basis <==

  Basis Set: AUG-CC-PVDZ
    Blend: AUG-CC-PVDZ
    Number of shells: 163
    Number of basis function: 375
    Number of Cartesian functions: 399
    Spherical Harmonics?: true
    Max angular momentum: 2

   => Loading Basis Set <=

    Name: (AUG-CC-PVDZ AUX)
    Role: JKFIT
    Keyword: DF_BASIS_SCF
    atoms 1, 3, 5, 7, 9, 11, 14, 16, 18, 20, 22  entry C          line   154 file /home/liuchw/anaconda3/envs/psi4env/share/psi4/basis/aug-cc-pvdz-jkfit.gbs 
    atoms 2, 4, 6, 8, 10, 12, 15, 17, 19, 21, 23 entry H          line    70 file /home/liuchw/anaconda3/envs/psi4env/share/psi4/basis/aug-cc-pvdz-jkfit.gbs 
    atoms 13                                     entry N          line   212 file /home/liuchw/anaconda3/envs/psi4env/share/psi4/basis/aug-cc-pvdz-jkfit.gbs 

  ==> Pre-Iterations <==

   -------------------------------------------------------
    Irrep   Nso     Nmo     Nalpha   Nbeta   Ndocc  Nsocc
   -------------------------------------------------------
     A        375     375       0       0       0       0
   -------------------------------------------------------
    Total     375     375      21      21      21       0
   -------------------------------------------------------

  ==> Integral Setup <==

  ==> DiskDFJK: Density-Fitted J/K Matrices <==

    J tasked:                  Yes
    K tasked:                  Yes
    wK tasked:                  No
    OpenMP threads:              8
    Integrals threads:           8
    Memory [MiB]:            14305
    Algorithm:                Core
    Integral Cache:           LOAD
    Schwarz Cutoff:          1E-12
    Fitting Condition:       1E-10

   => Auxiliary Basis Set <=

  Basis Set: (AUG-CC-PVDZ AUX)
    Blend: AUG-CC-PVDZ-JKFIT
    Number of shells: 468
    Number of basis function: 1384
    Number of Cartesian functions: 1597
    Spherical Harmonics?: true
    Max angular momentum: 3

  Minimum eigenvalue in the overlap matrix is 2.3313550320E-06.
  Using Symmetric Orthogonalization.

  SCF Guess: Superposition of Atomic Densities via on-the-fly atomic UHF.

  ==> Iterations <==

                           Total Energy        Delta E     RMS |[F,P]|

   @DF-RHF iter SAD:  -246.11028719036659   -2.46110e+02   0.00000e+00 
   @DF-RHF iter   1:  -246.58239361263145   -4.72106e-01   1.24427e-03 DIIS
   @DF-RHF iter   2:  -246.70029469915602   -1.17901e-01   5.62589e-04 DIIS
   @DF-RHF iter   3:  -246.72260347335109   -2.23088e-02   1.09834e-04 DIIS
   @DF-RHF iter   4:  -246.72390340206812   -1.29993e-03   3.36414e-05 DIIS
   @DF-RHF iter   5:  -246.72398276278264   -7.93607e-05   9.61150e-06 DIIS
   @DF-RHF iter   6:  -246.72399158317404   -8.82039e-06   2.34626e-06 DIIS
   @DF-RHF iter   7:  -246.72399226447442   -6.81300e-07   9.00591e-07 DIIS
   @DF-RHF iter   8:  -246.72399236894768   -1.04473e-07   3.64792e-07 DIIS
   @DF-RHF iter   9:  -246.72399240141704   -3.24694e-08   1.09812e-07 DIIS
   @DF-RHF iter  10:  -246.72399240551417   -4.09713e-09   3.98105e-08 DIIS
   @DF-RHF iter  11:  -246.72399240624094   -7.26772e-10   2.29504e-08 DIIS
   @DF-RHF iter  12:  -246.72399240639487   -1.53932e-10   5.75417e-09 DIIS
  Energy and wave function converged.


  ==> Post-Iterations <==

    Orbital Energies [Eh]
    ---------------------

    Doubly Occupied:                                                      

       1A    -15.575986     2A    -11.282040     3A    -11.282018  
       4A    -11.266776     5A    -11.248898     6A    -11.248774  
       7A     -1.260391     8A     -1.093127     9A     -1.036337  
      10A     -0.861497    11A     -0.858170    12A     -0.723114  
      13A     -0.661770    14A     -0.655117    15A     -0.598769  
      16A     -0.578663    17A     -0.541098    18A     -0.519641  
      19A     -0.419947    20A     -0.383930    21A     -0.347724  

    Virtual:                                                              

      22A      0.016970    23A      0.031240    24A      0.034781  
      25A      0.040239    26A      0.048825    27A      0.054295  
      28A      0.054637    29A      0.058015    30A      0.068585  
      31A      0.074677    32A      0.075212    33A      0.086348  
      34A      0.088497    35A      0.102125    36A      0.104070  
      37A      0.104696    38A      0.106822    39A      0.113254  
      40A      0.119631    41A      0.123421    42A      0.127590  
      43A      0.135453    44A      0.140094    45A      0.142956  
      46A      0.143950    47A      0.148518    48A      0.152492  
      49A      0.154112    50A      0.154382    51A      0.162143  
      52A      0.164394    53A      0.168673    54A      0.169206  
      55A      0.174731    56A      0.179856    57A      0.180841  
      58A      0.186338    59A      0.187141    60A      0.188028  
      61A      0.189914    62A      0.204163    63A      0.207392  
      64A      0.209152    65A      0.221715    66A      0.226648  
      67A      0.233602    68A      0.233757    69A      0.235936  
      70A      0.244535    71A      0.257564    72A      0.267518  
      73A      0.284278    74A      0.284701    75A      0.288264  
      76A      0.295886    77A      0.298282    78A      0.319912  
      79A      0.322847    80A      0.324849    81A      0.331131  
      82A      0.333089    83A      0.338605    84A      0.343057  
      85A      0.345907    86A      0.351050    87A      0.364556  
      88A      0.369496    89A      0.373756    90A      0.378298  
      91A      0.381088    92A      0.386884    93A      0.392365  
      94A      0.406013    95A      0.408720    96A      0.412237  
      97A      0.419453    98A      0.423416    99A      0.426747  
     100A      0.434723   101A      0.440483   102A      0.441621  
     103A      0.447098   104A      0.452319   105A      0.463569  
     106A      0.467745   107A      0.468879   108A      0.473435  
     109A      0.478779   110A      0.487096   111A      0.492205  
     112A      0.509844   113A      0.511375   114A      0.520086  
     115A      0.523749   116A      0.532904   117A      0.533572  
     118A      0.535768   119A      0.546908   120A      0.549878  
     121A      0.551802   122A      0.566336   123A      0.573366  
     124A      0.578144   125A      0.583102   126A      0.587336  
     127A      0.588128   128A      0.600075   129A      0.616207  
     130A      0.622698   131A      0.626554   132A      0.628703  
     133A      0.630347   134A      0.631709   135A      0.631873  
     136A      0.643926   137A      0.655058   138A      0.673625  
     139A      0.678340   140A      0.680848   141A      0.683537  
     142A      0.687597   143A      0.691390   144A      0.704609  
     145A      0.705952   146A      0.706152   147A      0.715683  
     148A      0.721461   149A      0.728072   150A      0.746464  
     151A      0.751113   152A      0.760721   153A      0.770850  
     154A      0.773694   155A      0.778131   156A      0.787160  
     157A      0.791715   158A      0.800445   159A      0.806392  
     160A      0.815117   161A      0.821385   162A      0.829116  
     163A      0.834978   164A      0.845061   165A      0.859523  
     166A      0.862452   167A      0.867879   168A      0.874436  
     169A      0.882568   170A      0.884922   171A      0.887500  
     172A      0.892802   173A      0.894447   174A      0.899472  
     175A      0.902379   176A      0.906674   177A      0.911684  
     178A      0.915158   179A      0.915645   180A      0.926568  
     181A      0.937778   182A      0.941442   183A      0.943345  
     184A      0.964128   185A      0.970145   186A      0.981234  
     187A      0.991238   188A      0.993939   189A      1.006315  
     190A      1.011828   191A      1.021140   192A      1.025195  
     193A      1.037463   194A      1.047955   195A      1.049240  
     196A      1.054374   197A      1.057613   198A      1.059062  
     199A      1.079123   200A      1.107336   201A      1.113450  
     202A      1.117434   203A      1.118905   204A      1.122158  
     205A      1.129550   206A      1.161866   207A      1.166508  
     208A      1.194146   209A      1.226659   210A      1.234089  
     211A      1.242206   212A      1.258121   213A      1.267774  
     214A      1.273362   215A      1.315656   216A      1.369397  
     217A      1.384689   218A      1.399919   219A      1.400226  
     220A      1.402618   221A      1.425121   222A      1.468615  
     223A      1.481314   224A      1.482516   225A      1.483357  
     226A      1.489491   227A      1.537459   228A      1.550824  
     229A      1.571994   230A      1.587652   231A      1.617008  
     232A      1.621250   233A      1.641330   234A      1.649029  
     235A      1.662633   236A      1.669448   237A      1.689370  
     238A      1.689656   239A      1.715241   240A      1.726744  
     241A      1.752564   242A      1.771473   243A      1.797545  
     244A      1.809172   245A      1.814604   246A      1.830296  
     247A      1.853530   248A      1.929843   249A      1.934706  
     250A      1.956218   251A      1.960420   252A      1.967890  
     253A      2.041161   254A      2.053811   255A      2.067144  
     256A      2.083308   257A      2.097786   258A      2.107805  
     259A      2.117307   260A      2.121685   261A      2.129584  
     262A      2.131201   263A      2.132670   264A      2.137963  
     265A      2.152258   266A      2.192260   267A      2.200757  
     268A      2.205928   269A      2.207405   270A      2.209942  
     271A      2.213278   272A      2.228953   273A      2.230197  
     274A      2.242452   275A      2.242699   276A      2.283629  
     277A      2.286458   278A      2.295917   279A      2.306293  
     280A      2.307606   281A      2.308317   282A      2.320495  
     283A      2.337522   284A      2.351611   285A      2.359701  
     286A      2.368359   287A      2.376396   288A      2.399453  
     289A      2.438415   290A      2.465997   291A      2.475667  
     292A      2.487524   293A      2.493639   294A      2.497346  
     295A      2.503475   296A      2.517818   297A      2.523678  
     298A      2.554809   299A      2.601249   300A      2.621701  
     301A      2.625069   302A      2.636150   303A      2.643874  
     304A      2.646773   305A      2.650707   306A      2.653864  
     307A      2.668625   308A      2.672760   309A      2.700548  
     310A      2.701619   311A      2.745851   312A      2.748242  
     313A      2.782557   314A      2.817135   315A      2.857076  
     316A      2.857884   317A      2.860749   318A      2.864689  
     319A      2.867552   320A      2.869517   321A      2.875398  
     322A      2.890571   323A      2.911932   324A      2.943890  
     325A      2.946345   326A      2.984809   327A      3.005758  
     328A      3.026788   329A      3.093529   330A      3.134523  
     331A      3.136524   332A      3.176647   333A      3.190614  
     334A      3.253745   335A      3.281200   336A      3.330957  
     337A      3.392835   338A      3.393685   339A      3.399876  
     340A      3.400897   341A      3.410049   342A      3.416448  
     343A      3.417202   344A      3.440427   345A      3.464848  
     346A      3.467213   347A      3.470386   348A      3.532867  
     349A      3.650492   350A      3.686350   351A      3.688473  
     352A      3.942717   353A      3.968385   354A      3.983476  
     355A      3.995177   356A      4.102372   357A      4.315061  
     358A      4.376200   359A      4.379568   360A      4.663112  
     361A      4.845651   362A      4.851540   363A      5.292520  
     364A      5.447442   365A      5.449148   366A      5.468332  
     367A      5.469464   368A      5.642787   369A      6.066977  
     370A     17.986695   371A     18.383083   372A     18.388625  
     373A     19.000811   374A     19.003419   375A     20.667381  

    Final Occupation by Irrep:
              A 
    DOCC [    21 ]

  @DF-RHF Final Energy:  -246.72399240639487

   => Energetics <=

    Nuclear Repulsion Energy =            206.2246099485912794
    One-Electron Energy =                -741.0096298720729919
    Two-Electron Energy =                 288.0610275170868704
    Total Energy =                       -246.7239924063948706

Computation Completed


Properties will be evaluated at   0.000000,   0.000000,   0.000000 [a0]

Properties computed using the SCF density matrix

  Nuclear Dipole Moment: [e a0]
     X:    -0.2356      Y:    -6.0308      Z:   230.6881

  Electronic Dipole Moment: [e a0]
     X:     0.2211      Y:     5.8202      Z:  -231.5866

  Dipole Moment: [e a0]
     X:    -0.0145      Y:    -0.2106      Z:    -0.8985     Total:     0.9229

  Dipole Moment: [D]
     X:    -0.0367      Y:    -0.5353      Z:    -2.2837     Total:     2.3459


*** tstop() called on node97.bme.utexas.edu at Thu Apr 23 17:33:33 2020
Module time:
	user time   =      62.57 seconds =       1.04 minutes
	system time =       1.41 seconds =       0.02 minutes
	total time  =          9 seconds =       0.15 minutes
Total time:
	user time   =     232.17 seconds =       3.87 minutes
	system time =       5.35 seconds =       0.09 minutes
	total time  =         35 seconds =       0.58 minutes
  Constructing Basis Sets for SAPT...

   => Loading Basis Set <=

    Name: (AUG-CC-PVDZ AUX)
    Role: RIFIT
    Keyword: DF_BASIS_SAPT
    atoms 1, 3, 5, 7, 9, 11, 14, 16, 18, 20, 22  entry C          line   112 file /home/liuchw/anaconda3/envs/psi4env/share/psi4/basis/aug-cc-pvdz-ri.gbs 
    atoms 2, 4, 6, 8, 10, 12, 15, 17, 19, 21, 23 entry H          line    30 file /home/liuchw/anaconda3/envs/psi4env/share/psi4/basis/aug-cc-pvdz-ri.gbs 
    atoms 13                                     entry N          line   158 file /home/liuchw/anaconda3/envs/psi4env/share/psi4/basis/aug-cc-pvdz-ri.gbs 


  //>>>>>>>>>>>>>>>>>>>>>>>>>>>>>>>>>>>//
  //               SAPT2+              //
  //<<<<<<<<<<<<<<<<<<<<<<<<<<<<<<<<<<<//


*** tstart() called on node97.bme.utexas.edu
*** at Thu Apr 23 17:33:33 2020

        SAPT2+  
    Ed Hohenstein
     6 June 2009

      Orbital Information
  --------------------------
    NSO        =       375
    NMO        =       375
    NRI        =      1117
    NOCC A     =        21
    NOCC B     =        21
    FOCC A     =         6
    FOCC B     =         6
    NVIR A     =       354
    NVIR B     =       354

    Estimated memory usage: 2446.2 MB

    Natural Orbital Cutoff:   1.000E-06
    Disp(T3) Truncation:            Yes
    CCD (vv|vv) Truncation:         Yes
    MBPT T2 Truncation:             Yes

    Monomer A: 190 virtual orbitals dropped
    Monomer B: 201 virtual orbitals dropped

    Elst10,r            =    -0.001202209318 [Eh]
    Exch10 (S^2)        =     0.000261074277 [Eh]
    Exch10              =     0.000261090230 [Eh]
    Ind20,r (A<-B)      =    -0.000089983553 [Eh]
    Ind20,r (B<-A)      =    -0.000077746571 [Eh]
    Ind20,r             =    -0.000167730124 [Eh]
    Exch-Ind20,r (A<-B) =     0.000027154446 [Eh]
    Exch-Ind20,r (B<-A) =     0.000010685784 [Eh]
    Exch-Ind20,r        =     0.000037840230 [Eh]
    Disp20              =    -0.002132823278 [Eh]
    Disp20 (NO)         =    -0.002053141493 [Eh]
    Exch-Disp20         =     0.000049575819 [Eh]
    Elst12,r            =     0.000261282243 [Eh]
    Exch11              =    -0.000000956863 [Eh]
    Exch12              =     0.000042838095 [Eh]
    Ind22               =     0.000010695133 [Eh]
    Disp21              =     0.000583213880 [Eh]
    Disp22 (SDQ)        =     0.000035158706 [Eh]

    (i =   1 of  15)         24 seconds
    (i =   2 of  15)         48 seconds
    (i =   3 of  15)         72 seconds
    (i =   4 of  15)         96 seconds
    (i =   5 of  15)        120 seconds
    (i =   6 of  15)        144 seconds
    (i =   7 of  15)        169 seconds
    (i =   8 of  15)        193 seconds
    (i =   9 of  15)        217 seconds
    (i =  10 of  15)        241 seconds
    (i =  11 of  15)        265 seconds
    (i =  12 of  15)        289 seconds
    (i =  13 of  15)        313 seconds
    (i =  14 of  15)        338 seconds
    (i =  15 of  15)        362 seconds

    Disp220 (T)         =    -0.000216125997 [Eh]

    (i =   1 of  15)         22 seconds
    (i =   2 of  15)         44 seconds
    (i =   3 of  15)         67 seconds
    (i =   4 of  15)         89 seconds
    (i =   5 of  15)        111 seconds
    (i =   6 of  15)        134 seconds
    (i =   7 of  15)        156 seconds
    (i =   8 of  15)        178 seconds
    (i =   9 of  15)        200 seconds
    (i =  10 of  15)        223 seconds
    (i =  11 of  15)        245 seconds
    (i =  12 of  15)        267 seconds
    (i =  13 of  15)        289 seconds
    (i =  14 of  15)        312 seconds
    (i =  15 of  15)        334 seconds

    Disp202 (T)         =    -0.000217184301 [Eh]

    Disp22 (T)          =    -0.000433310298 [Eh]

    Est. Disp220 (T)    =    -0.000224513780 [Eh]
    Est. Disp202 (T)    =    -0.000225613156 [Eh]

    Est. Disp22 (T)     =    -0.000450126936 [Eh]

    SAPT Results 
  --------------------------------------------------------------------------------------------------------
    Electrostatics                 -0.94092707 [mEh]      -0.59044065 [kcal/mol]      -2.47040369 [kJ/mol]
      Elst10,r                     -1.20220932 [mEh]      -0.75439774 [kcal/mol]      -3.15640013 [kJ/mol]
      Elst12,r                      0.26128224 [mEh]       0.16395708 [kcal/mol]       0.68599643 [kJ/mol]

    Exchange                        0.30297146 [mEh]       0.19011746 [kcal/mol]       0.79545146 [kJ/mol]
      Exch10                        0.26109023 [mEh]       0.16383659 [kcal/mol]       0.68549230 [kJ/mol]
      Exch10(S^2)                   0.26107428 [mEh]       0.16382658 [kcal/mol]       0.68545042 [kJ/mol]
      Exch11(S^2)                  -0.00095686 [mEh]      -0.00060044 [kcal/mol]      -0.00251224 [kJ/mol]
      Exch12(S^2)                   0.04283809 [mEh]       0.02688131 [kcal/mol]       0.11247140 [kJ/mol]

    Induction                      -0.15717936 [mEh]      -0.09863154 [kcal/mol]      -0.41267435 [kJ/mol]
      Ind20,r                      -0.16773012 [mEh]      -0.10525224 [kcal/mol]      -0.44037538 [kJ/mol]
      Ind22                         0.01069513 [mEh]       0.00671130 [kcal/mol]       0.02808007 [kJ/mol]
      Exch-Ind20,r                  0.03784023 [mEh]       0.02374510 [kcal/mol]       0.09934951 [kJ/mol]
      Exch-Ind22                   -0.00241284 [mEh]      -0.00151408 [kcal/mol]      -0.00633492 [kJ/mol]
      delta HF,r (2)               -0.03557176 [mEh]      -0.02232161 [kcal/mol]      -0.09339363 [kJ/mol]

    Dispersion                     -1.91500181 [mEh]      -1.20168178 [kcal/mol]      -5.02783656 [kJ/mol]
      Disp20                       -2.13282328 [mEh]      -1.33836681 [kcal/mol]      -5.59972675 [kJ/mol]
      Disp21                        0.58321388 [mEh]       0.36597224 [kcal/mol]       1.53122783 [kJ/mol]
      Disp22 (SDQ)                  0.03515871 [mEh]       0.02206242 [kcal/mol]       0.09230917 [kJ/mol]
      Disp22 (T)                   -0.43331030 [mEh]      -0.27190632 [kcal/mol]      -1.13765603 [kJ/mol]
      Est. Disp22 (T)              -0.45012694 [mEh]      -0.28245892 [kcal/mol]      -1.18180811 [kJ/mol]
      Exch-Disp20                   0.04957582 [mEh]       0.03110930 [kcal/mol]       0.13016129 [kJ/mol]

  Total HF                         -1.10658074 [mEh]      -0.69438990 [kcal/mol]      -2.90532733 [kJ/mol]
  Total SAPT0                      -3.18982820 [mEh]      -2.00164741 [kcal/mol]      -8.37489278 [kJ/mol]
  Total SAPT2                      -2.87838243 [mEh]      -1.80621225 [kcal/mol]      -7.55719203 [kJ/mol]
  Total SAPT2+                     -2.71013678 [mEh]      -1.70063651 [kcal/mol]      -7.11546314 [kJ/mol]

  Special recipe for scaled SAPT0 (see Manual):
    Electrostatics sSAPT0          -1.20220932 [mEh]      -0.75439774 [kcal/mol]      -3.15640013 [kJ/mol]
    Exchange sSAPT0                 0.26109023 [mEh]       0.16383659 [kcal/mol]       0.68549230 [kJ/mol]
    Induction sSAPT0               -0.16545471 [mEh]      -0.10382440 [kcal/mol]      -0.43440129 [kJ/mol]
    Dispersion sSAPT0              -2.08323837 [mEh]      -1.30725181 [kcal/mol]      -5.46954159 [kJ/mol]
  Total sSAPT0                     -3.18981217 [mEh]      -2.00163736 [kcal/mol]      -8.37485070 [kJ/mol]
  --------------------------------------------------------------------------------------------------------

*** tstop() called on node97.bme.utexas.edu at Thu Apr 23 17:51:08 2020
Module time:
	user time   =    6928.37 seconds =     115.47 minutes
	system time =     120.76 seconds =       2.01 minutes
	total time  =       1055 seconds =      17.58 minutes
Total time:
	user time   =    7161.94 seconds =     119.37 minutes
	system time =     126.15 seconds =       2.10 minutes
	total time  =       1090 seconds =      18.17 minutes

    Psi4 stopped on: Thursday, 23 April 2020 05:51PM
    Psi4 wall time for execution: 0:18:10.25

*** Psi4 exiting successfully. Buy a developer a beer!
