    -----------------------------------------------------------------------
          PSI4: An Open-Source Ab Initio Electronic Structure Package
                              PSI 4.0.0-beta4 Driver

    J. M. Turney, A. C. Simmonett, R. M. Parrish, E. G. Hohenstein,
    F. A. Evangelista, J. T. Fermann, B. J. Mintz, L. A. Burns, J. J. Wilke,
    M. L. Abrams, N. J. Russ, M. L. Leininger, C. L. Janssen, E. T. Seidl,
    W. D. Allen, H. F. Schaefer, R. A. King, E. F. Valeev, C. D. Sherrill,
    and T. D. Crawford, WIREs Comput. Mol. Sci., (2011) (doi: 10.1002/wcms.93)

                         Additional Contributions by
    A. E. DePrince, M. Saitow, U. Bozkaya, A. Yu. Sokolov
    -----------------------------------------------------------------------

    Process ID:  25313
    PSI4DATADIR: /home/xzhu216/psi4/psi4-install/share/psi

    Using LocalCommunicator (Number of processes = 1)

    Memory level set to 256.000 MB

  ==> Input File <==

--------------------------------------------------------------------------
#psi4
#
memory 7 gb

molecule Benzene_AcNH2 {
0 1
    C     0.855560741     0.358532444     1.049754262
    H     1.513825504     0.902679557     1.712765824
    C     1.342897129    -0.675378664     0.251157396
    H     2.392883841    -0.933344720     0.281963052
    C     0.477806611    -1.376701096    -0.587815766
    H     0.856083995    -2.178907525    -1.206824282
    C    -0.874829828    -1.042556145    -0.630451783
    H    -1.545405726    -1.585700140    -1.282416138
    C    -1.362397293    -0.007013909     0.165846446
    H    -2.411571021     0.253467233     0.130778851
    C    -0.498444041     0.693156951     1.006991986
    H    -0.866110898     1.490339889     1.638036962
--
0 1
    C     0.160817305     0.747621690     4.359618432
    O     0.407306654     1.791047934     3.772379149
    N    -0.143229944    -0.407384847     3.708451087
    H    -0.118029632    -0.414400177     2.701814480
    H    -0.299006429    -1.262877164     4.204152798
    C     0.183662005     0.652729860     5.868035904
    H     1.215375806     0.736942143     6.203109698
    H    -0.238241906    -0.273913136     6.249061576
    H    -0.365802661     1.496576170     6.274806414
units angstrom
no_reorient  #important for SAPT in psi4, default
symmetry c1  #important for SAPT in psi4, default
}

set {
basis aug-cc-pVDZ
scf_type DF
freeze_core True
}
energy('sapt2+')
--------------------------------------------------------------------------

  Memory set to   7.000 GiB by Python script.

  //>>>>>>>>>>>>>>>>>>>>>>>>>>>>>>>>>>>//
  //              Dimer HF             //
  //<<<<<<<<<<<<<<<<<<<<<<<<<<<<<<<<<<<//


  No DF_BASIS_SCF auxiliary basis selected, defaulting to aug-cc-pvdz-jkfit


*** tstart() called on node113.bme.utexas.edu
*** at Fri Feb 14 19:12:49 2014


         ---------------------------------------------------------
                                   SCF
            by Justin Turney, Rob Parrish, and Andy Simmonett
                              RHF Reference
                        4 Threads,   7000 MiB Core
         ---------------------------------------------------------

  ==> Geometry <==

    Molecular point group: c1
    Full point group: C1

    Geometry (in Angstrom), charge = 0, multiplicity = 1:

       Center              X                  Y                   Z       
    ------------   -----------------  -----------------  -----------------
           C          0.796727522920     0.261039486930    -0.972246189553
           H          1.454992285920     0.805186599930    -0.309234627553
           C          1.284063910920    -0.772871621070    -1.770843055553
           H          2.334050622920    -1.030837677070    -1.740037399553
           C          0.418973392920    -1.474194053070    -2.609816217553
           H          0.797250776920    -2.276400482070    -3.228824733553
           C         -0.933663046080    -1.140049102070    -2.652452234553
           H         -1.604238944080    -1.683193097070    -3.304416589553
           C         -1.421230511080    -0.104506866070    -1.856154005553
           H         -2.470404239080     0.155974275930    -1.891221600553
           C         -0.557277259080     0.595663993930    -1.015008465553
           H         -0.924944116080     1.392846931930    -0.383963489553
           C          0.101984086920     0.650128732930     2.337617980447
           O          0.348473435920     1.693554976930     1.750378697447
           N         -0.202063162080    -0.504877804070     1.686450635447
           H         -0.176862850080    -0.511893134070     0.679814028447
           H         -0.357839647080    -1.360370121070     2.182152346447
           C          0.124828786920     0.555236902930     3.846035452447
           H          1.156542587920     0.639449185930     4.181109246447
           H         -0.297075124080    -0.371406093070     4.227061124447
           H         -0.424635879080     1.399083212930     4.252805962447

  Running in c1 symmetry.

  Nuclear repulsion =  489.990797914348434

  Charge       = 0
  Multiplicity = 1
  Electrons    = 74
  Nalpha       = 37
  Nbeta        = 37

  ==> Algorithm <==

  SCF Algorithm Type is DF.
  DIIS enabled.
  MOM disabled.
  Fractional occupation disabled.
  Guess Type is CORE.
  Energy threshold   = 1.00e-08
  Density threshold  = 1.00e-08
  Integral threshold = 0.00e+00

  ==> Primary Basis <==

  Basis Set: AUG-CC-PVDZ
    Number of shells: 145
    Number of basis function: 329
    Number of Cartesian functions: 349
    Spherical Harmonics?: true
    Max angular momentum: 2

  ==> Pre-Iterations <==

   -------------------------------------------------------
    Irrep   Nso     Nmo     Nalpha   Nbeta   Ndocc  Nsocc
   -------------------------------------------------------
     A        329     329       0       0       0       0
   -------------------------------------------------------
    Total     329     329      37      37      37       0
   -------------------------------------------------------

 OEINTS: Wrapper to libmints.
   by Justin Turney

   Calculation information:
      Number of atoms:                  21
      Number of AO shells:             145
      Number of SO shells:             145
      Number of primitives:            327
      Number of atomic orbitals:       349
      Number of basis functions:       329

      Number of irreps:                  1
      Number of functions per irrep: [ 329 ]

      Overlap, kinetic, potential, dipole, and quadrupole integrals
        stored in file 35.

  ==> Integral Setup <==

  ==> DFJK: Density-Fitted J/K Matrices <==

    J tasked:                  Yes
    K tasked:                  Yes
    wK tasked:                  No
    OpenMP threads:              4
    Integrals threads:           4
    Memory (MB):              5006
    Algorithm:                Core
    Integral Cache:           SAVE
    Schwarz Cutoff:          0E+00
    Fitting Condition:       1E-12

   => Auxiliary Basis Set <=

  Basis Set: aug-cc-pvdz-jkfit
    Number of shells: 412
    Number of basis function: 1212
    Number of Cartesian functions: 1395
    Spherical Harmonics?: true
    Max angular momentum: 3

  Minimum eigenvalue in the overlap matrix is 2.2376505720E-06.
  Using Symmetric Orthogonalization.
  SCF Guess: Core (One-Electron) Hamiltonian.

  Guess energy:  -352.53761187482706

  ==> Iterations <==

                        Total Energy        Delta E     RMS |[F,P]|

   @RHF iter   1:  -350.65907725899791   -3.50659e+02   2.66153e-02 
   @RHF iter   2:  -286.74113195425770    6.39179e+01   2.74417e-02 DIIS
   @RHF iter   3:  -406.01559212893022   -1.19274e+02   1.60389e-02 DIIS
   @RHF iter   4:  -413.57488620289763   -7.55929e+00   1.67512e-02 DIIS
   @RHF iter   5:  -432.98434714742331   -1.94095e+01   6.53599e-03 DIIS
   @RHF iter   6:  -420.56034412990647    1.24240e+01   1.16242e-02 DIIS
   @RHF iter   7:  -438.48321601239803   -1.79229e+01   2.10690e-03 DIIS
   @RHF iter   8:  -438.65965481334882   -1.76439e-01   1.02649e-03 DIIS
   @RHF iter   9:  -438.71805078237679   -5.83960e-02   3.89347e-04 DIIS
   @RHF iter  10:  -438.72793728275752   -9.88650e-03   1.63106e-04 DIIS
   @RHF iter  11:  -438.72979965031351   -1.86237e-03   6.73395e-05 DIIS
   @RHF iter  12:  -438.73018125986772   -3.81610e-04   1.74079e-05 DIIS
   @RHF iter  13:  -438.73020883008820   -2.75702e-05   5.96745e-06 DIIS
   @RHF iter  14:  -438.73021235706864   -3.52698e-06   2.57795e-06 DIIS
   @RHF iter  15:  -438.73021338484722   -1.02778e-06   9.46005e-07 DIIS
   @RHF iter  16:  -438.73021355785312   -1.73006e-07   4.13380e-07 DIIS
   @RHF iter  17:  -438.73021358319426   -2.53411e-08   1.51758e-07 DIIS
   @RHF iter  18:  -438.73021358812736   -4.93310e-09   6.94080e-08 DIIS
   @RHF iter  19:  -438.73021358927525   -1.14790e-09   2.80443e-08 DIIS
   @RHF iter  20:  -438.73021358950069   -2.25441e-10   1.01478e-08 DIIS
   @RHF iter  21:  -438.73021358952877   -2.80806e-11   4.03811e-09 DIIS

  ==> Post-Iterations <==

	Orbital Energies (a.u.)
	-----------------------

	Doubly Occupied:                                                      

	   1A    -20.523016     2A    -15.580436     3A    -11.358754  
	   4A    -11.243556     5A    -11.242615     6A    -11.241626  
	   7A    -11.241364     8A    -11.241205     9A    -11.236292  
	  10A    -11.235076    11A     -1.380521    12A     -1.209812  
	  13A     -1.154231    14A     -1.020506    15A     -1.017496  
	  16A     -1.002537    17A     -0.828160    18A     -0.824810  
	  19A     -0.795621    20A     -0.726300    21A     -0.707711  
	  22A     -0.665222    23A     -0.644407    24A     -0.619126  
	  25A     -0.612420    26A     -0.588123    27A     -0.587589  
	  28A     -0.582890    29A     -0.560576    30A     -0.521971  
	  31A     -0.500894    32A     -0.493228    33A     -0.490930  
	  34A     -0.421770    35A     -0.408802    36A     -0.338024  
	  37A     -0.335773  

	Virtual:                                                              

	  38A      0.029842    39A      0.038818    40A      0.042360  
	  41A      0.050251    42A      0.052821    43A      0.057093  
	  44A      0.067954    45A      0.069812    46A      0.074394  
	  47A      0.087945    48A      0.102246    49A      0.108306  
	  50A      0.108671    51A      0.114046    52A      0.129258  
	  53A      0.130653    54A      0.138319    55A      0.142730  
	  56A      0.145002    57A      0.147387    58A      0.150200  
	  59A      0.160084    60A      0.163375    61A      0.164408  
	  62A      0.166466    63A      0.171250    64A      0.172651  
	  65A      0.180206    66A      0.184910    67A      0.188413  
	  68A      0.190804    69A      0.192987    70A      0.197354  
	  71A      0.199487    72A      0.201290    73A      0.212314  
	  74A      0.212529    75A      0.232308    76A      0.237981  
	  77A      0.246521    78A      0.251957    79A      0.255065  
	  80A      0.268817    81A      0.282481    82A      0.305066  
	  83A      0.306478    84A      0.309190    85A      0.316095  
	  86A      0.321383    87A      0.330517    88A      0.333841  
	  89A      0.342122    90A      0.345186    91A      0.347871  
	  92A      0.356516    93A      0.367789    94A      0.370539  
	  95A      0.377297    96A      0.384684    97A      0.388134  
	  98A      0.392230    99A      0.393784   100A      0.403721  
	 101A      0.414879   102A      0.420513   103A      0.429196  
	 104A      0.430834   105A      0.438199   106A      0.440670  
	 107A      0.443450   108A      0.447909   109A      0.453037  
	 110A      0.455543   111A      0.457199   112A      0.475457  
	 113A      0.487261   114A      0.490605   115A      0.502918  
	 116A      0.509234   117A      0.514948   118A      0.524804  
	 119A      0.540905   120A      0.547333   121A      0.548142  
	 122A      0.568189   123A      0.575785   124A      0.584231  
	 125A      0.593753   126A      0.595323   127A      0.597080  
	 128A      0.603566   129A      0.608010   130A      0.611961  
	 131A      0.619185   132A      0.621175   133A      0.629804  
	 134A      0.632528   135A      0.639731   136A      0.648968  
	 137A      0.660090   138A      0.664057   139A      0.672443  
	 140A      0.678181   141A      0.680543   142A      0.689761  
	 143A      0.697598   144A      0.702914   145A      0.705215  
	 146A      0.712934   147A      0.719287   148A      0.721541  
	 149A      0.729817   150A      0.735362   151A      0.740589  
	 152A      0.753428   153A      0.757822   154A      0.769925  
	 155A      0.779567   156A      0.789091   157A      0.792964  
	 158A      0.802862   159A      0.814734   160A      0.823228  
	 161A      0.825542   162A      0.832420   163A      0.859494  
	 164A      0.861640   165A      0.866359   166A      0.871105  
	 167A      0.884438   168A      0.894492   169A      0.898478  
	 170A      0.905980   171A      0.914030   172A      0.920367  
	 173A      0.920716   174A      0.942329   175A      0.947201  
	 176A      0.965716   177A      0.970622   178A      0.979888  
	 179A      0.990445   180A      0.994762   181A      0.997082  
	 182A      1.011708   183A      1.025202   184A      1.033705  
	 185A      1.045713   186A      1.080030   187A      1.092097  
	 188A      1.104018   189A      1.109196   190A      1.121682  
	 191A      1.131522   192A      1.141591   193A      1.150311  
	 194A      1.161296   195A      1.164674   196A      1.174830  
	 197A      1.200111   198A      1.211290   199A      1.221554  
	 200A      1.302440   201A      1.320054   202A      1.338855  
	 203A      1.348215   204A      1.374140   205A      1.404675  
	 206A      1.418978   207A      1.423200   208A      1.438684  
	 209A      1.459712   210A      1.489142   211A      1.504946  
	 212A      1.517918   213A      1.524447   214A      1.540678  
	 215A      1.543338   216A      1.555792   217A      1.564802  
	 218A      1.580027   219A      1.595045   220A      1.601930  
	 221A      1.614312   222A      1.623743   223A      1.637110  
	 224A      1.645050   225A      1.652562   226A      1.655976  
	 227A      1.684284   228A      1.695723   229A      1.719975  
	 230A      1.724584   231A      1.732340   232A      1.744172  
	 233A      1.771125   234A      1.776389   235A      1.780369  
	 236A      1.804520   237A      1.816444   238A      1.837701  
	 239A      1.857411   240A      1.866956   241A      1.885685  
	 242A      1.906168   243A      1.913575   244A      1.937698  
	 245A      1.938620   246A      1.940381   247A      1.950735  
	 248A      1.966627   249A      1.975179   250A      1.979849  
	 251A      1.983072   252A      2.013401   253A      2.027287  
	 254A      2.034452   255A      2.064848   256A      2.074706  
	 257A      2.083127   258A      2.100028   259A      2.111452  
	 260A      2.123159   261A      2.137024   262A      2.154885  
	 263A      2.171491   264A      2.193233   265A      2.210180  
	 266A      2.219510   267A      2.232466   268A      2.246514  
	 269A      2.260089   270A      2.274273   271A      2.284526  
	 272A      2.293396   273A      2.311137   274A      2.322512  
	 275A      2.334220   276A      2.338860   277A      2.379377  
	 278A      2.382065   279A      2.386214   280A      2.396669  
	 281A      2.413411   282A      2.432682   283A      2.436836  
	 284A      2.474299   285A      2.479557   286A      2.508823  
	 287A      2.524474   288A      2.533236   289A      2.593989  
	 290A      2.640567   291A      2.643327   292A      2.659122  
	 293A      2.701451   294A      2.722121   295A      2.777068  
	 296A      2.805809   297A      2.810947   298A      2.831593  
	 299A      2.842081   300A      2.857612   301A      2.884060  
	 302A      2.919491   303A      2.925973   304A      2.950404  
	 305A      2.994764   306A      2.998986   307A      3.008506  
	 308A      3.016710   309A      3.035670   310A      3.098025  
	 311A      3.137260   312A      3.165690   313A      3.175472  
	 314A      3.230381   315A      3.235962   316A      3.298260  
	 317A      3.397547   318A      3.468610   319A      3.601091  
	 320A      3.661529   321A      3.670435   322A      3.769585  
	 323A      3.835513   324A      3.900151   325A      3.926830  
	 326A      3.987410   327A      4.092619   328A      4.223844  
	 329A      4.913538  

	Final Occupation by Irrep:
	          A 
	DOCC [    37 ]

  Energy converged.

  @RHF Final Energy:  -438.73021358952877

   => Energetics <=

    Nuclear Repulsion Energy =            489.9907979143484340
    One-Electron Energy =               -1567.0752497457037862
    Two-Electron Energy =                 638.3542382418287389
    DFT Exchange-Correlation Energy =       0.0000000000000000
    Empirical Dispersion Energy =           0.0000000000000000
    Total Energy =                       -438.7302135895266701



Properties will be evaluated at   0.000000,   0.000000,   0.000000 Bohr
  ==> Properties <==


Properties computed using the SCF density density matrix
  Nuclear Dipole Moment: (a.u.)
     X:    -0.4788      Y:    -2.6543      Z:     4.3770

  Electronic Dipole Moment: (a.u.)
     X:     0.2065      Y:     1.2606      Z:    -3.8764

  Dipole Moment: (a.u.)
     X:    -0.2723      Y:    -1.3937      Z:     0.5006     Total:     1.5057

  Dipole Moment: (Debye)
     X:    -0.6921      Y:    -3.5423      Z:     1.2724     Total:     3.8270


  Saving occupied orbitals to File 180.

  Saving SAPT 2-DIMER file.

*** tstop() called on node113.bme.utexas.edu at Fri Feb 14 19:14:05 2014
Module time:
	user time   =     280.80 seconds =       4.68 minutes
	system time =       2.31 seconds =       0.04 minutes
	total time  =         76 seconds =       1.27 minutes
Total time:
	user time   =     280.80 seconds =       4.68 minutes
	system time =       2.31 seconds =       0.04 minutes
	total time  =         76 seconds =       1.27 minutes

  //>>>>>>>>>>>>>>>>>>>>>>>>>>>>>>>>>>>//
  //            Monomer A HF           //
  //<<<<<<<<<<<<<<<<<<<<<<<<<<<<<<<<<<<//


  No DF_BASIS_SCF auxiliary basis selected, defaulting to aug-cc-pvdz-jkfit


*** tstart() called on node113.bme.utexas.edu
*** at Fri Feb 14 19:14:05 2014


         ---------------------------------------------------------
                                   SCF
            by Justin Turney, Rob Parrish, and Andy Simmonett
                              RHF Reference
                        4 Threads,   7000 MiB Core
         ---------------------------------------------------------

  ==> Geometry <==

    Molecular point group: c1
    Full point group: C1

    Geometry (in Angstrom), charge = 0, multiplicity = 1:

       Center              X                  Y                   Z       
    ------------   -----------------  -----------------  -----------------
           C          0.796727522920     0.261039486930    -0.972246189553
           H          1.454992285920     0.805186599930    -0.309234627553
           C          1.284063910920    -0.772871621070    -1.770843055553
           H          2.334050622920    -1.030837677070    -1.740037399553
           C          0.418973392920    -1.474194053070    -2.609816217553
           H          0.797250776920    -2.276400482070    -3.228824733553
           C         -0.933663046080    -1.140049102070    -2.652452234553
           H         -1.604238944080    -1.683193097070    -3.304416589553
           C         -1.421230511080    -0.104506866070    -1.856154005553
           H         -2.470404239080     0.155974275930    -1.891221600553
           C         -0.557277259080     0.595663993930    -1.015008465553
           H         -0.924944116080     1.392846931930    -0.383963489553
           C(Gh)      0.101984086920     0.650128732930     2.337617980447
           O(Gh)      0.348473435920     1.693554976930     1.750378697447
           N(Gh)     -0.202063162080    -0.504877804070     1.686450635447
           H(Gh)     -0.176862850080    -0.511893134070     0.679814028447
           H(Gh)     -0.357839647080    -1.360370121070     2.182152346447
           C(Gh)      0.124828786920     0.555236902930     3.846035452447
           H(Gh)      1.156542587920     0.639449185930     4.181109246447
           H(Gh)     -0.297075124080    -0.371406093070     4.227061124447
           H(Gh)     -0.424635879080     1.399083212930     4.252805962447

  Running in c1 symmetry.

  Nuclear repulsion =  203.612909673425236

  Charge       = 0
  Multiplicity = 1
  Electrons    = 42
  Nalpha       = 21
  Nbeta        = 21

  ==> Algorithm <==

  SCF Algorithm Type is DF.
  DIIS enabled.
  MOM disabled.
  Fractional occupation disabled.
  Guess Type is CORE.
  Energy threshold   = 1.00e-08
  Density threshold  = 1.00e-08
  Integral threshold = 0.00e+00

  ==> Primary Basis <==

  Basis Set: AUG-CC-PVDZ
    Number of shells: 145
    Number of basis function: 329
    Number of Cartesian functions: 349
    Spherical Harmonics?: true
    Max angular momentum: 2

  ==> Pre-Iterations <==

   -------------------------------------------------------
    Irrep   Nso     Nmo     Nalpha   Nbeta   Ndocc  Nsocc
   -------------------------------------------------------
     A        329     329       0       0       0       0
   -------------------------------------------------------
    Total     329     329      21      21      21       0
   -------------------------------------------------------

 OEINTS: Wrapper to libmints.
   by Justin Turney

   Calculation information:
      Number of atoms:                  21
      Number of AO shells:             145
      Number of SO shells:             145
      Number of primitives:            327
      Number of atomic orbitals:       349
      Number of basis functions:       329

      Number of irreps:                  1
      Number of functions per irrep: [ 329 ]

      Overlap, kinetic, potential, dipole, and quadrupole integrals
        stored in file 35.

  ==> Integral Setup <==

  ==> DFJK: Density-Fitted J/K Matrices <==

    J tasked:                  Yes
    K tasked:                  Yes
    wK tasked:                  No
    OpenMP threads:              4
    Integrals threads:           4
    Memory (MB):              5006
    Algorithm:                Core
    Integral Cache:           LOAD
    Schwarz Cutoff:          0E+00
    Fitting Condition:       1E-12

   => Auxiliary Basis Set <=

  Basis Set: aug-cc-pvdz-jkfit
    Number of shells: 412
    Number of basis function: 1212
    Number of Cartesian functions: 1395
    Spherical Harmonics?: true
    Max angular momentum: 3

  Minimum eigenvalue in the overlap matrix is 2.2376505718E-06.
  Using Symmetric Orthogonalization.
  SCF Guess: Core (One-Electron) Hamiltonian.

  Guess energy:  -178.79580094361160

  ==> Iterations <==

                        Total Energy        Delta E     RMS |[F,P]|

   @RHF iter   1:  -193.37475847971552   -1.93375e+02   1.70921e-02 
   @RHF iter   2:  -171.53273717162773    2.18420e+01   1.40661e-02 DIIS
   @RHF iter   3:  -228.38626010277909   -5.68535e+01   5.71052e-03 DIIS
   @RHF iter   4:  -230.19944116166698   -1.81318e+00   2.72429e-03 DIIS
   @RHF iter   5:  -230.66757122331558   -4.68130e-01   9.30882e-04 DIIS
   @RHF iter   6:  -230.72165504515976   -5.40838e-02   3.02379e-04 DIIS
   @RHF iter   7:  -230.72880283210532   -7.14779e-03   3.57665e-05 DIIS
   @RHF iter   8:  -230.72894657293062   -1.43741e-04   9.85429e-06 DIIS
   @RHF iter   9:  -230.72895334838961   -6.77546e-06   4.06180e-06 DIIS
   @RHF iter  10:  -230.72895451977877   -1.17139e-06   1.00836e-06 DIIS
   @RHF iter  11:  -230.72895464297341   -1.23195e-07   1.99094e-07 DIIS
   @RHF iter  12:  -230.72895465280538   -9.83198e-09   9.33752e-08 DIIS
   @RHF iter  13:  -230.72895465614010   -3.33472e-09   4.25498e-08 DIIS
   @RHF iter  14:  -230.72895465702601   -8.85905e-10   5.61148e-09 DIIS

  ==> Post-Iterations <==

	Orbital Energies (a.u.)
	-----------------------

	Doubly Occupied:                                                      

	   1A    -11.242496     2A    -11.241903     3A    -11.241884  
	   4A    -11.240721     5A    -11.240672     6A    -11.240062  
	   7A     -1.152537     8A     -1.017063     9A     -1.016707  
	  10A     -0.825969    11A     -0.825106    12A     -0.710106  
	  13A     -0.644883    14A     -0.619339    15A     -0.588374  
	  16A     -0.588280    17A     -0.501614    18A     -0.495368  
	  19A     -0.493706    20A     -0.336166    21A     -0.336157  

	Virtual:                                                              

	  22A      0.026006    23A      0.037984    24A      0.040986  
	  25A      0.047217    26A      0.052981    27A      0.053906  
	  28A      0.063331    29A      0.068219    30A      0.074547  
	  31A      0.081353    32A      0.097793    33A      0.106272  
	  34A      0.108421    35A      0.110773    36A      0.117835  
	  37A      0.122617    38A      0.128818    39A      0.135331  
	  40A      0.141647    41A      0.143357    42A      0.149754  
	  43A      0.151575    44A      0.154044    45A      0.159021  
	  46A      0.160505    47A      0.164289    48A      0.166833  
	  49A      0.175635    50A      0.178417    51A      0.181216  
	  52A      0.187545    53A      0.188573    54A      0.191786  
	  55A      0.193732    56A      0.196361    57A      0.207002  
	  58A      0.221056    59A      0.238202    60A      0.241936  
	  61A      0.248683    62A      0.260173    63A      0.264725  
	  64A      0.265818    65A      0.269912    66A      0.273668  
	  67A      0.285838    68A      0.304949    69A      0.311161  
	  70A      0.320736    71A      0.327572    72A      0.330217  
	  73A      0.333588    74A      0.341124    75A      0.349388  
	  76A      0.355976    77A      0.362207    78A      0.364987  
	  79A      0.376567    80A      0.382422    81A      0.383364  
	  82A      0.389647    83A      0.391087    84A      0.407130  
	  85A      0.413000    86A      0.415845    87A      0.424823  
	  88A      0.434906    89A      0.439625    90A      0.442368  
	  91A      0.450250    92A      0.457448    93A      0.458402  
	  94A      0.462901    95A      0.477078    96A      0.483598  
	  97A      0.489053    98A      0.508228    99A      0.520288  
	 100A      0.522313   101A      0.526386   102A      0.537157  
	 103A      0.555052   104A      0.564495   105A      0.566037  
	 106A      0.569447   107A      0.581300   108A      0.585998  
	 109A      0.590580   110A      0.598850   111A      0.604320  
	 112A      0.612175   113A      0.614739   114A      0.622368  
	 115A      0.623722   116A      0.636114   117A      0.640999  
	 118A      0.647326   119A      0.653347   120A      0.661764  
	 121A      0.667630   122A      0.676476   123A      0.683659  
	 124A      0.691698   125A      0.694229   126A      0.703763  
	 127A      0.704777   128A      0.709850   129A      0.715891  
	 130A      0.719043   131A      0.728266   132A      0.733082  
	 133A      0.746560   134A      0.753297   135A      0.774393  
	 136A      0.777478   137A      0.782619   138A      0.789563  
	 139A      0.791967   140A      0.801617   141A      0.804016  
	 142A      0.810404   143A      0.830279   144A      0.838535  
	 145A      0.854499   146A      0.858143   147A      0.860131  
	 148A      0.863933   149A      0.868663   150A      0.879379  
	 151A      0.886753   152A      0.899247   153A      0.901378  
	 154A      0.906722   155A      0.916091   156A      0.937501  
	 157A      0.944005   158A      0.966993   159A      0.973239  
	 160A      0.977093   161A      0.985494   162A      0.987830  
	 163A      0.992403   164A      1.006851   165A      1.017232  
	 166A      1.021897   167A      1.036418   168A      1.048969  
	 169A      1.065769   170A      1.088428   171A      1.095080  
	 172A      1.099741   173A      1.111997   174A      1.123757  
	 175A      1.138321   176A      1.142734   177A      1.158250  
	 178A      1.181979   179A      1.202867   180A      1.217152  
	 181A      1.235390   182A      1.249667   183A      1.273124  
	 184A      1.295218   185A      1.315972   186A      1.327562  
	 187A      1.356148   188A      1.357580   189A      1.384839  
	 190A      1.419341   191A      1.442153   192A      1.454894  
	 193A      1.483963   194A      1.490662   195A      1.520063  
	 196A      1.525565   197A      1.533465   198A      1.543217  
	 199A      1.553757   200A      1.576516   201A      1.593594  
	 202A      1.597644   203A      1.602469   204A      1.619023  
	 205A      1.635403   206A      1.645695   207A      1.656089  
	 208A      1.661085   209A      1.681476   210A      1.688286  
	 211A      1.716826   212A      1.725450   213A      1.738512  
	 214A      1.748518   215A      1.752772   216A      1.765602  
	 217A      1.783742   218A      1.812856   219A      1.819507  
	 220A      1.852864   221A      1.871730   222A      1.888545  
	 223A      1.925729   224A      1.930301   225A      1.940089  
	 226A      1.968079   227A      1.980400   228A      1.982952  
	 229A      1.986102   230A      2.008749   231A      2.023196  
	 232A      2.030801   233A      2.050055   234A      2.058450  
	 235A      2.106146   236A      2.121269   237A      2.133851  
	 238A      2.137886   239A      2.165669   240A      2.210068  
	 241A      2.226721   242A      2.246927   243A      2.259877  
	 244A      2.265066   245A      2.268242   246A      2.271758  
	 247A      2.284490   248A      2.298902   249A      2.317481  
	 250A      2.339182   251A      2.347703   252A      2.359374  
	 253A      2.374735   254A      2.387170   255A      2.392685  
	 256A      2.396226   257A      2.399229   258A      2.438492  
	 259A      2.455600   260A      2.458037   261A      2.479722  
	 262A      2.497557   263A      2.526498   264A      2.574493  
	 265A      2.620178   266A      2.643517   267A      2.650596  
	 268A      2.689562   269A      2.702521   270A      2.740597  
	 271A      2.795632   272A      2.804403   273A      2.811888  
	 274A      2.817789   275A      2.830662   276A      2.845671  
	 277A      2.858919   278A      2.928807   279A      2.976368  
	 280A      2.994560   281A      3.002144   282A      3.008998  
	 283A      3.070845   284A      3.099574   285A      3.154735  
	 286A      3.176278   287A      3.181675   288A      3.203576  
	 289A      3.241820   290A      3.270318   291A      3.328787  
	 292A      3.386284   293A      3.406773   294A      3.434620  
	 295A      3.452367   296A      3.548614   297A      3.581940  
	 298A      3.584514   299A      3.642085   300A      3.719854  
	 301A      3.754763   302A      3.797945   303A      3.840703  
	 304A      3.906802   305A      3.968061   306A      4.122569  
	 307A      4.481152   308A      4.618061   309A      4.667084  
	 310A      4.741932   311A      4.789040   312A      4.925429  
	 313A      5.027219   314A      5.082029   315A      5.125850  
	 316A      5.130742   317A      5.156334   318A      5.202225  
	 319A      5.259863   320A      5.907792   321A      6.034556  
	 322A      6.039574   323A      6.261122   324A      6.449928  
	 325A      7.012814   326A     18.389065   327A     19.004813  
	 328A     25.498627   329A     33.536269  

	Final Occupation by Irrep:
	          A 
	DOCC [    21 ]

  Energy converged.

  @RHF Final Energy:  -230.72895465702601

   => Energetics <=

    Nuclear Repulsion Energy =            203.6129096734252357
    One-Electron Energy =                -713.4855030443935675
    Two-Electron Energy =                 279.1436387139432327
    DFT Exchange-Correlation Energy =       0.0000000000000000
    Empirical Dispersion Energy =           0.0000000000000000
    Total Energy =                       -230.7289546570250991



Properties will be evaluated at   0.000000,   0.000000,   0.000000 Bohr
  ==> Properties <==


Properties computed using the SCF density density matrix
  Nuclear Dipole Moment: (a.u.)
     X:    -5.4570      Y:   -34.8578      Z:  -143.8399

  Electronic Dipole Moment: (a.u.)
     X:     5.4566      Y:    34.8567      Z:   143.8445

  Dipole Moment: (a.u.)
     X:    -0.0005      Y:    -0.0010      Z:     0.0046     Total:     0.0047

  Dipole Moment: (Debye)
     X:    -0.0012      Y:    -0.0026      Z:     0.0117     Total:     0.0120


  Saving occupied orbitals to File 180.

  Saving SAPT 2-MONOMER_A file.

*** tstop() called on node113.bme.utexas.edu at Fri Feb 14 19:14:43 2014
Module time:
	user time   =     144.42 seconds =       2.41 minutes
	system time =       1.27 seconds =       0.02 minutes
	total time  =         38 seconds =       0.63 minutes
Total time:
	user time   =     425.24 seconds =       7.09 minutes
	system time =       3.58 seconds =       0.06 minutes
	total time  =        114 seconds =       1.90 minutes

  //>>>>>>>>>>>>>>>>>>>>>>>>>>>>>>>>>>>//
  //            Monomer B HF           //
  //<<<<<<<<<<<<<<<<<<<<<<<<<<<<<<<<<<<//


  No DF_BASIS_SCF auxiliary basis selected, defaulting to aug-cc-pvdz-jkfit


*** tstart() called on node113.bme.utexas.edu
*** at Fri Feb 14 19:14:43 2014


         ---------------------------------------------------------
                                   SCF
            by Justin Turney, Rob Parrish, and Andy Simmonett
                              RHF Reference
                        4 Threads,   7000 MiB Core
         ---------------------------------------------------------

  ==> Geometry <==

    Molecular point group: c1
    Full point group: C1

    Geometry (in Angstrom), charge = 0, multiplicity = 1:

       Center              X                  Y                   Z       
    ------------   -----------------  -----------------  -----------------
           C(Gh)      0.796727522920     0.261039486930    -0.972246189553
           H(Gh)      1.454992285920     0.805186599930    -0.309234627553
           C(Gh)      1.284063910920    -0.772871621070    -1.770843055553
           H(Gh)      2.334050622920    -1.030837677070    -1.740037399553
           C(Gh)      0.418973392920    -1.474194053070    -2.609816217553
           H(Gh)      0.797250776920    -2.276400482070    -3.228824733553
           C(Gh)     -0.933663046080    -1.140049102070    -2.652452234553
           H(Gh)     -1.604238944080    -1.683193097070    -3.304416589553
           C(Gh)     -1.421230511080    -0.104506866070    -1.856154005553
           H(Gh)     -2.470404239080     0.155974275930    -1.891221600553
           C(Gh)     -0.557277259080     0.595663993930    -1.015008465553
           H(Gh)     -0.924944116080     1.392846931930    -0.383963489553
           C          0.101984086920     0.650128732930     2.337617980447
           O          0.348473435920     1.693554976930     1.750378697447
           N         -0.202063162080    -0.504877804070     1.686450635447
           H         -0.176862850080    -0.511893134070     0.679814028447
           H         -0.357839647080    -1.360370121070     2.182152346447
           C          0.124828786920     0.555236902930     3.846035452447
           H          1.156542587920     0.639449185930     4.181109246447
           H         -0.297075124080    -0.371406093070     4.227061124447
           H         -0.424635879080     1.399083212930     4.252805962447

  Running in c1 symmetry.

  Nuclear repulsion =  121.837439384277786

  Charge       = 0
  Multiplicity = 1
  Electrons    = 32
  Nalpha       = 16
  Nbeta        = 16

  ==> Algorithm <==

  SCF Algorithm Type is DF.
  DIIS enabled.
  MOM disabled.
  Fractional occupation disabled.
  Guess Type is CORE.
  Energy threshold   = 1.00e-08
  Density threshold  = 1.00e-08
  Integral threshold = 0.00e+00

  ==> Primary Basis <==

  Basis Set: AUG-CC-PVDZ
    Number of shells: 145
    Number of basis function: 329
    Number of Cartesian functions: 349
    Spherical Harmonics?: true
    Max angular momentum: 2

  ==> Pre-Iterations <==

   -------------------------------------------------------
    Irrep   Nso     Nmo     Nalpha   Nbeta   Ndocc  Nsocc
   -------------------------------------------------------
     A        329     329       0       0       0       0
   -------------------------------------------------------
    Total     329     329      16      16      16       0
   -------------------------------------------------------

 OEINTS: Wrapper to libmints.
   by Justin Turney

   Calculation information:
      Number of atoms:                  21
      Number of AO shells:             145
      Number of SO shells:             145
      Number of primitives:            327
      Number of atomic orbitals:       349
      Number of basis functions:       329

      Number of irreps:                  1
      Number of functions per irrep: [ 329 ]

      Overlap, kinetic, potential, dipole, and quadrupole integrals
        stored in file 35.

  ==> Integral Setup <==

  ==> DFJK: Density-Fitted J/K Matrices <==

    J tasked:                  Yes
    K tasked:                  Yes
    wK tasked:                  No
    OpenMP threads:              4
    Integrals threads:           4
    Memory (MB):              5006
    Algorithm:                Core
    Integral Cache:           LOAD
    Schwarz Cutoff:          0E+00
    Fitting Condition:       1E-12

   => Auxiliary Basis Set <=

  Basis Set: aug-cc-pvdz-jkfit
    Number of shells: 412
    Number of basis function: 1212
    Number of Cartesian functions: 1395
    Spherical Harmonics?: true
    Max angular momentum: 3

  Minimum eigenvalue in the overlap matrix is 2.2376505718E-06.
  Using Symmetric Orthogonalization.
  SCF Guess: Core (One-Electron) Hamiltonian.

  Guess energy:  -164.05597054516011

  ==> Iterations <==

                        Total Energy        Delta E     RMS |[F,P]|

   @RHF iter   1:  -168.43623461850552   -1.68436e+02   1.87514e-02 
   @RHF iter   2:  -133.77810881417091    3.46581e+01   1.86741e-02 DIIS
   @RHF iter   3:  -191.82731358644332   -5.80492e+01   1.04365e-02 DIIS
   @RHF iter   4:  -201.48988859257622   -9.66258e+00   1.01979e-02 DIIS
   @RHF iter   5:  -207.79757162402672   -6.30768e+00   1.89396e-03 DIIS
   @RHF iter   6:  -207.95858530107375   -1.61014e-01   9.87530e-04 DIIS
   @RHF iter   7:  -208.00478421924129   -4.61989e-02   3.27656e-04 DIIS
   @RHF iter   8:  -208.01034210940628   -5.55789e-03   1.63926e-04 DIIS
   @RHF iter   9:  -208.01219273976324   -1.85063e-03   6.12266e-05 DIIS
   @RHF iter  10:  -208.01248461262571   -2.91873e-04   1.37460e-05 DIIS
   @RHF iter  11:  -208.01249964712224   -1.50345e-05   2.49302e-06 DIIS
   @RHF iter  12:  -208.01250004526906   -3.98147e-07   6.13048e-07 DIIS
   @RHF iter  13:  -208.01250009178409   -4.65150e-08   2.36262e-07 DIIS
   @RHF iter  14:  -208.01250009893351   -7.14942e-09   5.36906e-08 DIIS
   @RHF iter  15:  -208.01250009947444   -5.40922e-10   1.78910e-08 DIIS
   @RHF iter  16:  -208.01250009952901   -5.45697e-11   5.87826e-09 DIIS

  ==> Post-Iterations <==

	Orbital Energies (a.u.)
	-----------------------

	Doubly Occupied:                                                      

	   1A    -20.526367     2A    -15.596429     3A    -11.362452  
	   4A    -11.244855     5A     -1.381288     6A     -1.217928  
	   7A     -1.007712     8A     -0.803651     9A     -0.730588  
	  10A     -0.665838    11A     -0.615716    12A     -0.586360  
	  13A     -0.562883    14A     -0.524275    15A     -0.423470  
	  16A     -0.414579  

	Virtual:                                                              

	  17A      0.019182    18A      0.033415    19A      0.037842  
	  20A      0.046763    21A      0.050145    22A      0.056905  
	  23A      0.065160    24A      0.068928    25A      0.071020  
	  26A      0.079583    27A      0.089635    28A      0.102156  
	  29A      0.107676    30A      0.111901    31A      0.119430  
	  32A      0.121588    33A      0.128100    34A      0.134812  
	  35A      0.142206    36A      0.146311    37A      0.152054  
	  38A      0.154135    39A      0.155867    40A      0.157448  
	  41A      0.165545    42A      0.168625    43A      0.173508  
	  44A      0.176259    45A      0.179866    46A      0.188078  
	  47A      0.190534    48A      0.192646    49A      0.198493  
	  50A      0.202931    51A      0.209639    52A      0.215028  
	  53A      0.228722    54A      0.233873    55A      0.237809  
	  56A      0.240807    57A      0.243147    58A      0.251927  
	  59A      0.265701    60A      0.274195    61A      0.288100  
	  62A      0.294881    63A      0.297135    64A      0.306841  
	  65A      0.319900    66A      0.327228    67A      0.339403  
	  68A      0.340731    69A      0.349425    70A      0.353891  
	  71A      0.366871    72A      0.378855    73A      0.384274  
	  74A      0.385924    75A      0.387861    76A      0.398703  
	  77A      0.408598    78A      0.414787    79A      0.420278  
	  80A      0.424670    81A      0.432120    82A      0.435108  
	  83A      0.442532    84A      0.445935    85A      0.455840  
	  86A      0.456961    87A      0.466168    88A      0.469650  
	  89A      0.475520    90A      0.484450    91A      0.489007  
	  92A      0.495096    93A      0.500593    94A      0.508932  
	  95A      0.514686    96A      0.520850    97A      0.526476  
	  98A      0.537478    99A      0.538216   100A      0.543373  
	 101A      0.553770   102A      0.562536   103A      0.563780  
	 104A      0.570188   105A      0.575454   106A      0.589697  
	 107A      0.592366   108A      0.605705   109A      0.616846  
	 110A      0.629414   111A      0.634599   112A      0.637577  
	 113A      0.646635   114A      0.655938   115A      0.662760  
	 116A      0.671638   117A      0.682582   118A      0.688678  
	 119A      0.696763   120A      0.703583   121A      0.719954  
	 122A      0.722401   123A      0.726035   124A      0.733133  
	 125A      0.750831   126A      0.755304   127A      0.761876  
	 128A      0.775231   129A      0.779090   130A      0.786193  
	 131A      0.796012   132A      0.805540   133A      0.811347  
	 134A      0.817999   135A      0.823674   136A      0.835594  
	 137A      0.837028   138A      0.844576   139A      0.850915  
	 140A      0.858849   141A      0.865733   142A      0.872306  
	 143A      0.881779   144A      0.888824   145A      0.894414  
	 146A      0.905007   147A      0.908067   148A      0.918086  
	 149A      0.926282   150A      0.939183   151A      0.943523  
	 152A      0.978319   153A      0.983389   154A      0.991897  
	 155A      1.004329   156A      1.004967   157A      1.028688  
	 158A      1.032333   159A      1.033804   160A      1.041226  
	 161A      1.053770   162A      1.063659   163A      1.074638  
	 164A      1.077475   165A      1.092975   166A      1.097080  
	 167A      1.123641   168A      1.133188   169A      1.134964  
	 170A      1.149412   171A      1.156310   172A      1.159588  
	 173A      1.164992   174A      1.178678   175A      1.193412  
	 176A      1.222990   177A      1.232411   178A      1.237784  
	 179A      1.264540   180A      1.297424   181A      1.333044  
	 182A      1.352817   183A      1.369104   184A      1.383587  
	 185A      1.411581   186A      1.420896   187A      1.430989  
	 188A      1.450665   189A      1.481945   190A      1.487217  
	 191A      1.493832   192A      1.502010   193A      1.527398  
	 194A      1.534295   195A      1.567870   196A      1.587408  
	 197A      1.653179   198A      1.670144   199A      1.680093  
	 200A      1.703783   201A      1.754810   202A      1.774300  
	 203A      1.820032   204A      1.839622   205A      1.869072  
	 206A      1.887956   207A      1.951284   208A      1.972677  
	 209A      2.013582   210A      2.021514   211A      2.043225  
	 212A      2.066508   213A      2.101423   214A      2.114888  
	 215A      2.128169   216A      2.139826   217A      2.157376  
	 218A      2.160216   219A      2.168699   220A      2.178177  
	 221A      2.180574   222A      2.202596   223A      2.207745  
	 224A      2.240000   225A      2.243562   226A      2.260870  
	 227A      2.265644   228A      2.274479   229A      2.290985  
	 230A      2.300169   231A      2.306061   232A      2.322564  
	 233A      2.331312   234A      2.334580   235A      2.369727  
	 236A      2.379507   237A      2.388854   238A      2.404498  
	 239A      2.414344   240A      2.432984   241A      2.452082  
	 242A      2.476979   243A      2.487756   244A      2.511667  
	 245A      2.514093   246A      2.525327   247A      2.538432  
	 248A      2.560846   249A      2.565196   250A      2.584931  
	 251A      2.624789   252A      2.640471   253A      2.643087  
	 254A      2.649736   255A      2.661814   256A      2.673232  
	 257A      2.677819   258A      2.693568   259A      2.703647  
	 260A      2.715255   261A      2.723347   262A      2.737651  
	 263A      2.748720   264A      2.774404   265A      2.782586  
	 266A      2.826463   267A      2.828799   268A      2.850825  
	 269A      2.865326   270A      2.874350   271A      2.885078  
	 272A      2.907925   273A      2.914963   274A      2.924175  
	 275A      2.962800   276A      2.970992   277A      2.977337  
	 278A      3.003687   279A      3.032238   280A      3.067659  
	 281A      3.131559   282A      3.212648   283A      3.214082  
	 284A      3.240621   285A      3.274499   286A      3.288084  
	 287A      3.347760   288A      3.400907   289A      3.447532  
	 290A      3.451471   291A      3.468284   292A      3.484308  
	 293A      3.501634   294A      3.503545   295A      3.544692  
	 296A      3.550982   297A      3.589705   298A      3.671050  
	 299A      3.762470   300A      3.768043   301A      3.839357  
	 302A      3.907985   303A      3.965109   304A      3.977438  
	 305A      3.980335   306A      4.037926   307A      4.049792  
	 308A      4.110865   309A      4.121740   310A      4.202565  
	 311A      4.263821   312A      4.383852   313A      4.428756  
	 314A      4.694990   315A      4.874706   316A      4.939784  
	 317A      5.363200   318A      5.452598   319A      5.460298  
	 320A      5.474920   321A      5.479475   322A      5.644709  
	 323A      6.125946   324A     18.001017   325A     18.404852  
	 326A     18.424167   327A     19.024062   328A     19.092015  
	 329A     20.750794  

	Final Occupation by Irrep:
	          A 
	DOCC [    16 ]

  Energy converged.

  @RHF Final Energy:  -208.01250009952901

   => Energetics <=

    Nuclear Repulsion Energy =            121.8374393842777863
    One-Electron Energy =                -524.3710973567880274
    Two-Electron Energy =                 194.5211578729811208
    DFT Exchange-Correlation Energy =       0.0000000000000000
    Empirical Dispersion Energy =           0.0000000000000000
    Total Energy =                       -208.0125000995291202



Properties will be evaluated at   0.000000,   0.000000,   0.000000 Bohr
  ==> Properties <==


Properties computed using the SCF density density matrix
  Nuclear Dipole Moment: (a.u.)
     X:     4.9782      Y:    32.2035      Z:   148.2170

  Electronic Dipole Moment: (a.u.)
     X:    -5.2822      Y:   -33.7546      Z:  -147.6277

  Dipole Moment: (a.u.)
     X:    -0.3040      Y:    -1.5511      Z:     0.5892     Total:     1.6869

  Dipole Moment: (Debye)
     X:    -0.7727      Y:    -3.9425      Z:     1.4977     Total:     4.2876


  Saving occupied orbitals to File 180.

  Saving SAPT 2-MONOMER_B file.

*** tstop() called on node113.bme.utexas.edu at Fri Feb 14 19:15:26 2014
Module time:
	user time   =     158.57 seconds =       2.64 minutes
	system time =       1.29 seconds =       0.02 minutes
	total time  =         43 seconds =       0.72 minutes
Total time:
	user time   =     583.84 seconds =       9.73 minutes
	system time =       4.87 seconds =       0.08 minutes
	total time  =        157 seconds =       2.62 minutes
  No DF_BASIS_SAPT auxiliary basis selected, defaulting to aug-cc-pvdz-ri

  //>>>>>>>>>>>>>>>>>>>>>>>>>>>>>>>>>>>//
  //               SAPT2+              //
  //<<<<<<<<<<<<<<<<<<<<<<<<<<<<<<<<<<<//


*** tstart() called on node113.bme.utexas.edu
*** at Fri Feb 14 19:15:26 2014

        SAPT2+  
    Ed Hohenstein
     6 June 2009

      Orbital Information
  --------------------------
    NSO        =       329
    NMO        =       329
    NRI        =       973
    NOCC A     =        21
    NOCC B     =        16
    FOCC A     =         6
    FOCC B     =         4
    NVIR A     =       308
    NVIR B     =       313

    Estimated memory usage: 1799.5 MB

    Elst10,r            =    -0.019935822644 H
    Exch10 (S^2)        =     0.038894431714 H
    Exch10              =     0.039687746454 H
    Ind20,r (A<-B)      =    -0.014125353988 H
    Ind20,r (B<-A)      =    -0.004696906436 H
    Ind20,r             =    -0.018822260423 H
    Exch-Ind20,r (A<-B) =     0.010381629232 H
    Exch-Ind20,r (B<-A) =     0.004158972367 H
    Exch-Ind20,r        =     0.014540601599 H
    Disp20              =    -0.017550094110 H
    Exch-Disp20         =     0.003163268993 H
    Elst12,r            =    -0.000169868388 H
    Exch11              =     0.000540373772 H
    Exch12              =     0.002616376311 H
    Ind22               =    -0.001326753000 H
    Disp21              =     0.002847072236 H
    Disp22 (SDQ)        =     0.000070799380 H

    (i =   1 of  12)        830 seconds
    (i =   2 of  12)       1659 seconds
    (i =   3 of  12)       2488 seconds
    (i =   4 of  12)       3317 seconds
    (i =   5 of  12)       4147 seconds
    (i =   6 of  12)       4978 seconds
    (i =   7 of  12)       5807 seconds
    (i =   8 of  12)       6637 seconds
    (i =   9 of  12)       7466 seconds
    (i =  10 of  12)       8296 seconds
    (i =  11 of  12)       9124 seconds
    (i =  12 of  12)       9953 seconds

    Disp220 (T)         =    -0.001476359712 H

    (i =   1 of  15)        593 seconds
    (i =   2 of  15)       1187 seconds
    (i =   3 of  15)       1781 seconds
    (i =   4 of  15)       2375 seconds
    (i =   5 of  15)       2969 seconds
    (i =   6 of  15)       3563 seconds
    (i =   7 of  15)       4156 seconds
    (i =   8 of  15)       4749 seconds
    (i =   9 of  15)       5342 seconds
    (i =  10 of  15)       5936 seconds
    (i =  11 of  15)       6530 seconds
    (i =  12 of  15)       7123 seconds
    (i =  13 of  15)       7716 seconds
    (i =  14 of  15)       8309 seconds
    (i =  15 of  15)       8901 seconds

    Disp202 (T)         =    -0.001610462744 H

    Disp22 (T)          =    -0.003086822456 H

    SAPT Results  
  -----------------------------------------------------------------------
    Electrostatics         -20.10569103 mH     -12.61651213 kcal mol^-1
      Elst10,r             -19.93582264 mH     -12.50991810 kcal mol^-1
      Elst12,r              -0.16986839 mH      -0.10659403 kcal mol^-1

    Exchange                42.84449654 mH      26.88532860 kcal mol^-1
      Exch10                39.68774645 mH      24.90443793 kcal mol^-1
      Exch10(S^2)           38.89443171 mH      24.40662540 kcal mol^-1
      Exch11(S^2)            0.54037377 mH       0.33908968 kcal mol^-1
      Exch12(S^2)            2.61637631 mH       1.64180099 kcal mol^-1

    Induction               -8.81256451 mH      -5.52996795 kcal mol^-1
      Ind20,r              -18.82226042 mH     -11.81114723 kcal mol^-1
      Ind22                 -1.32675300 mH      -0.83255011 kcal mol^-1
      Exch-Ind20,r          14.54060160 mH       9.12436564 kcal mol^-1
      Exch-Ind22             1.02494527 mH       0.64316289 kcal mol^-1
      delta HF,r (2)        -4.22909796 mH      -2.65379915 kcal mol^-1

    Dispersion             -14.55577596 mH      -9.13388769 kcal mol^-1
      Disp20               -17.55009411 mH     -11.01285078 kcal mol^-1
      Disp21                 2.84707224 mH       1.78656488 kcal mol^-1
      Disp22 (SDQ)           0.07079938 mH       0.04442728 kcal mol^-1
      Disp22 (T)            -3.08682246 mH      -1.93701042 kcal mol^-1
      Exch-Disp20            3.16326899 mH       1.98498134 kcal mol^-1

    Total HF                11.24116703 mH       7.05393910 kcal mol^-1
    Total SAPT0             -3.14565809 mH      -1.97393034 kcal mol^-1
    Total SAPT2             -0.46058413 mH      -0.28902091 kcal mol^-1
    Total SAPT2+            -0.62953497 mH      -0.39503917 kcal mol^-1

*** tstop() called on node113.bme.utexas.edu at Sat Feb 15 01:00:22 2014
Module time:
	user time   =   73775.07 seconds =    1229.58 minutes
	system time =     195.03 seconds =       3.25 minutes
	total time  =      20696 seconds =     344.93 minutes
Total time:
	user time   =   74358.91 seconds =    1239.32 minutes
	system time =     199.90 seconds =       3.33 minutes
	total time  =      20853 seconds =     347.55 minutes

*** PSI4 exiting successfully. Buy a developer a beer!
