
    -----------------------------------------------------------------------
          Psi4: An Open-Source Ab Initio Electronic Structure Package
                               Psi4 1.4a2.dev224 

                         Git: Rev {master} e453b16 


    R. M. Parrish, L. A. Burns, D. G. A. Smith, A. C. Simmonett,
    A. E. DePrince III, E. G. Hohenstein, U. Bozkaya, A. Yu. Sokolov,
    R. Di Remigio, R. M. Richard, J. F. Gonthier, A. M. James,
    H. R. McAlexander, A. Kumar, M. Saitow, X. Wang, B. P. Pritchard,
    P. Verma, H. F. Schaefer III, K. Patkowski, R. A. King, E. F. Valeev,
    F. A. Evangelista, J. M. Turney, T. D. Crawford, and C. D. Sherrill,
    J. Chem. Theory Comput. 13(7) pp 3185--3197 (2017).
    (doi: 10.1021/acs.jctc.7b00174)


                         Additional Contributions by
    P. Kraus, H. Kruse, M. H. Lechner, M. C. Schieber, R. A. Shaw,
    A. Alenaizan, R. Galvelis, Z. L. Glick, S. Lehtola, and J. P. Misiewicz

    -----------------------------------------------------------------------


    Psi4 started on: Thursday, 23 April 2020 05:27PM

    Process ID: 73900
    Host:       node92.bme.utexas.edu
    PSIDATADIR: /home/liuchw/anaconda3/envs/psi4env/share/psi4
    Memory:     500.0 MiB
    Threads:    8
    
  ==> Input File <==

--------------------------------------------------------------------------
#Generated by lconvert.py for sapt job

memory 20 GB

molecule  {
0 1
  C       0.855560    0.358530    1.049750
  H       1.513830    0.902680    1.712770
  C       1.342900   -0.675380    0.251160
  H       2.392880   -0.933340    0.281960
  C       0.477810   -1.376700   -0.587820
  H       0.856080   -2.178910   -1.206820
  C      -0.874830   -1.042560   -0.630450
  H      -1.545410   -1.585700   -1.282420
  C      -1.362400   -0.007010    0.165850
  H      -2.411570    0.253470    0.130780
  C      -0.498440    0.693160    1.006990
  H      -0.866110    1.490340    1.638040
--
0 1
  C      -0.173350   -0.311730    6.245050
  O       0.073140    0.731700    5.657810
  N      -0.477390   -1.466740    5.593880
  H      -0.452190   -1.473750    4.587250
  H      -0.633170   -2.322230    6.089580
  C      -0.150500   -0.406620    7.753470
  H       0.881210   -0.322410    8.088540
  H      -0.572410   -1.333260    8.134490
  H      -0.699970    0.437220    8.160240
units angstrom
no_reorient
symmetry c1
}

set {
scf_type DF
basis aug-cc-pvdz
freeze_core True
guess SAD
}
energy('sapt2+')
--------------------------------------------------------------------------

  Memory set to  18.626 GiB by Python driver.

Scratch directory: /scratch/liuchw/

  //>>>>>>>>>>>>>>>>>>>>>>>>>>>>>>>>>>>//
  //              Dimer HF             //
  //<<<<<<<<<<<<<<<<<<<<<<<<<<<<<<<<<<<//


*** tstart() called on node92.bme.utexas.edu
*** at Thu Apr 23 17:27:08 2020

   => Loading Basis Set <=

    Name: AUG-CC-PVDZ
    Role: ORBITAL
    Keyword: BASIS
    atoms 1, 3, 5, 7, 9, 11, 13, 18        entry C          line   182 file /home/liuchw/anaconda3/envs/psi4env/share/psi4/basis/aug-cc-pvdz.gbs 
    atoms 2, 4, 6, 8, 10, 12, 16-17, 19-21 entry H          line    40 file /home/liuchw/anaconda3/envs/psi4env/share/psi4/basis/aug-cc-pvdz.gbs 
    atoms 14                               entry O          line   254 file /home/liuchw/anaconda3/envs/psi4env/share/psi4/basis/aug-cc-pvdz.gbs 
    atoms 15                               entry N          line   218 file /home/liuchw/anaconda3/envs/psi4env/share/psi4/basis/aug-cc-pvdz.gbs 


         ---------------------------------------------------------
                                   SCF
               by Justin Turney, Rob Parrish, Andy Simmonett
                          and Daniel G. A. Smith
                              RHF Reference
                        8 Threads,  19073 MiB Core
         ---------------------------------------------------------

  ==> Geometry <==

    Molecular point group: c1
    Full point group: C1

    Geometry (in Angstrom), charge = 0, multiplicity = 1:

       Center              X                  Y                   Z               Mass       
    ------------   -----------------  -----------------  -----------------  -----------------
         C            0.940638563106     0.717260906627    -1.784236826403    12.000000000000
         H            1.598908563106     1.261410906627    -1.121216826403     1.007825032230
         C            1.427978563106    -0.316649093373    -2.582826826403    12.000000000000
         H            2.477958563106    -0.574609093373    -2.552026826403     1.007825032230
         C            0.562888563106    -1.017969093373    -3.421806826403    12.000000000000
         H            0.941158563106    -1.820179093373    -4.040806826403     1.007825032230
         C           -0.789751436894    -0.683829093373    -3.464436826403    12.000000000000
         H           -1.460331436894    -1.226969093373    -4.116406826403     1.007825032230
         C           -1.277321436894     0.351720906627    -2.668136826403    12.000000000000
         H           -2.326491436894     0.612200906627    -2.703206826403     1.007825032230
         C           -0.413361436894     1.051890906627    -1.826996826403    12.000000000000
         H           -0.781031436894     1.849070906627    -1.195946826403     1.007825032230
         C           -0.088271436894     0.047000906627     3.411063173597    12.000000000000
         O            0.158218563106     1.090430906627     2.823823173597    15.994914619570
         N           -0.392311436894    -1.108009093373     2.759893173597    14.003074004430
         H           -0.367111436894    -1.115019093373     1.753263173597     1.007825032230
         H           -0.548091436894    -1.963499093373     3.255593173597     1.007825032230
         C           -0.065421436894    -0.047889093373     4.919483173597    12.000000000000
         H            0.966288563106     0.036320906627     5.254553173597     1.007825032230
         H           -0.487331436894    -0.974529093373     5.300503173597     1.007825032230
         H           -0.614891436894     0.795950906627     5.326253173597     1.007825032230

  Running in c1 symmetry.

  Rotational constants: A =      0.09212  B =      0.01177  C =      0.01174 [cm^-1]
  Rotational constants: A =   2761.83657  B =    352.74335  C =    352.06823 [MHz]
  Nuclear repulsion =  440.681859201024054

  Charge       = 0
  Multiplicity = 1
  Electrons    = 74
  Nalpha       = 37
  Nbeta        = 37

  ==> Algorithm <==

  SCF Algorithm Type is DF.
  DIIS enabled.
  MOM disabled.
  Fractional occupation disabled.
  Guess Type is SAD.
  Energy threshold   = 1.00e-08
  Density threshold  = 1.00e-08
  Integral threshold = 0.00e+00

  ==> Primary Basis <==

  Basis Set: AUG-CC-PVDZ
    Blend: AUG-CC-PVDZ
    Number of shells: 145
    Number of basis function: 329
    Number of Cartesian functions: 349
    Spherical Harmonics?: true
    Max angular momentum: 2

   => Loading Basis Set <=

    Name: (AUG-CC-PVDZ AUX)
    Role: JKFIT
    Keyword: DF_BASIS_SCF
    atoms 1, 3, 5, 7, 9, 11, 13, 18        entry C          line   154 file /home/liuchw/anaconda3/envs/psi4env/share/psi4/basis/aug-cc-pvdz-jkfit.gbs 
    atoms 2, 4, 6, 8, 10, 12, 16-17, 19-21 entry H          line    70 file /home/liuchw/anaconda3/envs/psi4env/share/psi4/basis/aug-cc-pvdz-jkfit.gbs 
    atoms 14                               entry O          line   270 file /home/liuchw/anaconda3/envs/psi4env/share/psi4/basis/aug-cc-pvdz-jkfit.gbs 
    atoms 15                               entry N          line   212 file /home/liuchw/anaconda3/envs/psi4env/share/psi4/basis/aug-cc-pvdz-jkfit.gbs 

  ==> Pre-Iterations <==

   -------------------------------------------------------
    Irrep   Nso     Nmo     Nalpha   Nbeta   Ndocc  Nsocc
   -------------------------------------------------------
     A        329     329       0       0       0       0
   -------------------------------------------------------
    Total     329     329      37      37      37       0
   -------------------------------------------------------

  ==> Integral Setup <==

  ==> DiskDFJK: Density-Fitted J/K Matrices <==

    J tasked:                  Yes
    K tasked:                  Yes
    wK tasked:                  No
    OpenMP threads:              8
    Integrals threads:           8
    Memory [MiB]:            14305
    Algorithm:                Core
    Integral Cache:           SAVE
    Schwarz Cutoff:          1E-12
    Fitting Condition:       1E-10

   => Auxiliary Basis Set <=

  Basis Set: (AUG-CC-PVDZ AUX)
    Blend: AUG-CC-PVDZ-JKFIT
    Number of shells: 412
    Number of basis function: 1212
    Number of Cartesian functions: 1395
    Spherical Harmonics?: true
    Max angular momentum: 3

  Minimum eigenvalue in the overlap matrix is 2.3232591335E-06.
  Using Symmetric Orthogonalization.

  SCF Guess: Superposition of Atomic Densities via on-the-fly atomic UHF.

  ==> Iterations <==

                           Total Energy        Delta E     RMS |[F,P]|

   @DF-RHF iter SAD:  -437.34786392267694   -4.37348e+02   0.00000e+00 
   @DF-RHF iter   1:  -438.39252934780268   -1.04467e+00   2.37613e-03 DIIS
   @DF-RHF iter   2:  -438.66457828633889   -2.72049e-01   1.25341e-03 DIIS
   @DF-RHF iter   3:  -438.73708189069487   -7.25036e-02   2.40131e-04 DIIS
   @DF-RHF iter   4:  -438.74077828561940   -3.69639e-03   1.10775e-04 DIIS
   @DF-RHF iter   5:  -438.74148362454446   -7.05339e-04   1.81614e-05 DIIS
   @DF-RHF iter   6:  -438.74152101064129   -3.73861e-05   7.30081e-06 DIIS
   @DF-RHF iter   7:  -438.74152765240058   -6.64176e-06   2.67596e-06 DIIS
   @DF-RHF iter   8:  -438.74152889569530   -1.24329e-06   1.00442e-06 DIIS
   @DF-RHF iter   9:  -438.74152907053195   -1.74837e-07   3.09656e-07 DIIS
   @DF-RHF iter  10:  -438.74152908112939   -1.05974e-08   9.74619e-08 DIIS
   @DF-RHF iter  11:  -438.74152908252671   -1.39732e-09   2.85187e-08 DIIS
   @DF-RHF iter  12:  -438.74152908260271   -7.59997e-11   1.26135e-08 DIIS
   @DF-RHF iter  13:  -438.74152908261601   -1.33014e-11   2.88132e-09 DIIS
  Energy and wave function converged.


  ==> Post-Iterations <==

    Orbital Energies [Eh]
    ---------------------

    Doubly Occupied:                                                      

       1A    -20.525085     2A    -15.594000     3A    -11.361369  
       4A    -11.244041     5A    -11.239176     6A    -11.238438  
       7A    -11.237793     8A    -11.237236     9A    -11.236358  
      10A    -11.235286    11A     -1.380256    12A     -1.215795  
      13A     -1.149140    14A     -1.013464    15A     -1.013302  
      16A     -1.006666    17A     -0.822333    18A     -0.821370  
      19A     -0.801753    20A     -0.728180    21A     -0.706392  
      22A     -0.664846    23A     -0.640894    24A     -0.615751  
      25A     -0.614685    26A     -0.585432    27A     -0.584919  
      28A     -0.584217    29A     -0.561815    30A     -0.523090  
      31A     -0.498279    32A     -0.491235    33A     -0.490152  
      34A     -0.422555    35A     -0.412926    36A     -0.333195  
      37A     -0.332397  

    Virtual:                                                              

      38A      0.028708    39A      0.038476    40A      0.044110  
      41A      0.048041    42A      0.050780    43A      0.057232  
      44A      0.062865    45A      0.066294    46A      0.067925  
      47A      0.083953    48A      0.088168    49A      0.107130  
      50A      0.110485    51A      0.111970    52A      0.127912  
      53A      0.130587    54A      0.140799    55A      0.143824  
      56A      0.145561    57A      0.149179    58A      0.150172  
      59A      0.155163    60A      0.157433    61A      0.159857  
      62A      0.162348    63A      0.165440    64A      0.168811  
      65A      0.170617    66A      0.177355    67A      0.180710  
      68A      0.183450    69A      0.186011    70A      0.188978  
      71A      0.192127    72A      0.195152    73A      0.196247  
      74A      0.201582    75A      0.203977    76A      0.214608  
      77A      0.223698    78A      0.229677    79A      0.236071  
      80A      0.271996    81A      0.273254    82A      0.279177  
      83A      0.293286    84A      0.298776    85A      0.301324  
      86A      0.310976    87A      0.316910    88A      0.319186  
      89A      0.333681    90A      0.340232    91A      0.343699  
      92A      0.351442    93A      0.354011    94A      0.356104  
      95A      0.361193    96A      0.369995    97A      0.370889  
      98A      0.379294    99A      0.384072   100A      0.386040  
     101A      0.393258   102A      0.396272   103A      0.397236  
     104A      0.405152   105A      0.420156   106A      0.424156  
     107A      0.429068   108A      0.437272   109A      0.441986  
     110A      0.446187   111A      0.449794   112A      0.451370  
     113A      0.459294   114A      0.461800   115A      0.469191  
     116A      0.485221   117A      0.493245   118A      0.510337  
     119A      0.518789   120A      0.529396   121A      0.532497  
     122A      0.537344   123A      0.548215   124A      0.561297  
     125A      0.579094   126A      0.580472   127A      0.586439  
     128A      0.587543   129A      0.591148   130A      0.595443  
     131A      0.599852   132A      0.603670   133A      0.604451  
     134A      0.608501   135A      0.612297   136A      0.622342  
     137A      0.631445   138A      0.640915   139A      0.648711  
     140A      0.650828   141A      0.663504   142A      0.671113  
     143A      0.677609   144A      0.684638   145A      0.689501  
     146A      0.695493   147A      0.696385   148A      0.702732  
     149A      0.707245   150A      0.710140   151A      0.714112  
     152A      0.717167   153A      0.727943   154A      0.737380  
     155A      0.741050   156A      0.764285   157A      0.771031  
     158A      0.778155   159A      0.782671   160A      0.787131  
     161A      0.791133   162A      0.794058   163A      0.805292  
     164A      0.816281   165A      0.829927   166A      0.861419  
     167A      0.863897   168A      0.866098   169A      0.871071  
     170A      0.891167   171A      0.896105   172A      0.900191  
     173A      0.912420   174A      0.921607   175A      0.929006  
     176A      0.932738   177A      0.935771   178A      0.953454  
     179A      0.955382   180A      0.962524   181A      0.978625  
     182A      0.983589   183A      0.985776   184A      0.993860  
     185A      1.004124   186A      1.006566   187A      1.025141  
     188A      1.026811   189A      1.035651   190A      1.063900  
     191A      1.079695   192A      1.086408   193A      1.092890  
     194A      1.108786   195A      1.111772   196A      1.116145  
     197A      1.123535   198A      1.144065   199A      1.185201  
     200A      1.195180   201A      1.203637   202A      1.204487  
     203A      1.272745   204A      1.302025   205A      1.323880  
     206A      1.352846   207A      1.355855   208A      1.363632  
     209A      1.404474   210A      1.426699   211A      1.445289  
     212A      1.474347   213A      1.489859   214A      1.493125  
     215A      1.510365   216A      1.536078   217A      1.538084  
     218A      1.539033   219A      1.545269   220A      1.550233  
     221A      1.567800   222A      1.569392   223A      1.592407  
     224A      1.619778   225A      1.631037   226A      1.631842  
     227A      1.637249   228A      1.650142   229A      1.654555  
     230A      1.685930   231A      1.718267   232A      1.718628  
     233A      1.718929   234A      1.726391   235A      1.736025  
     236A      1.743323   237A      1.796257   238A      1.800115  
     239A      1.803899   240A      1.809926   241A      1.831566  
     242A      1.857493   243A      1.882645   244A      1.902967  
     245A      1.903746   246A      1.912376   247A      1.922942  
     248A      1.935649   249A      1.938669   250A      1.939481  
     251A      1.958460   252A      1.967076   253A      1.975645  
     254A      1.978009   255A      1.992935   256A      2.004316  
     257A      2.009479   258A      2.028893   259A      2.059080  
     260A      2.110040   261A      2.112504   262A      2.119366  
     263A      2.120099   264A      2.134552   265A      2.154941  
     266A      2.164084   267A      2.182463   268A      2.208958  
     269A      2.212200   270A      2.224451   271A      2.228466  
     272A      2.256149   273A      2.265729   274A      2.272965  
     275A      2.273256   276A      2.296582   277A      2.301983  
     278A      2.316763   279A      2.356827   280A      2.367836  
     281A      2.378345   282A      2.383909   283A      2.385295  
     284A      2.396592   285A      2.404979   286A      2.438951  
     287A      2.458354   288A      2.466172   289A      2.494140  
     290A      2.539473   291A      2.624640   292A      2.626519  
     293A      2.641089   294A      2.686771   295A      2.700517  
     296A      2.759696   297A      2.792035   298A      2.798763  
     299A      2.799311   300A      2.812195   301A      2.814637  
     302A      2.820010   303A      2.827156   304A      2.875200  
     305A      2.898544   306A      2.976483   307A      2.980927  
     308A      2.987278   309A      2.991013   310A      3.044253  
     311A      3.102392   312A      3.152063   313A      3.153257  
     314A      3.160515   315A      3.170204   316A      3.175081  
     317A      3.391225   318A      3.422235   319A      3.569402  
     320A      3.578114   321A      3.587257   322A      3.668433  
     323A      3.779810   324A      3.826821   325A      3.882792  
     326A      3.894109   327A      4.046071   328A      4.180314  
     329A      4.825543  

    Final Occupation by Irrep:
              A 
    DOCC [    37 ]

  @DF-RHF Final Energy:  -438.74152908261601

   => Energetics <=

    Nuclear Repulsion Energy =            440.6818592010240536
    One-Electron Energy =               -1468.5191408125438102
    Two-Electron Energy =                 589.0957525289037449
    Total Energy =                       -438.7415290826160117

Computation Completed


Properties will be evaluated at   0.000000,   0.000000,   0.000000 [a0]

Properties computed using the SCF density matrix

  Nuclear Dipole Moment: [e a0]
     X:    -0.5615      Y:    -2.9163      Z:     4.8434

  Electronic Dipole Moment: [e a0]
     X:     0.2721      Y:     1.4440      Z:    -4.2072

  Dipole Moment: [e a0]
     X:    -0.2894      Y:    -1.4723      Z:     0.6362     Total:     1.6298

  Dipole Moment: [D]
     X:    -0.7356      Y:    -3.7423      Z:     1.6170     Total:     4.1425


*** tstop() called on node92.bme.utexas.edu at Thu Apr 23 17:27:22 2020
Module time:
	user time   =      95.97 seconds =       1.60 minutes
	system time =       1.84 seconds =       0.03 minutes
	total time  =         14 seconds =       0.23 minutes
Total time:
	user time   =      95.97 seconds =       1.60 minutes
	system time =       1.84 seconds =       0.03 minutes
	total time  =         14 seconds =       0.23 minutes

  //>>>>>>>>>>>>>>>>>>>>>>>>>>>>>>>>>>>//
  //            Monomer A HF           //
  //<<<<<<<<<<<<<<<<<<<<<<<<<<<<<<<<<<<//


*** tstart() called on node92.bme.utexas.edu
*** at Thu Apr 23 17:27:22 2020

   => Loading Basis Set <=

    Name: AUG-CC-PVDZ
    Role: ORBITAL
    Keyword: BASIS
    atoms 1, 3, 5, 7, 9, 11, 13, 18        entry C          line   182 file /home/liuchw/anaconda3/envs/psi4env/share/psi4/basis/aug-cc-pvdz.gbs 
    atoms 2, 4, 6, 8, 10, 12, 16-17, 19-21 entry H          line    40 file /home/liuchw/anaconda3/envs/psi4env/share/psi4/basis/aug-cc-pvdz.gbs 
    atoms 14                               entry O          line   254 file /home/liuchw/anaconda3/envs/psi4env/share/psi4/basis/aug-cc-pvdz.gbs 
    atoms 15                               entry N          line   218 file /home/liuchw/anaconda3/envs/psi4env/share/psi4/basis/aug-cc-pvdz.gbs 


         ---------------------------------------------------------
                                   SCF
               by Justin Turney, Rob Parrish, Andy Simmonett
                          and Daniel G. A. Smith
                              RHF Reference
                        8 Threads,  19073 MiB Core
         ---------------------------------------------------------

  ==> Geometry <==

    Molecular point group: c1
    Full point group: C1

    Geometry (in Angstrom), charge = 0, multiplicity = 1:

       Center              X                  Y                   Z               Mass       
    ------------   -----------------  -----------------  -----------------  -----------------
         C            0.940638563106     0.717260906627    -1.784236826403    12.000000000000
         H            1.598908563106     1.261410906627    -1.121216826403     1.007825032230
         C            1.427978563106    -0.316649093373    -2.582826826403    12.000000000000
         H            2.477958563106    -0.574609093373    -2.552026826403     1.007825032230
         C            0.562888563106    -1.017969093373    -3.421806826403    12.000000000000
         H            0.941158563106    -1.820179093373    -4.040806826403     1.007825032230
         C           -0.789751436894    -0.683829093373    -3.464436826403    12.000000000000
         H           -1.460331436894    -1.226969093373    -4.116406826403     1.007825032230
         C           -1.277321436894     0.351720906627    -2.668136826403    12.000000000000
         H           -2.326491436894     0.612200906627    -2.703206826403     1.007825032230
         C           -0.413361436894     1.051890906627    -1.826996826403    12.000000000000
         H           -0.781031436894     1.849070906627    -1.195946826403     1.007825032230
      Gh(C)          -0.088271436894     0.047000906627     3.411063173597    12.000000000000
      Gh(O)           0.158218563106     1.090430906627     2.823823173597    15.994914619570
      Gh(N)          -0.392311436894    -1.108009093373     2.759893173597    14.003074004430
      Gh(H)          -0.367111436894    -1.115019093373     1.753263173597     1.007825032230
      Gh(H)          -0.548091436894    -1.963499093373     3.255593173597     1.007825032230
      Gh(C)          -0.065421436894    -0.047889093373     4.919483173597    12.000000000000
      Gh(H)           0.966288563106     0.036320906627     5.254553173597     1.007825032230
      Gh(H)          -0.487331436894    -0.974529093373     5.300503173597     1.007825032230
      Gh(H)          -0.614891436894     0.795950906627     5.326253173597     1.007825032230

  Running in c1 symmetry.

  Rotational constants: A =      0.09212  B =      0.01177  C =      0.01174 [cm^-1]
  Rotational constants: A =   2761.83657  B =    352.74335  C =    352.06823 [MHz]
  Nuclear repulsion =  203.612794979263299

  Charge       = 0
  Multiplicity = 1
  Electrons    = 42
  Nalpha       = 21
  Nbeta        = 21

  ==> Algorithm <==

  SCF Algorithm Type is DF.
  DIIS enabled.
  MOM disabled.
  Fractional occupation disabled.
  Guess Type is SAD.
  Energy threshold   = 1.00e-08
  Density threshold  = 1.00e-08
  Integral threshold = 0.00e+00

  ==> Primary Basis <==

  Basis Set: AUG-CC-PVDZ
    Blend: AUG-CC-PVDZ
    Number of shells: 145
    Number of basis function: 329
    Number of Cartesian functions: 349
    Spherical Harmonics?: true
    Max angular momentum: 2

   => Loading Basis Set <=

    Name: (AUG-CC-PVDZ AUX)
    Role: JKFIT
    Keyword: DF_BASIS_SCF
    atoms 1, 3, 5, 7, 9, 11, 13, 18        entry C          line   154 file /home/liuchw/anaconda3/envs/psi4env/share/psi4/basis/aug-cc-pvdz-jkfit.gbs 
    atoms 2, 4, 6, 8, 10, 12, 16-17, 19-21 entry H          line    70 file /home/liuchw/anaconda3/envs/psi4env/share/psi4/basis/aug-cc-pvdz-jkfit.gbs 
    atoms 14                               entry O          line   270 file /home/liuchw/anaconda3/envs/psi4env/share/psi4/basis/aug-cc-pvdz-jkfit.gbs 
    atoms 15                               entry N          line   212 file /home/liuchw/anaconda3/envs/psi4env/share/psi4/basis/aug-cc-pvdz-jkfit.gbs 

  ==> Pre-Iterations <==

   -------------------------------------------------------
    Irrep   Nso     Nmo     Nalpha   Nbeta   Ndocc  Nsocc
   -------------------------------------------------------
     A        329     329       0       0       0       0
   -------------------------------------------------------
    Total     329     329      21      21      21       0
   -------------------------------------------------------

  ==> Integral Setup <==

  ==> DiskDFJK: Density-Fitted J/K Matrices <==

    J tasked:                  Yes
    K tasked:                  Yes
    wK tasked:                  No
    OpenMP threads:              8
    Integrals threads:           8
    Memory [MiB]:            14305
    Algorithm:                Core
    Integral Cache:           LOAD
    Schwarz Cutoff:          1E-12
    Fitting Condition:       1E-10

   => Auxiliary Basis Set <=

  Basis Set: (AUG-CC-PVDZ AUX)
    Blend: AUG-CC-PVDZ-JKFIT
    Number of shells: 412
    Number of basis function: 1212
    Number of Cartesian functions: 1395
    Spherical Harmonics?: true
    Max angular momentum: 3

  Minimum eigenvalue in the overlap matrix is 2.3232591335E-06.
  Using Symmetric Orthogonalization.

  SCF Guess: Superposition of Atomic Densities via on-the-fly atomic UHF.

  ==> Iterations <==

                           Total Energy        Delta E     RMS |[F,P]|

   @DF-RHF iter SAD:  -230.14216774760081   -2.30142e+02   0.00000e+00 
   @DF-RHF iter   1:  -230.55295745995659   -4.10790e-01   1.57061e-03 DIIS
   @DF-RHF iter   2:  -230.69250240929017   -1.39545e-01   7.68311e-04 DIIS
   @DF-RHF iter   3:  -230.72653558506713   -3.40332e-02   1.22453e-04 DIIS
   @DF-RHF iter   4:  -230.72797596658086   -1.44038e-03   1.30894e-05 DIIS
   @DF-RHF iter   5:  -230.72799660628553   -2.06397e-05   2.48689e-06 DIIS
   @DF-RHF iter   6:  -230.72799738016391   -7.73878e-07   3.59953e-07 DIIS
   @DF-RHF iter   7:  -230.72799739145489   -1.12910e-08   1.90775e-07 DIIS
   @DF-RHF iter   8:  -230.72799739393656   -2.48167e-09   2.73168e-08 DIIS
   @DF-RHF iter   9:  -230.72799739406980   -1.33241e-10   1.28038e-08 DIIS
   @DF-RHF iter  10:  -230.72799739410112   -3.13207e-11   5.54264e-09 DIIS
  Energy and wave function converged.


  ==> Post-Iterations <==

    Orbital Energies [Eh]
    ---------------------

    Doubly Occupied:                                                      

       1A    -11.242451     2A    -11.241937     3A    -11.241835  
       4A    -11.240715     5A    -11.240628     6A    -11.240072  
       7A     -1.152807     8A     -1.017375     9A     -1.017019  
      10A     -0.826265    11A     -0.825394    12A     -0.710418  
      13A     -0.645149    14A     -0.619638    15A     -0.588720  
      16A     -0.588617    17A     -0.501612    18A     -0.495674  
      19A     -0.494008    20A     -0.336322    21A     -0.336278  

    Virtual:                                                              

      22A      0.024779    23A      0.037622    24A      0.041470  
      25A      0.043982    26A      0.050508    27A      0.053252  
      28A      0.058518    29A      0.063772    30A      0.066034  
      31A      0.078277    32A      0.088922    33A      0.097056  
      34A      0.105239    35A      0.109294    36A      0.112373  
      37A      0.118789    38A      0.122522    39A      0.137477  
      40A      0.138985    41A      0.142939    42A      0.146261  
      43A      0.148759    44A      0.148785    45A      0.152839  
      46A      0.153934    47A      0.158505    48A      0.162490  
      49A      0.165546    50A      0.169400    51A      0.177514  
      52A      0.182168    53A      0.186013    54A      0.188199  
      55A      0.188616    56A      0.191341    57A      0.193096  
      58A      0.198773    59A      0.207224    60A      0.218612  
      61A      0.221306    62A      0.229836    63A      0.249774  
      64A      0.257213    65A      0.259847    66A      0.269355  
      67A      0.278811    68A      0.285070    69A      0.300565  
      70A      0.305207    71A      0.312360    72A      0.317536  
      73A      0.319768    74A      0.335033    75A      0.336617  
      76A      0.344407    77A      0.350902    78A      0.356891  
      79A      0.363171    80A      0.366963    81A      0.373732  
      82A      0.377866    83A      0.382743    84A      0.384974  
      85A      0.392701    86A      0.408285    87A      0.412359  
      88A      0.425547    89A      0.428146    90A      0.432426  
      91A      0.433559    92A      0.446077    93A      0.446953  
      94A      0.448772    95A      0.452369    96A      0.459293  
      97A      0.468680    98A      0.476862    99A      0.481271  
     100A      0.485133   101A      0.507622   102A      0.515553  
     103A      0.523800   104A      0.524987   105A      0.544154  
     106A      0.546718   107A      0.549045   108A      0.560674  
     109A      0.571859   110A      0.580489   111A      0.581313  
     112A      0.586602   113A      0.588791   114A      0.592879  
     115A      0.595321   116A      0.603993   117A      0.604571  
     118A      0.609601   119A      0.629790   120A      0.641615  
     121A      0.652628   122A      0.665525   123A      0.667389  
     124A      0.672677   125A      0.681295   126A      0.686041  
     127A      0.691792   128A      0.692712   129A      0.695180  
     130A      0.701842   131A      0.704728   132A      0.708799  
     133A      0.712408   134A      0.718644   135A      0.732539  
     136A      0.742493   137A      0.762521   138A      0.768550  
     139A      0.772714   140A      0.774648   141A      0.777320  
     142A      0.780651   143A      0.785068   144A      0.796187  
     145A      0.813380   146A      0.827949   147A      0.836501  
     148A      0.842496   149A      0.857325   150A      0.858128  
     151A      0.859267   152A      0.861942   153A      0.878364  
     154A      0.892158   155A      0.894338   156A      0.915938  
     157A      0.925261   158A      0.929044   159A      0.935535  
     160A      0.940956   161A      0.948344   162A      0.961620  
     163A      0.967077   164A      0.972469   165A      0.975221  
     166A      0.979149   167A      0.983312   168A      1.004094  
     169A      1.015070   170A      1.017816   171A      1.029609  
     172A      1.038257   173A      1.051841   174A      1.071934  
     175A      1.077632   176A      1.081216   177A      1.102061  
     178A      1.108583   179A      1.138985   180A      1.146996  
     181A      1.173442   182A      1.184326   183A      1.189881  
     184A      1.198900   185A      1.213200   186A      1.217953  
     187A      1.253422   188A      1.283765   189A      1.320156  
     190A      1.345121   191A      1.348881   192A      1.361302  
     193A      1.411324   194A      1.432530   195A      1.451427  
     196A      1.462516   197A      1.487422   198A      1.507163  
     199A      1.517910   200A      1.534780   201A      1.535916  
     202A      1.541690   203A      1.544316   204A      1.559244  
     205A      1.563993   206A      1.587433   207A      1.616060  
     208A      1.628048   209A      1.632460   210A      1.646955  
     211A      1.648519   212A      1.681307   213A      1.697501  
     214A      1.712805   215A      1.714946   216A      1.716068  
     217A      1.724999   218A      1.741714   219A      1.794266  
     220A      1.796512   221A      1.799997   222A      1.853656  
     223A      1.881349   224A      1.899285   225A      1.900805  
     226A      1.923199   227A      1.933370   228A      1.954709  
     229A      1.961522   230A      1.963709   231A      1.971607  
     232A      1.972826   233A      1.989070   234A      2.000353  
     235A      2.041354   236A      2.106018   237A      2.110769  
     238A      2.115488   239A      2.130868   240A      2.156036  
     241A      2.205174   242A      2.208438   243A      2.217008  
     244A      2.220214   245A      2.235861   246A      2.253778  
     247A      2.267044   248A      2.268546   249A      2.269382  
     250A      2.298032   251A      2.305723   252A      2.338660  
     253A      2.347018   254A      2.356609   255A      2.362406  
     256A      2.364354   257A      2.376124   258A      2.377475  
     259A      2.392491   260A      2.399471   261A      2.403830  
     262A      2.453912   263A      2.459701   264A      2.461285  
     265A      2.501324   266A      2.522445   267A      2.562060  
     268A      2.622703   269A      2.667500   270A      2.682754  
     271A      2.777495   272A      2.782078   273A      2.794909  
     274A      2.795393   275A      2.799372   276A      2.802745  
     277A      2.813436   278A      2.822332   279A      2.856144  
     280A      2.968969   281A      2.971993   282A      2.977941  
     283A      2.983864   284A      3.022961   285A      3.137131  
     286A      3.148421   287A      3.151493   288A      3.158871  
     289A      3.164863   290A      3.211326   291A      3.283264  
     292A      3.313521   293A      3.356585   294A      3.386915  
     295A      3.413263   296A      3.479789   297A      3.527486  
     298A      3.564092   299A      3.569186   300A      3.585119  
     301A      3.636728   302A      3.696623   303A      3.764734  
     304A      3.846723   305A      3.890086   306A      4.095188  
     307A      4.418422   308A      4.469529   309A      4.567849  
     310A      4.624882   311A      4.743078   312A      4.819713  
     313A      4.983639   314A      5.020589   315A      5.040785  
     316A      5.118500   317A      5.130745   318A      5.143084  
     319A      5.201102   320A      5.853124   321A      5.974130  
     322A      6.006403   323A      6.191164   324A      6.374327  
     325A      7.002383   326A     18.367844   327A     18.974626  
     328A     25.481826   329A     33.537003  

    Final Occupation by Irrep:
              A 
    DOCC [    21 ]

  @DF-RHF Final Energy:  -230.72799739410112

   => Energetics <=

    Nuclear Repulsion Energy =            203.6127949792632990
    One-Electron Energy =                -713.4757178959420116
    Two-Electron Energy =                 279.1349255225775892
    Total Energy =                       -230.7279973941011235

Computation Completed


Properties will be evaluated at   0.000000,   0.000000,   0.000000 [a0]

Properties computed using the SCF density matrix

  Nuclear Dipole Moment: [e a0]
     X:     5.9651      Y:     1.3521      Z:  -208.2861

  Electronic Dipole Moment: [e a0]
     X:    -5.9656      Y:    -1.3537      Z:   208.2894

  Dipole Moment: [e a0]
     X:    -0.0005      Y:    -0.0017      Z:     0.0033     Total:     0.0038

  Dipole Moment: [D]
     X:    -0.0013      Y:    -0.0042      Z:     0.0085     Total:     0.0096


*** tstop() called on node92.bme.utexas.edu at Thu Apr 23 17:27:28 2020
Module time:
	user time   =      37.34 seconds =       0.62 minutes
	system time =       0.96 seconds =       0.02 minutes
	total time  =          6 seconds =       0.10 minutes
Total time:
	user time   =     133.36 seconds =       2.22 minutes
	system time =       2.80 seconds =       0.05 minutes
	total time  =         20 seconds =       0.33 minutes

  //>>>>>>>>>>>>>>>>>>>>>>>>>>>>>>>>>>>//
  //            Monomer B HF           //
  //<<<<<<<<<<<<<<<<<<<<<<<<<<<<<<<<<<<//


*** tstart() called on node92.bme.utexas.edu
*** at Thu Apr 23 17:27:28 2020

   => Loading Basis Set <=

    Name: AUG-CC-PVDZ
    Role: ORBITAL
    Keyword: BASIS
    atoms 1, 3, 5, 7, 9, 11, 13, 18        entry C          line   182 file /home/liuchw/anaconda3/envs/psi4env/share/psi4/basis/aug-cc-pvdz.gbs 
    atoms 2, 4, 6, 8, 10, 12, 16-17, 19-21 entry H          line    40 file /home/liuchw/anaconda3/envs/psi4env/share/psi4/basis/aug-cc-pvdz.gbs 
    atoms 14                               entry O          line   254 file /home/liuchw/anaconda3/envs/psi4env/share/psi4/basis/aug-cc-pvdz.gbs 
    atoms 15                               entry N          line   218 file /home/liuchw/anaconda3/envs/psi4env/share/psi4/basis/aug-cc-pvdz.gbs 


         ---------------------------------------------------------
                                   SCF
               by Justin Turney, Rob Parrish, Andy Simmonett
                          and Daniel G. A. Smith
                              RHF Reference
                        8 Threads,  19073 MiB Core
         ---------------------------------------------------------

  ==> Geometry <==

    Molecular point group: c1
    Full point group: C1

    Geometry (in Angstrom), charge = 0, multiplicity = 1:

       Center              X                  Y                   Z               Mass       
    ------------   -----------------  -----------------  -----------------  -----------------
      Gh(C)           0.940638563106     0.717260906627    -1.784236826403    12.000000000000
      Gh(H)           1.598908563106     1.261410906627    -1.121216826403     1.007825032230
      Gh(C)           1.427978563106    -0.316649093373    -2.582826826403    12.000000000000
      Gh(H)           2.477958563106    -0.574609093373    -2.552026826403     1.007825032230
      Gh(C)           0.562888563106    -1.017969093373    -3.421806826403    12.000000000000
      Gh(H)           0.941158563106    -1.820179093373    -4.040806826403     1.007825032230
      Gh(C)          -0.789751436894    -0.683829093373    -3.464436826403    12.000000000000
      Gh(H)          -1.460331436894    -1.226969093373    -4.116406826403     1.007825032230
      Gh(C)          -1.277321436894     0.351720906627    -2.668136826403    12.000000000000
      Gh(H)          -2.326491436894     0.612200906627    -2.703206826403     1.007825032230
      Gh(C)          -0.413361436894     1.051890906627    -1.826996826403    12.000000000000
      Gh(H)          -0.781031436894     1.849070906627    -1.195946826403     1.007825032230
         C           -0.088271436894     0.047000906627     3.411063173597    12.000000000000
         O            0.158218563106     1.090430906627     2.823823173597    15.994914619570
         N           -0.392311436894    -1.108009093373     2.759893173597    14.003074004430
         H           -0.367111436894    -1.115019093373     1.753263173597     1.007825032230
         H           -0.548091436894    -1.963499093373     3.255593173597     1.007825032230
         C           -0.065421436894    -0.047889093373     4.919483173597    12.000000000000
         H            0.966288563106     0.036320906627     5.254553173597     1.007825032230
         H           -0.487331436894    -0.974529093373     5.300503173597     1.007825032230
         H           -0.614891436894     0.795950906627     5.326253173597     1.007825032230

  Running in c1 symmetry.

  Rotational constants: A =      0.09212  B =      0.01177  C =      0.01174 [cm^-1]
  Rotational constants: A =   2761.83657  B =    352.74335  C =    352.06823 [MHz]
  Nuclear repulsion =  121.837315434478342

  Charge       = 0
  Multiplicity = 1
  Electrons    = 32
  Nalpha       = 16
  Nbeta        = 16

  ==> Algorithm <==

  SCF Algorithm Type is DF.
  DIIS enabled.
  MOM disabled.
  Fractional occupation disabled.
  Guess Type is SAD.
  Energy threshold   = 1.00e-08
  Density threshold  = 1.00e-08
  Integral threshold = 0.00e+00

  ==> Primary Basis <==

  Basis Set: AUG-CC-PVDZ
    Blend: AUG-CC-PVDZ
    Number of shells: 145
    Number of basis function: 329
    Number of Cartesian functions: 349
    Spherical Harmonics?: true
    Max angular momentum: 2

   => Loading Basis Set <=

    Name: (AUG-CC-PVDZ AUX)
    Role: JKFIT
    Keyword: DF_BASIS_SCF
    atoms 1, 3, 5, 7, 9, 11, 13, 18        entry C          line   154 file /home/liuchw/anaconda3/envs/psi4env/share/psi4/basis/aug-cc-pvdz-jkfit.gbs 
    atoms 2, 4, 6, 8, 10, 12, 16-17, 19-21 entry H          line    70 file /home/liuchw/anaconda3/envs/psi4env/share/psi4/basis/aug-cc-pvdz-jkfit.gbs 
    atoms 14                               entry O          line   270 file /home/liuchw/anaconda3/envs/psi4env/share/psi4/basis/aug-cc-pvdz-jkfit.gbs 
    atoms 15                               entry N          line   212 file /home/liuchw/anaconda3/envs/psi4env/share/psi4/basis/aug-cc-pvdz-jkfit.gbs 

  ==> Pre-Iterations <==

   -------------------------------------------------------
    Irrep   Nso     Nmo     Nalpha   Nbeta   Ndocc  Nsocc
   -------------------------------------------------------
     A        329     329       0       0       0       0
   -------------------------------------------------------
    Total     329     329      16      16      16       0
   -------------------------------------------------------

  ==> Integral Setup <==

  ==> DiskDFJK: Density-Fitted J/K Matrices <==

    J tasked:                  Yes
    K tasked:                  Yes
    wK tasked:                  No
    OpenMP threads:              8
    Integrals threads:           8
    Memory [MiB]:            14305
    Algorithm:                Core
    Integral Cache:           LOAD
    Schwarz Cutoff:          1E-12
    Fitting Condition:       1E-10

   => Auxiliary Basis Set <=

  Basis Set: (AUG-CC-PVDZ AUX)
    Blend: AUG-CC-PVDZ-JKFIT
    Number of shells: 412
    Number of basis function: 1212
    Number of Cartesian functions: 1395
    Spherical Harmonics?: true
    Max angular momentum: 3

  Minimum eigenvalue in the overlap matrix is 2.3232591335E-06.
  Using Symmetric Orthogonalization.

  SCF Guess: Superposition of Atomic Densities via on-the-fly atomic UHF.

  ==> Iterations <==

                           Total Energy        Delta E     RMS |[F,P]|

   @DF-RHF iter SAD:  -207.19882865041430   -2.07199e+02   0.00000e+00 
   @DF-RHF iter   1:  -207.83593525361172   -6.37107e-01   1.79291e-03 DIIS
   @DF-RHF iter   2:  -207.96930763402099   -1.33372e-01   1.00365e-03 DIIS
   @DF-RHF iter   3:  -208.00918529906644   -3.98777e-02   1.96108e-04 DIIS
   @DF-RHF iter   4:  -208.01156428380267   -2.37898e-03   7.97521e-05 DIIS
   @DF-RHF iter   5:  -208.01203926851383   -4.74985e-04   1.44197e-05 DIIS
   @DF-RHF iter   6:  -208.01206716318123   -2.78947e-05   7.03051e-06 DIIS
   @DF-RHF iter   7:  -208.01207262689596   -5.46371e-06   2.51654e-06 DIIS
   @DF-RHF iter   8:  -208.01207370689090   -1.07999e-06   8.08381e-07 DIIS
   @DF-RHF iter   9:  -208.01207382788186   -1.20991e-07   2.00907e-07 DIIS
   @DF-RHF iter  10:  -208.01207383315921   -5.27734e-09   6.35663e-08 DIIS
   @DF-RHF iter  11:  -208.01207383369888   -5.39671e-10   1.46681e-08 DIIS
   @DF-RHF iter  12:  -208.01207383372878   -2.98996e-11   3.46935e-09 DIIS
  Energy and wave function converged.


  ==> Post-Iterations <==

    Orbital Energies [Eh]
    ---------------------

    Doubly Occupied:                                                      

       1A    -20.526201     2A    -15.596520     3A    -11.362563  
       4A    -11.244926     5A     -1.381367     6A     -1.218018  
       7A     -1.007737     8A     -0.803718     9A     -0.730629  
      10A     -0.665884    11A     -0.615730    12A     -0.586407  
      13A     -0.562887    14A     -0.524332    15A     -0.423526  
      16A     -0.414661  

    Virtual:                                                              

      17A      0.020888    18A      0.031186    19A      0.039318  
      20A      0.044668    21A      0.047110    22A      0.056651  
      23A      0.060537    24A      0.065446    25A      0.066229  
      26A      0.075026    27A      0.085710    28A      0.097347  
      29A      0.104741    30A      0.113847    31A      0.114991  
      32A      0.118511    33A      0.121983    34A      0.131687  
      35A      0.139238    36A      0.142267    37A      0.146198  
      38A      0.152090    39A      0.152721    40A      0.158745  
      41A      0.159583    42A      0.162205    43A      0.167650  
      44A      0.170008    45A      0.171853    46A      0.178959  
      47A      0.182912    48A      0.186944    49A      0.188293  
      50A      0.193846    51A      0.198997    52A      0.200595  
      53A      0.201802    54A      0.215847    55A      0.223186  
      56A      0.225546    57A      0.240693    58A      0.242025  
      59A      0.251735    60A      0.274511    61A      0.277166  
      62A      0.289092    63A      0.291323    64A      0.294629  
      65A      0.298393    66A      0.304278    67A      0.323112  
      68A      0.333509    69A      0.343263    70A      0.350279  
      71A      0.355771    72A      0.358133    73A      0.370414  
      74A      0.372900    75A      0.376967    76A      0.383630  
      77A      0.385852    78A      0.398842    79A      0.403106  
      80A      0.416268    81A      0.419164    82A      0.425015  
      83A      0.427324    84A      0.429782    85A      0.443565  
      86A      0.452040    87A      0.455410    88A      0.458165  
      89A      0.465971    90A      0.469534    91A      0.475754  
      92A      0.480320    93A      0.483025    94A      0.485620  
      95A      0.499117    96A      0.499874    97A      0.511697  
      98A      0.516774    99A      0.526975   100A      0.533200  
     101A      0.536086   102A      0.540855   103A      0.546288  
     104A      0.555154   105A      0.559294   106A      0.561160  
     107A      0.564068   108A      0.567024   109A      0.576744  
     110A      0.591657   111A      0.598981   112A      0.604182  
     113A      0.624602   114A      0.634794   115A      0.639212  
     116A      0.643491   117A      0.644503   118A      0.651741  
     119A      0.652688   120A      0.659450   121A      0.678042  
     122A      0.681324   123A      0.685573   124A      0.696146  
     125A      0.701360   126A      0.712167   127A      0.718463  
     128A      0.726868   129A      0.731982   130A      0.743421  
     131A      0.763713   132A      0.784888   133A      0.785918  
     134A      0.793325   135A      0.795696   136A      0.800514  
     137A      0.806335   138A      0.819013   139A      0.821747  
     140A      0.836058   141A      0.848429   142A      0.851484  
     143A      0.863693   144A      0.873555   145A      0.882197  
     146A      0.888863   147A      0.891742   148A      0.896515  
     149A      0.896738   150A      0.901756   151A      0.906620  
     152A      0.912276   153A      0.920881   154A      0.926067  
     155A      0.939470   156A      0.944227   157A      0.983043  
     158A      0.990131   159A      0.997403   160A      1.012770  
     161A      1.018787   162A      1.020750   163A      1.028310  
     164A      1.036143   165A      1.054007   166A      1.055504  
     167A      1.062414   168A      1.078832   169A      1.090194  
     170A      1.112241   171A      1.122523   172A      1.124563  
     173A      1.128952   174A      1.134304   175A      1.135355  
     176A      1.144074   177A      1.197317   178A      1.203071  
     179A      1.243645   180A      1.266547   181A      1.270782  
     182A      1.274356   183A      1.302302   184A      1.323820  
     185A      1.367371   186A      1.393488   187A      1.405458  
     188A      1.410011   189A      1.412025   190A      1.431538  
     191A      1.468271   192A      1.477309   193A      1.484274  
     194A      1.492725   195A      1.494937   196A      1.499112  
     197A      1.538286   198A      1.570689   199A      1.631963  
     200A      1.674211   201A      1.733918   202A      1.738202  
     203A      1.808487   204A      1.819189   205A      1.830072  
     206A      1.881711   207A      1.911380   208A      1.933376  
     209A      1.935511   210A      2.002123   211A      2.024006  
     212A      2.047683   213A      2.056159   214A      2.084822  
     215A      2.116677   216A      2.124835   217A      2.135898  
     218A      2.138740   219A      2.140011   220A      2.142017  
     221A      2.158469   222A      2.178868   223A      2.192070  
     224A      2.206139   225A      2.217910   226A      2.218678  
     227A      2.243860   228A      2.247372   229A      2.249863  
     230A      2.260624   231A      2.268278   232A      2.279403  
     233A      2.295525   234A      2.296654   235A      2.303101  
     236A      2.309989   237A      2.317566   238A      2.318550  
     239A      2.325607   240A      2.356841   241A      2.363815  
     242A      2.380178   243A      2.395694   244A      2.410866  
     245A      2.456691   246A      2.492370   247A      2.499988  
     248A      2.504373   249A      2.505354   250A      2.506263  
     251A      2.523080   252A      2.538403   253A      2.611355  
     254A      2.623147   255A      2.632853   256A      2.636055  
     257A      2.638659   258A      2.649963   259A      2.659603  
     260A      2.662632   261A      2.673879   262A      2.680454  
     263A      2.698040   264A      2.710376   265A      2.743929  
     266A      2.754577   267A      2.774831   268A      2.803114  
     269A      2.821232   270A      2.867976   271A      2.869222  
     272A      2.870468   273A      2.874245   274A      2.875676  
     275A      2.880135   276A      2.882536   277A      2.897327  
     278A      2.953187   279A      2.955113   280A      2.988317  
     281A      3.043267   282A      3.062506   283A      3.102306  
     284A      3.166877   285A      3.200355   286A      3.263929  
     287A      3.340128   288A      3.399174   289A      3.399993  
     290A      3.401272   291A      3.404009   292A      3.411468  
     293A      3.413661   294A      3.424649   295A      3.472179  
     296A      3.472764   297A      3.480399   298A      3.542227  
     299A      3.584749   300A      3.666899   301A      3.697478  
     302A      3.778710   303A      3.825919   304A      3.876613  
     305A      3.937476   306A      3.950843   307A      3.985560  
     308A      3.997493   309A      4.047295   310A      4.110322  
     311A      4.180652   312A      4.385562   313A      4.387615  
     314A      4.669407   315A      4.852428   316A      4.859641  
     317A      5.303719   318A      5.454530   319A      5.459067  
     320A      5.475846   321A      5.479630   322A      5.651250  
     323A      6.076740   324A     17.991716   325A     18.387584  
     326A     18.391457   327A     19.007914   328A     19.013550  
     329A     20.674322  

    Final Occupation by Irrep:
              A 
    DOCC [    16 ]

  @DF-RHF Final Energy:  -208.01207383372878

   => Energetics <=

    Nuclear Repulsion Energy =            121.8373154344783416
    One-Electron Energy =                -524.3685660530458108
    Two-Electron Energy =                 194.5191767848386917
    Total Energy =                       -208.0120738337287776

Computation Completed


Properties will be evaluated at   0.000000,   0.000000,   0.000000 [a0]

Properties computed using the SCF density matrix

  Nuclear Dipole Moment: [e a0]
     X:    -6.5266      Y:    -4.2684      Z:   213.1295

  Electronic Dipole Moment: [e a0]
     X:     6.2225      Y:     2.7163      Z:  -212.5391

  Dipole Moment: [e a0]
     X:    -0.3041      Y:    -1.5520      Z:     0.5904     Total:     1.6881

  Dipole Moment: [D]
     X:    -0.7728      Y:    -3.9449      Z:     1.5007     Total:     4.2908


*** tstop() called on node92.bme.utexas.edu at Thu Apr 23 17:27:35 2020
Module time:
	user time   =      44.23 seconds =       0.74 minutes
	system time =       1.17 seconds =       0.02 minutes
	total time  =          7 seconds =       0.12 minutes
Total time:
	user time   =     177.64 seconds =       2.96 minutes
	system time =       3.97 seconds =       0.07 minutes
	total time  =         27 seconds =       0.45 minutes
  Constructing Basis Sets for SAPT...

   => Loading Basis Set <=

    Name: (AUG-CC-PVDZ AUX)
    Role: RIFIT
    Keyword: DF_BASIS_SAPT
    atoms 1, 3, 5, 7, 9, 11, 13, 18        entry C          line   112 file /home/liuchw/anaconda3/envs/psi4env/share/psi4/basis/aug-cc-pvdz-ri.gbs 
    atoms 2, 4, 6, 8, 10, 12, 16-17, 19-21 entry H          line    30 file /home/liuchw/anaconda3/envs/psi4env/share/psi4/basis/aug-cc-pvdz-ri.gbs 
    atoms 14                               entry O          line   204 file /home/liuchw/anaconda3/envs/psi4env/share/psi4/basis/aug-cc-pvdz-ri.gbs 
    atoms 15                               entry N          line   158 file /home/liuchw/anaconda3/envs/psi4env/share/psi4/basis/aug-cc-pvdz-ri.gbs 


  //>>>>>>>>>>>>>>>>>>>>>>>>>>>>>>>>>>>//
  //               SAPT2+              //
  //<<<<<<<<<<<<<<<<<<<<<<<<<<<<<<<<<<<//


*** tstart() called on node92.bme.utexas.edu
*** at Thu Apr 23 17:27:35 2020

        SAPT2+  
    Ed Hohenstein
     6 June 2009

      Orbital Information
  --------------------------
    NSO        =       329
    NMO        =       329
    NRI        =       973
    NOCC A     =        21
    NOCC B     =        16
    FOCC A     =         6
    FOCC B     =         4
    NVIR A     =       308
    NVIR B     =       313

    Estimated memory usage: 1799.5 MB

    Natural Orbital Cutoff:   1.000E-06
    Disp(T3) Truncation:            Yes
    CCD (vv|vv) Truncation:         Yes
    MBPT T2 Truncation:             Yes

    Monomer A: 148 virtual orbitals dropped
    Monomer B: 197 virtual orbitals dropped

    Elst10,r            =    -0.001361640696 [Eh]
    Exch10 (S^2)        =     0.000086083875 [Eh]
    Exch10              =     0.000086093620 [Eh]
    Ind20,r (A<-B)      =    -0.000173104701 [Eh]
    Ind20,r (B<-A)      =    -0.000021567397 [Eh]
    Ind20,r             =    -0.000194672098 [Eh]
    Exch-Ind20,r (A<-B) =     0.000018487783 [Eh]
    Exch-Ind20,r (B<-A) =     0.000005052180 [Eh]
    Exch-Ind20,r        =     0.000023539962 [Eh]
    Disp20              =    -0.000850875598 [Eh]
    Disp20 (NO)         =    -0.000819567942 [Eh]
    Exch-Disp20         =     0.000014917120 [Eh]
    Elst12,r            =     0.000252243006 [Eh]
    Exch11              =    -0.000002094432 [Eh]
    Exch12              =     0.000026362135 [Eh]
    Ind22               =     0.000023348018 [Eh]
    Disp21              =     0.000181976208 [Eh]
    Disp22 (SDQ)        =    -0.000007376926 [Eh]

    (i =   1 of  12)         16 seconds
    (i =   2 of  12)         32 seconds
    (i =   3 of  12)         48 seconds
    (i =   4 of  12)         64 seconds
    (i =   5 of  12)         80 seconds
    (i =   6 of  12)         96 seconds
    (i =   7 of  12)        112 seconds
    (i =   8 of  12)        128 seconds
    (i =   9 of  12)        144 seconds
    (i =  10 of  12)        160 seconds
    (i =  11 of  12)        176 seconds
    (i =  12 of  12)        192 seconds

    Disp220 (T)         =    -0.000082843431 [Eh]

    (i =   1 of  15)          7 seconds
    (i =   2 of  15)         14 seconds
    (i =   3 of  15)         22 seconds
    (i =   4 of  15)         29 seconds
    (i =   5 of  15)         36 seconds
    (i =   6 of  15)         43 seconds
    (i =   7 of  15)         50 seconds
    (i =   8 of  15)         57 seconds
    (i =   9 of  15)         64 seconds
    (i =  10 of  15)         71 seconds
    (i =  11 of  15)         78 seconds
    (i =  12 of  15)         85 seconds
    (i =  13 of  15)         93 seconds
    (i =  14 of  15)        100 seconds
    (i =  15 of  15)        107 seconds

    Disp202 (T)         =    -0.000090986123 [Eh]

    Disp22 (T)          =    -0.000173829554 [Eh]

    Est. Disp220 (T)    =    -0.000086008066 [Eh]
    Est. Disp202 (T)    =    -0.000094461811 [Eh]

    Est. Disp22 (T)     =    -0.000180469877 [Eh]

    SAPT Results 
  --------------------------------------------------------------------------------------------------------
    Electrostatics                 -1.10939769 [mEh]      -0.69615756 [kcal/mol]      -2.91272324 [kJ/mol]
      Elst10,r                     -1.36164070 [mEh]      -0.85444244 [kcal/mol]      -3.57498716 [kJ/mol]
      Elst12,r                      0.25224301 [mEh]       0.15828488 [kcal/mol]       0.66226392 [kJ/mol]

    Exchange                        0.11036132 [mEh]       0.06925278 [kcal/mol]       0.28975361 [kJ/mol]
      Exch10                        0.08609362 [mEh]       0.05402456 [kcal/mol]       0.22603877 [kJ/mol]
      Exch10(S^2)                   0.08608387 [mEh]       0.05401845 [kcal/mol]       0.22601318 [kJ/mol]
      Exch11(S^2)                  -0.00209443 [mEh]      -0.00131428 [kcal/mol]      -0.00549893 [kJ/mol]
      Exch12(S^2)                   0.02636214 [mEh]       0.01654249 [kcal/mol]       0.06921378 [kJ/mol]

    Induction                      -0.16178296 [mEh]      -0.10152034 [kcal/mol]      -0.42476110 [kJ/mol]
      Ind20,r                      -0.19467210 [mEh]      -0.12215859 [kcal/mol]      -0.51111152 [kJ/mol]
      Ind22                         0.02334802 [mEh]       0.01465110 [kcal/mol]       0.06130021 [kJ/mol]
      Exch-Ind20,r                  0.02353996 [mEh]       0.01477155 [kcal/mol]       0.06180416 [kJ/mol]
      Exch-Ind22                   -0.00282327 [mEh]      -0.00177163 [kcal/mol]      -0.00741249 [kJ/mol]
      delta HF,r (2)               -0.01117557 [mEh]      -0.00701278 [kcal/mol]      -0.02934147 [kJ/mol]

    Dispersion                     -0.84182907 [mEh]      -0.52825572 [kcal/mol]      -2.21022193 [kJ/mol]
      Disp20                       -0.85087560 [mEh]      -0.53393250 [kcal/mol]      -2.23397357 [kJ/mol]
      Disp21                        0.18197621 [mEh]       0.11419179 [kcal/mol]       0.47777847 [kJ/mol]
      Disp22 (SDQ)                 -0.00737693 [mEh]      -0.00462909 [kcal/mol]      -0.01936812 [kJ/mol]
      Disp22 (T)                   -0.17382955 [mEh]      -0.10907969 [kcal/mol]      -0.45638943 [kJ/mol]
      Est. Disp22 (T)              -0.18046988 [mEh]      -0.11324656 [kcal/mol]      -0.47382360 [kJ/mol]
      Exch-Disp20                   0.01491712 [mEh]       0.00936063 [kcal/mol]       0.03916489 [kJ/mol]

  Total HF                         -1.45785479 [mEh]      -0.91481769 [kcal/mol]      -3.82759721 [kJ/mol]
  Total SAPT0                      -2.29381326 [mEh]      -1.43938955 [kcal/mol]      -6.02240590 [kJ/mol]
  Total SAPT2                      -1.99677781 [mEh]      -1.25299699 [kcal/mol]      -5.24253941 [kJ/mol]
  Total SAPT2+                     -2.00264840 [mEh]      -1.25668084 [kcal/mol]      -5.25795265 [kJ/mol]

  Special recipe for scaled SAPT0 (see Manual):
    Electrostatics sSAPT0          -1.36164070 [mEh]      -0.85444244 [kcal/mol]      -3.57498716 [kJ/mol]
    Exchange sSAPT0                 0.08609362 [mEh]       0.05402456 [kcal/mol]       0.22603877 [kJ/mol]
    Induction sSAPT0               -0.18229971 [mEh]      -0.11439480 [kcal/mol]      -0.47862783 [kJ/mol]
    Dispersion sSAPT0              -0.83595341 [mEh]      -0.52456869 [kcal/mol]      -2.19479538 [kJ/mol]
  Total sSAPT0                     -2.29380020 [mEh]      -1.43938136 [kcal/mol]      -6.02237160 [kJ/mol]
  --------------------------------------------------------------------------------------------------------

*** tstop() called on node92.bme.utexas.edu at Thu Apr 23 17:34:40 2020
Module time:
	user time   =    3238.01 seconds =      53.97 minutes
	system time =      59.09 seconds =       0.98 minutes
	total time  =        425 seconds =       7.08 minutes
Total time:
	user time   =    3416.98 seconds =      56.95 minutes
	system time =      63.11 seconds =       1.05 minutes
	total time  =        452 seconds =       7.53 minutes

    Psi4 stopped on: Thursday, 23 April 2020 05:34PM
    Psi4 wall time for execution: 0:07:31.49

*** Psi4 exiting successfully. Buy a developer a beer!
