
    -----------------------------------------------------------------------
          Psi4: An Open-Source Ab Initio Electronic Structure Package
                               Psi4 1.4a2.dev224 

                         Git: Rev {master} e453b16 


    R. M. Parrish, L. A. Burns, D. G. A. Smith, A. C. Simmonett,
    A. E. DePrince III, E. G. Hohenstein, U. Bozkaya, A. Yu. Sokolov,
    R. Di Remigio, R. M. Richard, J. F. Gonthier, A. M. James,
    H. R. McAlexander, A. Kumar, M. Saitow, X. Wang, B. P. Pritchard,
    P. Verma, H. F. Schaefer III, K. Patkowski, R. A. King, E. F. Valeev,
    F. A. Evangelista, J. M. Turney, T. D. Crawford, and C. D. Sherrill,
    J. Chem. Theory Comput. 13(7) pp 3185--3197 (2017).
    (doi: 10.1021/acs.jctc.7b00174)


                         Additional Contributions by
    P. Kraus, H. Kruse, M. H. Lechner, M. C. Schieber, R. A. Shaw,
    A. Alenaizan, R. Galvelis, Z. L. Glick, S. Lehtola, and J. P. Misiewicz

    -----------------------------------------------------------------------


    Psi4 started on: Thursday, 23 April 2020 11:54AM

    Process ID: 59710
    Host:       node73.bme.utexas.edu
    PSIDATADIR: /home/liuchw/anaconda3/envs/psi4env/share/psi4
    Memory:     500.0 MiB
    Threads:    8
    
  ==> Input File <==

--------------------------------------------------------------------------
#Generated by lconvert.py for sapt job

memory 20 GB

molecule  {
0 1
  C       0.759750    1.031270    0.373770
  H       1.435020    1.875660    0.374710
  C       1.266620   -0.267360    0.421270
  H       2.334920   -0.429180    0.459430
  C       0.395320   -1.355990    0.424900
  H       0.788660   -2.362490    0.463030
  C      -0.982210   -1.146650    0.381270
  H      -1.657660   -1.991140    0.385120
  C      -1.489350    0.151150    0.337570
  H      -2.557950    0.313750    0.307720
  C      -0.618770    1.240330    0.333880
  H      -1.011760    2.247110    0.304370
--
0 1
  O      -0.087650    0.231070    5.317220
  H      -0.001540    0.280950    4.360030
  C      -0.983800   -0.826540    5.600270
  H      -1.079520   -0.883280    6.681210
  H      -1.975950   -0.654840    5.176480
  H      -0.617330   -1.789580    5.237360
units angstrom
no_reorient
symmetry c1
}

set {
scf_type DF
basis aug-cc-pvdz
freeze_core True
guess SAD
}
energy('sapt2+')
--------------------------------------------------------------------------

  Memory set to  18.626 GiB by Python driver.

Scratch directory: /scratch/liuchw/

  //>>>>>>>>>>>>>>>>>>>>>>>>>>>>>>>>>>>//
  //              Dimer HF             //
  //<<<<<<<<<<<<<<<<<<<<<<<<<<<<<<<<<<<//


*** tstart() called on node73.bme.utexas.edu
*** at Thu Apr 23 11:54:36 2020

   => Loading Basis Set <=

    Name: AUG-CC-PVDZ
    Role: ORBITAL
    Keyword: BASIS
    atoms 1, 3, 5, 7, 9, 11, 15         entry C          line   182 file /home/liuchw/anaconda3/envs/psi4env/share/psi4/basis/aug-cc-pvdz.gbs 
    atoms 2, 4, 6, 8, 10, 12, 14, 16-18 entry H          line    40 file /home/liuchw/anaconda3/envs/psi4env/share/psi4/basis/aug-cc-pvdz.gbs 
    atoms 13                            entry O          line   254 file /home/liuchw/anaconda3/envs/psi4env/share/psi4/basis/aug-cc-pvdz.gbs 


         ---------------------------------------------------------
                                   SCF
               by Justin Turney, Rob Parrish, Andy Simmonett
                          and Daniel G. A. Smith
                              RHF Reference
                        8 Threads,  19073 MiB Core
         ---------------------------------------------------------

  ==> Geometry <==

    Molecular point group: c1
    Full point group: C1

    Geometry (in Angstrom), charge = 0, multiplicity = 1:

       Center              X                  Y                   Z               Mass       
    ------------   -----------------  -----------------  -----------------  -----------------
         C            0.992398250422     1.156724062609    -1.474627293844    12.000000000000
         H            1.667668250422     2.001114062609    -1.473687293844     1.007825032230
         C            1.499268250422    -0.141905937391    -1.427127293844    12.000000000000
         H            2.567568250422    -0.303725937391    -1.388967293844     1.007825032230
         C            0.627968250422    -1.230535937391    -1.423497293844    12.000000000000
         H            1.021308250422    -2.237035937391    -1.385367293844     1.007825032230
         C           -0.749561749578    -1.021195937391    -1.467127293844    12.000000000000
         H           -1.425011749578    -1.865685937391    -1.463277293844     1.007825032230
         C           -1.256701749578     0.276604062609    -1.510827293844    12.000000000000
         H           -2.325301749578     0.439204062609    -1.540677293844     1.007825032230
         C           -0.386121749578     1.365784062609    -1.514517293844    12.000000000000
         H           -0.779111749578     2.372564062609    -1.544027293844     1.007825032230
         O            0.144998250422     0.356524062609     3.468822706156    15.994914619570
         H            0.231108250422     0.406404062609     2.511632706156     1.007825032230
         C           -0.751151749578    -0.701085937391     3.751872706156    12.000000000000
         H           -0.846871749578    -0.757825937391     4.832812706156     1.007825032230
         H           -1.743301749578    -0.529385937391     3.328082706156     1.007825032230
         H           -0.384681749578    -1.664125937391     3.388962706156     1.007825032230

  Running in c1 symmetry.

  Rotational constants: A =      0.08673  B =      0.02480  C =      0.02430 [cm^-1]
  Rotational constants: A =   2600.07783  B =    743.57357  C =    728.40764 [MHz]
  Nuclear repulsion =  319.066775638090803

  Charge       = 0
  Multiplicity = 1
  Electrons    = 60
  Nalpha       = 30
  Nbeta        = 30

  ==> Algorithm <==

  SCF Algorithm Type is DF.
  DIIS enabled.
  MOM disabled.
  Fractional occupation disabled.
  Guess Type is SAD.
  Energy threshold   = 1.00e-08
  Density threshold  = 1.00e-08
  Integral threshold = 0.00e+00

  ==> Primary Basis <==

  Basis Set: AUG-CC-PVDZ
    Blend: AUG-CC-PVDZ
    Number of shells: 122
    Number of basis function: 274
    Number of Cartesian functions: 290
    Spherical Harmonics?: true
    Max angular momentum: 2

   => Loading Basis Set <=

    Name: (AUG-CC-PVDZ AUX)
    Role: JKFIT
    Keyword: DF_BASIS_SCF
    atoms 1, 3, 5, 7, 9, 11, 15         entry C          line   154 file /home/liuchw/anaconda3/envs/psi4env/share/psi4/basis/aug-cc-pvdz-jkfit.gbs 
    atoms 2, 4, 6, 8, 10, 12, 14, 16-18 entry H          line    70 file /home/liuchw/anaconda3/envs/psi4env/share/psi4/basis/aug-cc-pvdz-jkfit.gbs 
    atoms 13                            entry O          line   270 file /home/liuchw/anaconda3/envs/psi4env/share/psi4/basis/aug-cc-pvdz-jkfit.gbs 

  ==> Pre-Iterations <==

   -------------------------------------------------------
    Irrep   Nso     Nmo     Nalpha   Nbeta   Ndocc  Nsocc
   -------------------------------------------------------
     A        274     274       0       0       0       0
   -------------------------------------------------------
    Total     274     274      30      30      30       0
   -------------------------------------------------------

  ==> Integral Setup <==

  ==> DiskDFJK: Density-Fitted J/K Matrices <==

    J tasked:                  Yes
    K tasked:                  Yes
    wK tasked:                  No
    OpenMP threads:              8
    Integrals threads:           8
    Memory [MiB]:            14305
    Algorithm:                Core
    Integral Cache:           SAVE
    Schwarz Cutoff:          1E-12
    Fitting Condition:       1E-10

   => Auxiliary Basis Set <=

  Basis Set: (AUG-CC-PVDZ AUX)
    Blend: AUG-CC-PVDZ-JKFIT
    Number of shells: 344
    Number of basis function: 1008
    Number of Cartesian functions: 1158
    Spherical Harmonics?: true
    Max angular momentum: 3

  Minimum eigenvalue in the overlap matrix is 2.3383577046E-06.
  Using Symmetric Orthogonalization.

  SCF Guess: Superposition of Atomic Densities via on-the-fly atomic UHF.

  ==> Iterations <==

                           Total Energy        Delta E     RMS |[F,P]|

   @DF-RHF iter SAD:  -344.52802190121821   -3.44528e+02   0.00000e+00 
   @DF-RHF iter   1:  -345.53263262318205   -1.00461e+00   2.39529e-03 DIIS
   @DF-RHF iter   2:  -345.73532615802185   -2.02694e-01   1.23969e-03 DIIS
   @DF-RHF iter   3:  -345.78827371320324   -5.29476e-02   2.05145e-04 DIIS
   @DF-RHF iter   4:  -345.79065041395069   -2.37670e-03   6.34128e-05 DIIS
   @DF-RHF iter   5:  -345.79080988112753   -1.59467e-04   1.44884e-05 DIIS
   @DF-RHF iter   6:  -345.79082118915767   -1.13080e-05   3.20561e-06 DIIS
   @DF-RHF iter   7:  -345.79082201328652   -8.24129e-07   9.07371e-07 DIIS
   @DF-RHF iter   8:  -345.79082207498971   -6.17032e-08   2.92247e-07 DIIS
   @DF-RHF iter   9:  -345.79082208287707   -7.88737e-09   8.97616e-08 DIIS
   @DF-RHF iter  10:  -345.79082208338457   -5.07498e-10   3.30948e-08 DIIS
   @DF-RHF iter  11:  -345.79082208345875   -7.41807e-11   4.61630e-09 DIIS
  Energy and wave function converged.


  ==> Post-Iterations <==

    Orbital Energies [Eh]
    ---------------------

    Doubly Occupied:                                                      

       1A    -20.562475     2A    -11.272714     3A    -11.248325  
       4A    -11.247761     5A    -11.247748     6A    -11.246559  
       7A    -11.246530     8A    -11.245942     9A     -1.356695  
      10A     -1.158994    11A     -1.023222    12A     -1.023218  
      13A     -0.921082    14A     -0.831695    15A     -0.831676  
      16A     -0.716253    17A     -0.686852    18A     -0.650767  
      19A     -0.625522    20A     -0.614186    21A     -0.594474  
      22A     -0.594466    23A     -0.588837    24A     -0.508142  
      25A     -0.500590    26A     -0.500548    27A     -0.498741  
      28A     -0.443633    29A     -0.342623    30A     -0.342588  

    Virtual:                                                              

      31A      0.031514    32A      0.039790    33A      0.040007  
      34A      0.048398    35A      0.055342    36A      0.055692  
      37A      0.070358    38A      0.070978    39A      0.074910  
      40A      0.077212    41A      0.101509    42A      0.102959  
      43A      0.125999    44A      0.134039    45A      0.135145  
      46A      0.141926    47A      0.143190    48A      0.144748  
      49A      0.146397    50A      0.150747    51A      0.150866  
      52A      0.156271    53A      0.164632    54A      0.168965  
      55A      0.172687    56A      0.182011    57A      0.182594  
      58A      0.185706    59A      0.188337    60A      0.188459  
      61A      0.190733    62A      0.199412    63A      0.204046  
      64A      0.228809    65A      0.253285    66A      0.259574  
      67A      0.264716    68A      0.271897    69A      0.283898  
      70A      0.286039    71A      0.302023    72A      0.314222  
      73A      0.319359    74A      0.320724    75A      0.322181  
      76A      0.339734    77A      0.343522    78A      0.353553  
      79A      0.356102    80A      0.358570    81A      0.362563  
      82A      0.380097    83A      0.380303    84A      0.382149  
      85A      0.391810    86A      0.410224    87A      0.413435  
      88A      0.417988    89A      0.427438    90A      0.428557  
      91A      0.437119    92A      0.437449    93A      0.439947  
      94A      0.441694    95A      0.457954    96A      0.479745  
      97A      0.485777    98A      0.495238    99A      0.504667  
     100A      0.512384   101A      0.514286   102A      0.547081  
     103A      0.556923   104A      0.561791   105A      0.567733  
     106A      0.579546   107A      0.579913   108A      0.582606  
     109A      0.589913   110A      0.591184   111A      0.598201  
     112A      0.599971   113A      0.601947   114A      0.616753  
     115A      0.638412   116A      0.639884   117A      0.649410  
     118A      0.667022   119A      0.669213   120A      0.680474  
     121A      0.681761   122A      0.684326   123A      0.688492  
     124A      0.690033   125A      0.694405   126A      0.698600  
     127A      0.702897   128A      0.703742   129A      0.714201  
     130A      0.727721   131A      0.744494   132A      0.754898  
     133A      0.761811   134A      0.766274   135A      0.776680  
     136A      0.780220   137A      0.788446   138A      0.813508  
     139A      0.817469   140A      0.853079   141A      0.854967  
     142A      0.856654   143A      0.887034   144A      0.888553  
     145A      0.893048   146A      0.923125   147A      0.924490  
     148A      0.931028   149A      0.933193   150A      0.958246  
     151A      0.963829   152A      0.964551   153A      0.970885  
     154A      0.973143   155A      0.997187   156A      0.999241  
     157A      1.010571   158A      1.018793   159A      1.021696  
     160A      1.062672   161A      1.074390   162A      1.081196  
     163A      1.098377   164A      1.105333   165A      1.142409  
     166A      1.174452   167A      1.179568   168A      1.193635  
     169A      1.206514   170A      1.254790   171A      1.286885  
     172A      1.343981   173A      1.352846   174A      1.415171  
     175A      1.416141   176A      1.456463   177A      1.478629  
     178A      1.497677   179A      1.529465   180A      1.529650  
     181A      1.532507   182A      1.533562   183A      1.541920  
     184A      1.579055   185A      1.588276   186A      1.613644  
     187A      1.619917   188A      1.624061   189A      1.635552  
     190A      1.635673   191A      1.640539   192A      1.683713  
     193A      1.705054   194A      1.705605   195A      1.711468  
     196A      1.711962   197A      1.728948   198A      1.783690  
     199A      1.785299   200A      1.790507   201A      1.800019  
     202A      1.806788   203A      1.816551   204A      1.842883  
     205A      1.891118   206A      1.891190   207A      1.907823  
     208A      1.910743   209A      1.921932   210A      1.928515  
     211A      1.954281   212A      1.954773   213A      1.964865  
     214A      1.965037   215A      1.981821   216A      1.991736  
     217A      2.102096   218A      2.105910   219A      2.115899  
     220A      2.118073   221A      2.124682   222A      2.133620  
     223A      2.136705   224A      2.163459   225A      2.198333  
     226A      2.199546   227A      2.200818   228A      2.216165  
     229A      2.216204   230A      2.262599   231A      2.262764  
     232A      2.264510   233A      2.280594   234A      2.292078  
     235A      2.345818   236A      2.358116   237A      2.371674  
     238A      2.372195   239A      2.392475   240A      2.429744  
     241A      2.451428   242A      2.451995   243A      2.595362  
     244A      2.616560   245A      2.638164   246A      2.676763  
     247A      2.744465   248A      2.789816   249A      2.792169  
     250A      2.798289   251A      2.798803   252A      2.803183  
     253A      2.809254   254A      2.919448   255A      2.920703  
     256A      2.970162   257A      2.971869   258A      2.976581  
     259A      3.081950   260A      3.142674   261A      3.143740  
     262A      3.155675   263A      3.158553   264A      3.182508  
     265A      3.382684   266A      3.561317   267A      3.562543  
     268A      3.751620   269A      3.772436   270A      3.828430  
     271A      3.883165   272A      3.909308   273A      4.292574  
     274A      4.811373  

    Final Occupation by Irrep:
              A 
    DOCC [    30 ]

  @DF-RHF Final Energy:  -345.79082208345875

   => Energetics <=

    Nuclear Repulsion Energy =            319.0667756380908031
    One-Electron Energy =               -1100.3694784798303772
    Two-Electron Energy =                 435.5118807582808245
    Total Energy =                       -345.7908220834587496

Computation Completed


Properties will be evaluated at   0.000000,   0.000000,   0.000000 [a0]

Properties computed using the SCF density matrix

  Nuclear Dipole Moment: [e a0]
     X:    -1.8898      Y:    -2.0031      Z:     4.9529

  Electronic Dipole Moment: [e a0]
     X:     1.5807      Y:     1.6022      Z:    -5.5109

  Dipole Moment: [e a0]
     X:    -0.3092      Y:    -0.4008      Z:    -0.5580     Total:     0.7534

  Dipole Moment: [D]
     X:    -0.7858      Y:    -1.0188      Z:    -1.4184     Total:     1.9150


*** tstop() called on node73.bme.utexas.edu at Thu Apr 23 11:54:44 2020
Module time:
	user time   =      54.78 seconds =       0.91 minutes
	system time =       1.60 seconds =       0.03 minutes
	total time  =          8 seconds =       0.13 minutes
Total time:
	user time   =      54.78 seconds =       0.91 minutes
	system time =       1.60 seconds =       0.03 minutes
	total time  =          8 seconds =       0.13 minutes

  //>>>>>>>>>>>>>>>>>>>>>>>>>>>>>>>>>>>//
  //            Monomer A HF           //
  //<<<<<<<<<<<<<<<<<<<<<<<<<<<<<<<<<<<//


*** tstart() called on node73.bme.utexas.edu
*** at Thu Apr 23 11:54:44 2020

   => Loading Basis Set <=

    Name: AUG-CC-PVDZ
    Role: ORBITAL
    Keyword: BASIS
    atoms 1, 3, 5, 7, 9, 11, 15         entry C          line   182 file /home/liuchw/anaconda3/envs/psi4env/share/psi4/basis/aug-cc-pvdz.gbs 
    atoms 2, 4, 6, 8, 10, 12, 14, 16-18 entry H          line    40 file /home/liuchw/anaconda3/envs/psi4env/share/psi4/basis/aug-cc-pvdz.gbs 
    atoms 13                            entry O          line   254 file /home/liuchw/anaconda3/envs/psi4env/share/psi4/basis/aug-cc-pvdz.gbs 


         ---------------------------------------------------------
                                   SCF
               by Justin Turney, Rob Parrish, Andy Simmonett
                          and Daniel G. A. Smith
                              RHF Reference
                        8 Threads,  19073 MiB Core
         ---------------------------------------------------------

  ==> Geometry <==

    Molecular point group: c1
    Full point group: C1

    Geometry (in Angstrom), charge = 0, multiplicity = 1:

       Center              X                  Y                   Z               Mass       
    ------------   -----------------  -----------------  -----------------  -----------------
         C            0.992398250422     1.156724062609    -1.474627293844    12.000000000000
         H            1.667668250422     2.001114062609    -1.473687293844     1.007825032230
         C            1.499268250422    -0.141905937391    -1.427127293844    12.000000000000
         H            2.567568250422    -0.303725937391    -1.388967293844     1.007825032230
         C            0.627968250422    -1.230535937391    -1.423497293844    12.000000000000
         H            1.021308250422    -2.237035937391    -1.385367293844     1.007825032230
         C           -0.749561749578    -1.021195937391    -1.467127293844    12.000000000000
         H           -1.425011749578    -1.865685937391    -1.463277293844     1.007825032230
         C           -1.256701749578     0.276604062609    -1.510827293844    12.000000000000
         H           -2.325301749578     0.439204062609    -1.540677293844     1.007825032230
         C           -0.386121749578     1.365784062609    -1.514517293844    12.000000000000
         H           -0.779111749578     2.372564062609    -1.544027293844     1.007825032230
      Gh(O)           0.144998250422     0.356524062609     3.468822706156    15.994914619570
      Gh(H)           0.231108250422     0.406404062609     2.511632706156     1.007825032230
      Gh(C)          -0.751151749578    -0.701085937391     3.751872706156    12.000000000000
      Gh(H)          -0.846871749578    -0.757825937391     4.832812706156     1.007825032230
      Gh(H)          -1.743301749578    -0.529385937391     3.328082706156     1.007825032230
      Gh(H)          -0.384681749578    -1.664125937391     3.388962706156     1.007825032230

  Running in c1 symmetry.

  Rotational constants: A =      0.08673  B =      0.02480  C =      0.02430 [cm^-1]
  Rotational constants: A =   2600.07783  B =    743.57357  C =    728.40764 [MHz]
  Nuclear repulsion =  203.621452569759612

  Charge       = 0
  Multiplicity = 1
  Electrons    = 42
  Nalpha       = 21
  Nbeta        = 21

  ==> Algorithm <==

  SCF Algorithm Type is DF.
  DIIS enabled.
  MOM disabled.
  Fractional occupation disabled.
  Guess Type is SAD.
  Energy threshold   = 1.00e-08
  Density threshold  = 1.00e-08
  Integral threshold = 0.00e+00

  ==> Primary Basis <==

  Basis Set: AUG-CC-PVDZ
    Blend: AUG-CC-PVDZ
    Number of shells: 122
    Number of basis function: 274
    Number of Cartesian functions: 290
    Spherical Harmonics?: true
    Max angular momentum: 2

   => Loading Basis Set <=

    Name: (AUG-CC-PVDZ AUX)
    Role: JKFIT
    Keyword: DF_BASIS_SCF
    atoms 1, 3, 5, 7, 9, 11, 15         entry C          line   154 file /home/liuchw/anaconda3/envs/psi4env/share/psi4/basis/aug-cc-pvdz-jkfit.gbs 
    atoms 2, 4, 6, 8, 10, 12, 14, 16-18 entry H          line    70 file /home/liuchw/anaconda3/envs/psi4env/share/psi4/basis/aug-cc-pvdz-jkfit.gbs 
    atoms 13                            entry O          line   270 file /home/liuchw/anaconda3/envs/psi4env/share/psi4/basis/aug-cc-pvdz-jkfit.gbs 

  ==> Pre-Iterations <==

   -------------------------------------------------------
    Irrep   Nso     Nmo     Nalpha   Nbeta   Ndocc  Nsocc
   -------------------------------------------------------
     A        274     274       0       0       0       0
   -------------------------------------------------------
    Total     274     274      21      21      21       0
   -------------------------------------------------------

  ==> Integral Setup <==

  ==> DiskDFJK: Density-Fitted J/K Matrices <==

    J tasked:                  Yes
    K tasked:                  Yes
    wK tasked:                  No
    OpenMP threads:              8
    Integrals threads:           8
    Memory [MiB]:            14305
    Algorithm:                Core
    Integral Cache:           LOAD
    Schwarz Cutoff:          1E-12
    Fitting Condition:       1E-10

   => Auxiliary Basis Set <=

  Basis Set: (AUG-CC-PVDZ AUX)
    Blend: AUG-CC-PVDZ-JKFIT
    Number of shells: 344
    Number of basis function: 1008
    Number of Cartesian functions: 1158
    Spherical Harmonics?: true
    Max angular momentum: 3

  Minimum eigenvalue in the overlap matrix is 2.3383577046E-06.
  Using Symmetric Orthogonalization.

  SCF Guess: Superposition of Atomic Densities via on-the-fly atomic UHF.

  ==> Iterations <==

                           Total Energy        Delta E     RMS |[F,P]|

   @DF-RHF iter SAD:  -230.14289013418508   -2.30143e+02   0.00000e+00 
   @DF-RHF iter   1:  -230.55299814393550   -4.10108e-01   1.88574e-03 DIIS
   @DF-RHF iter   2:  -230.69254800370359   -1.39550e-01   9.22264e-04 DIIS
   @DF-RHF iter   3:  -230.72655707543652   -3.40091e-02   1.46990e-04 DIIS
   @DF-RHF iter   4:  -230.72799693697723   -1.43986e-03   1.57104e-05 DIIS
   @DF-RHF iter   5:  -230.72801755272062   -2.06157e-05   2.97791e-06 DIIS
   @DF-RHF iter   6:  -230.72801832188111   -7.69160e-07   4.31778e-07 DIIS
   @DF-RHF iter   7:  -230.72801833257154   -1.06904e-08   2.41591e-07 DIIS
   @DF-RHF iter   8:  -230.72801833528928   -2.71774e-09   2.46930e-08 DIIS
   @DF-RHF iter   9:  -230.72801833535746   -6.81837e-11   4.94765e-09 DIIS
  Energy and wave function converged.


  ==> Post-Iterations <==

    Orbital Energies [Eh]
    ---------------------

    Doubly Occupied:                                                      

       1A    -11.242403     2A    -11.241842     3A    -11.241836  
       4A    -11.240635     5A    -11.240619     6A    -11.240028  
       7A     -1.152832     8A     -1.017238     9A     -1.017211  
      10A     -0.825878    11A     -0.825864    12A     -0.710489  
      13A     -0.645236    14A     -0.619613    15A     -0.588751  
      16A     -0.588731    17A     -0.501578    18A     -0.494911  
      19A     -0.494889    20A     -0.336299    21A     -0.336277  

    Virtual:                                                              

      22A      0.028888    23A      0.040486    24A      0.041683  
      25A      0.042486    26A      0.056947    27A      0.057464  
      28A      0.068009    29A      0.068888    30A      0.069770  
      31A      0.076364    32A      0.106714    33A      0.107842  
      34A      0.119188    35A      0.129899    36A      0.137501  
      37A      0.138320    38A      0.142794    39A      0.145882  
      40A      0.147924    41A      0.151369    42A      0.153037  
      43A      0.153390    44A      0.155694    45A      0.159802  
      46A      0.171259    47A      0.175982    48A      0.185159  
      49A      0.186991    50A      0.190925    51A      0.191102  
      52A      0.192835    53A      0.200672    54A      0.205636  
      55A      0.215923    56A      0.229529    57A      0.245903  
      58A      0.248056    59A      0.266714    60A      0.290118  
      61A      0.292780    62A      0.300273    63A      0.307255  
      64A      0.316074    65A      0.328101    66A      0.328986  
      67A      0.345952    68A      0.348514    69A      0.355241  
      70A      0.358798    71A      0.363843    72A      0.366023  
      73A      0.381315    74A      0.384538    75A      0.385980  
      76A      0.387806    77A      0.405005    78A      0.410170  
      79A      0.416139    80A      0.432561    81A      0.432893  
      82A      0.442953    83A      0.443880    84A      0.447776  
      85A      0.462824    86A      0.476335    87A      0.486866  
      88A      0.490466    89A      0.510588    90A      0.513705  
      91A      0.525943    92A      0.539893    93A      0.548915  
      94A      0.561103    95A      0.564456    96A      0.572672  
      97A      0.576747    98A      0.584836    99A      0.590621  
     100A      0.594867   101A      0.596280   102A      0.599852  
     103A      0.612008   104A      0.612756   105A      0.625317  
     106A      0.645309   107A      0.662674   108A      0.663693  
     109A      0.678836   110A      0.682317   111A      0.688307  
     112A      0.691346   113A      0.691560   114A      0.697132  
     115A      0.702257   116A      0.706319   117A      0.710816  
     118A      0.719474   119A      0.727308   120A      0.734327  
     121A      0.748260   122A      0.761024   123A      0.766021  
     124A      0.772774   125A      0.782474   126A      0.782582  
     127A      0.787481   128A      0.795998   129A      0.809782  
     130A      0.827401   131A      0.856526   132A      0.858098  
     133A      0.860321   134A      0.860347   135A      0.889950  
     136A      0.893043   137A      0.894599   138A      0.905941  
     139A      0.921459   140A      0.931108   141A      0.941610  
     142A      0.942353   143A      0.946417   144A      0.964211  
     145A      0.978305   146A      0.978536   147A      0.987037  
     148A      1.003979   149A      1.015095   150A      1.024679  
     151A      1.068488   152A      1.079404   153A      1.101686  
     154A      1.102316   155A      1.114489   156A      1.126455  
     157A      1.184286   158A      1.184572   159A      1.198509  
     160A      1.209678   161A      1.350131   162A      1.351901  
     163A      1.370926   164A      1.407049   165A      1.422185  
     166A      1.432433   167A      1.479444   168A      1.486231  
     169A      1.503694   170A      1.532775   171A      1.535438  
     172A      1.538662   173A      1.539489   174A      1.546234  
     175A      1.579219   176A      1.584865   177A      1.604694  
     178A      1.618580   179A      1.630103   180A      1.633272  
     181A      1.641522   182A      1.641900   183A      1.687284  
     184A      1.711613   185A      1.711743   186A      1.718298  
     187A      1.719804   188A      1.790468   189A      1.794570  
     190A      1.800142   191A      1.848641   192A      1.871505  
     193A      1.897400   194A      1.897819   195A      1.921153  
     196A      1.933869   197A      1.958374   198A      1.961444  
     199A      1.970034   200A      1.970042   201A      1.972277  
     202A      1.987368   203A      1.997209   204A      2.039059  
     205A      2.111283   206A      2.112346   207A      2.137196  
     208A      2.138083   209A      2.149082   210A      2.199348  
     211A      2.205163   212A      2.205885   213A      2.221196  
     214A      2.222137   215A      2.261193   216A      2.263774  
     217A      2.270116   218A      2.274405   219A      2.283868  
     220A      2.297561   221A      2.332738   222A      2.363514  
     223A      2.366544   224A      2.377786   225A      2.378336  
     226A      2.399796   227A      2.426867   228A      2.456824  
     229A      2.457930   230A      2.515615   231A      2.616425  
     232A      2.622545   233A      2.633965   234A      2.682487  
     235A      2.712753   236A      2.793249   237A      2.797642  
     238A      2.799040   239A      2.805023   240A      2.808633  
     241A      2.812890   242A      2.842202   243A      2.975291  
     244A      2.977348   245A      2.982155   246A      3.069000  
     247A      3.127879   248A      3.148466   249A      3.149720  
     250A      3.161732   251A      3.163854   252A      3.229579  
     253A      3.232678   254A      3.372719   255A      3.388206  
     256A      3.567169   257A      3.568364   258A      3.847378  
     259A      3.889131   260A      4.175897   261A      4.611883  
     262A      4.817376   263A      4.964298   264A      4.996415  
     265A      5.011134   266A      5.117220   267A      5.145702  
     268A      5.372619   269A      5.553200   270A      5.957642  
     271A      6.433657   272A      6.994821   273A     18.503001  
     274A     33.559330  

    Final Occupation by Irrep:
              A 
    DOCC [    21 ]

  @DF-RHF Final Energy:  -230.72801833535746

   => Energetics <=

    Nuclear Repulsion Energy =            203.6214525697596116
    One-Electron Energy =                -713.4926260805982565
    Two-Electron Energy =                 279.1431551754811267
    Total Energy =                       -230.7280183353574898

Computation Completed


Properties will be evaluated at   0.000000,   0.000000,   0.000000 [a0]

Properties computed using the SCF density matrix

  Nuclear Dipole Moment: [e a0]
     X:     9.6199      Y:     5.3655      Z:  -116.6005

  Electronic Dipole Moment: [e a0]
     X:    -9.6198      Y:    -5.3651      Z:   116.6068

  Dipole Moment: [e a0]
     X:     0.0000      Y:     0.0004      Z:     0.0062     Total:     0.0063

  Dipole Moment: [D]
     X:     0.0001      Y:     0.0009      Z:     0.0159     Total:     0.0159


*** tstop() called on node73.bme.utexas.edu at Thu Apr 23 11:54:48 2020
Module time:
	user time   =      24.44 seconds =       0.41 minutes
	system time =       0.96 seconds =       0.02 minutes
	total time  =          4 seconds =       0.07 minutes
Total time:
	user time   =      79.28 seconds =       1.32 minutes
	system time =       2.56 seconds =       0.04 minutes
	total time  =         12 seconds =       0.20 minutes

  //>>>>>>>>>>>>>>>>>>>>>>>>>>>>>>>>>>>//
  //            Monomer B HF           //
  //<<<<<<<<<<<<<<<<<<<<<<<<<<<<<<<<<<<//


*** tstart() called on node73.bme.utexas.edu
*** at Thu Apr 23 11:54:48 2020

   => Loading Basis Set <=

    Name: AUG-CC-PVDZ
    Role: ORBITAL
    Keyword: BASIS
    atoms 1, 3, 5, 7, 9, 11, 15         entry C          line   182 file /home/liuchw/anaconda3/envs/psi4env/share/psi4/basis/aug-cc-pvdz.gbs 
    atoms 2, 4, 6, 8, 10, 12, 14, 16-18 entry H          line    40 file /home/liuchw/anaconda3/envs/psi4env/share/psi4/basis/aug-cc-pvdz.gbs 
    atoms 13                            entry O          line   254 file /home/liuchw/anaconda3/envs/psi4env/share/psi4/basis/aug-cc-pvdz.gbs 


         ---------------------------------------------------------
                                   SCF
               by Justin Turney, Rob Parrish, Andy Simmonett
                          and Daniel G. A. Smith
                              RHF Reference
                        8 Threads,  19073 MiB Core
         ---------------------------------------------------------

  ==> Geometry <==

    Molecular point group: c1
    Full point group: C1

    Geometry (in Angstrom), charge = 0, multiplicity = 1:

       Center              X                  Y                   Z               Mass       
    ------------   -----------------  -----------------  -----------------  -----------------
      Gh(C)           0.992398250422     1.156724062609    -1.474627293844    12.000000000000
      Gh(H)           1.667668250422     2.001114062609    -1.473687293844     1.007825032230
      Gh(C)           1.499268250422    -0.141905937391    -1.427127293844    12.000000000000
      Gh(H)           2.567568250422    -0.303725937391    -1.388967293844     1.007825032230
      Gh(C)           0.627968250422    -1.230535937391    -1.423497293844    12.000000000000
      Gh(H)           1.021308250422    -2.237035937391    -1.385367293844     1.007825032230
      Gh(C)          -0.749561749578    -1.021195937391    -1.467127293844    12.000000000000
      Gh(H)          -1.425011749578    -1.865685937391    -1.463277293844     1.007825032230
      Gh(C)          -1.256701749578     0.276604062609    -1.510827293844    12.000000000000
      Gh(H)          -2.325301749578     0.439204062609    -1.540677293844     1.007825032230
      Gh(C)          -0.386121749578     1.365784062609    -1.514517293844    12.000000000000
      Gh(H)          -0.779111749578     2.372564062609    -1.544027293844     1.007825032230
         O            0.144998250422     0.356524062609     3.468822706156    15.994914619570
         H            0.231108250422     0.406404062609     2.511632706156     1.007825032230
         C           -0.751151749578    -0.701085937391     3.751872706156    12.000000000000
         H           -0.846871749578    -0.757825937391     4.832812706156     1.007825032230
         H           -1.743301749578    -0.529385937391     3.328082706156     1.007825032230
         H           -0.384681749578    -1.664125937391     3.388962706156     1.007825032230

  Running in c1 symmetry.

  Rotational constants: A =      0.08673  B =      0.02480  C =      0.02430 [cm^-1]
  Rotational constants: A =   2600.07783  B =    743.57357  C =    728.40764 [MHz]
  Nuclear repulsion =   40.415278568014273

  Charge       = 0
  Multiplicity = 1
  Electrons    = 18
  Nalpha       = 9
  Nbeta        = 9

  ==> Algorithm <==

  SCF Algorithm Type is DF.
  DIIS enabled.
  MOM disabled.
  Fractional occupation disabled.
  Guess Type is SAD.
  Energy threshold   = 1.00e-08
  Density threshold  = 1.00e-08
  Integral threshold = 0.00e+00

  ==> Primary Basis <==

  Basis Set: AUG-CC-PVDZ
    Blend: AUG-CC-PVDZ
    Number of shells: 122
    Number of basis function: 274
    Number of Cartesian functions: 290
    Spherical Harmonics?: true
    Max angular momentum: 2

   => Loading Basis Set <=

    Name: (AUG-CC-PVDZ AUX)
    Role: JKFIT
    Keyword: DF_BASIS_SCF
    atoms 1, 3, 5, 7, 9, 11, 15         entry C          line   154 file /home/liuchw/anaconda3/envs/psi4env/share/psi4/basis/aug-cc-pvdz-jkfit.gbs 
    atoms 2, 4, 6, 8, 10, 12, 14, 16-18 entry H          line    70 file /home/liuchw/anaconda3/envs/psi4env/share/psi4/basis/aug-cc-pvdz-jkfit.gbs 
    atoms 13                            entry O          line   270 file /home/liuchw/anaconda3/envs/psi4env/share/psi4/basis/aug-cc-pvdz-jkfit.gbs 

  ==> Pre-Iterations <==

   -------------------------------------------------------
    Irrep   Nso     Nmo     Nalpha   Nbeta   Ndocc  Nsocc
   -------------------------------------------------------
     A        274     274       0       0       0       0
   -------------------------------------------------------
    Total     274     274       9       9       9       0
   -------------------------------------------------------

  ==> Integral Setup <==

  ==> DiskDFJK: Density-Fitted J/K Matrices <==

    J tasked:                  Yes
    K tasked:                  Yes
    wK tasked:                  No
    OpenMP threads:              8
    Integrals threads:           8
    Memory [MiB]:            14305
    Algorithm:                Core
    Integral Cache:           LOAD
    Schwarz Cutoff:          1E-12
    Fitting Condition:       1E-10

   => Auxiliary Basis Set <=

  Basis Set: (AUG-CC-PVDZ AUX)
    Blend: AUG-CC-PVDZ-JKFIT
    Number of shells: 344
    Number of basis function: 1008
    Number of Cartesian functions: 1158
    Spherical Harmonics?: true
    Max angular momentum: 3

  Minimum eigenvalue in the overlap matrix is 2.3383577046E-06.
  Using Symmetric Orthogonalization.

  SCF Guess: Superposition of Atomic Densities via on-the-fly atomic UHF.

  ==> Iterations <==

                           Total Energy        Delta E     RMS |[F,P]|

   @DF-RHF iter SAD:  -114.37472473606623   -1.14375e+02   0.00000e+00 
   @DF-RHF iter   1:  -114.97586978370991   -6.01145e-01   1.49731e-03 DIIS
   @DF-RHF iter   2:  -115.03993304125531   -6.40633e-02   8.53753e-04 DIIS
   @DF-RHF iter   3:  -115.06038012100038   -2.04471e-02   1.31799e-04 DIIS
   @DF-RHF iter   4:  -115.06133523053026   -9.55110e-04   3.98474e-05 DIIS
   @DF-RHF iter   5:  -115.06142015241628   -8.49219e-05   8.63947e-06 DIIS
   @DF-RHF iter   6:  -115.06142551455744   -5.36214e-06   1.98666e-06 DIIS
   @DF-RHF iter   7:  -115.06142594510119   -4.30544e-07   4.42612e-07 DIIS
   @DF-RHF iter   8:  -115.06142596813172   -2.30305e-08   8.92808e-08 DIIS
   @DF-RHF iter   9:  -115.06142596898607   -8.54357e-10   1.72344e-08 DIIS
   @DF-RHF iter  10:  -115.06142596901691   -3.08376e-11   3.75851e-09 DIIS
  Energy and wave function converged.


  ==> Post-Iterations <==

    Orbital Energies [Eh]
    ---------------------

    Doubly Occupied:                                                      

       1A    -20.569676     2A    -11.278309     3A     -1.363749  
       4A     -0.927008     5A     -0.693598     6A     -0.620304  
       7A     -0.595076     8A     -0.504903     9A     -0.450132  

    Virtual:                                                              

      10A      0.017031    11A      0.034237    12A      0.034840  
      13A      0.044836    14A      0.055339    15A      0.055884  
      16A      0.061979    17A      0.068265    18A      0.069135  
      19A      0.076487    20A      0.084736    21A      0.105799  
      22A      0.110992    23A      0.112069    24A      0.119737  
      25A      0.126287    26A      0.139001    27A      0.144680  
      28A      0.145009    29A      0.146349    30A      0.151613  
      31A      0.151989    32A      0.163247    33A      0.170665  
      34A      0.174102    35A      0.175303    36A      0.181961  
      37A      0.182904    38A      0.187548    39A      0.188796  
      40A      0.195227    41A      0.198333    42A      0.232363  
      43A      0.234619    44A      0.239522    45A      0.252574  
      46A      0.266211    47A      0.268554    48A      0.275226  
      49A      0.283192    50A      0.286556    51A      0.293740  
      52A      0.308035    53A      0.334525    54A      0.344226  
      55A      0.347701    56A      0.352250    57A      0.355018  
      58A      0.363917    59A      0.370245    60A      0.380577  
      61A      0.397038    62A      0.401375    63A      0.410622  
      64A      0.416298    65A      0.425802    66A      0.430569  
      67A      0.435328    68A      0.446907    69A      0.454873  
      70A      0.460806    71A      0.470100    72A      0.470156  
      73A      0.472512    74A      0.474478    75A      0.483407  
      76A      0.489066    77A      0.494421    78A      0.499770  
      79A      0.504105    80A      0.524329    81A      0.526647  
      82A      0.530842    83A      0.549212    84A      0.549253  
      85A      0.554314    86A      0.560830    87A      0.566578  
      88A      0.566727    89A      0.578062    90A      0.593885  
      91A      0.625135    92A      0.627166    93A      0.629030  
      94A      0.632777    95A      0.641510    96A      0.642618  
      97A      0.646618    98A      0.658511    99A      0.674117  
     100A      0.681452   101A      0.690214   102A      0.699748  
     103A      0.707331   104A      0.718475   105A      0.733942  
     106A      0.752676   107A      0.775017   108A      0.775236  
     109A      0.780091   110A      0.784937   111A      0.787309  
     112A      0.815881   113A      0.828284   114A      0.830003  
     115A      0.830433   116A      0.840896   117A      0.845233  
     118A      0.873625   119A      0.875149   120A      0.888532  
     121A      0.891920   122A      0.892911   123A      0.894904  
     124A      0.903458   125A      0.906551   126A      0.929135  
     127A      0.970842   128A      0.972831   129A      0.979077  
     130A      1.007057   131A      1.008260   132A      1.012281  
     133A      1.017887   134A      1.025818   135A      1.042562  
     136A      1.047995   137A      1.048639   138A      1.076092  
     139A      1.113291   140A      1.118503   141A      1.119728  
     142A      1.120948   143A      1.137814   144A      1.188442  
     145A      1.200644   146A      1.229702   147A      1.247043  
     148A      1.255709   149A      1.262410   150A      1.287973  
     151A      1.383044   152A      1.399133   153A      1.399205  
     154A      1.402435   155A      1.446931   156A      1.478991  
     157A      1.479673   158A      1.481661   159A      1.483785  
     160A      1.546899   161A      1.627790   162A      1.662811  
     163A      1.723408   164A      1.788884   165A      1.789988  
     166A      1.807156   167A      1.809896   168A      1.900124  
     169A      1.905571   170A      2.055621   171A      2.056663  
     172A      2.108209   173A      2.109892   174A      2.120582  
     175A      2.127397   176A      2.127985   177A      2.128546  
     178A      2.131345   179A      2.132951   180A      2.188740  
     181A      2.195543   182A      2.202169   183A      2.206420  
     184A      2.210752   185A      2.236280   186A      2.236665  
     187A      2.253823   188A      2.273442   189A      2.275776  
     190A      2.279858   191A      2.293736   192A      2.296203  
     193A      2.299455   194A      2.306539   195A      2.306662  
     196A      2.343727   197A      2.351785   198A      2.415837  
     199A      2.421500   200A      2.488605   201A      2.489902  
     202A      2.496264   203A      2.496523   204A      2.510552  
     205A      2.587158   206A      2.601955   207A      2.620444  
     208A      2.629060   209A      2.631793   210A      2.635134  
     211A      2.649382   212A      2.650292   213A      2.665807  
     214A      2.667454   215A      2.698904   216A      2.723870  
     217A      2.741614   218A      2.758800   219A      2.795264  
     220A      2.859703   221A      2.859905   222A      2.863224  
     223A      2.863278   224A      2.869090   225A      2.869827  
     226A      2.915441   227A      2.916104   228A      2.944363  
     229A      2.945637   230A      3.012138   231A      3.086018  
     232A      3.175486   233A      3.191052   234A      3.253928  
     235A      3.331867   236A      3.391126   237A      3.391844  
     238A      3.391893   239A      3.396131   240A      3.396931  
     241A      3.403911   242A      3.461009   243A      3.462787  
     244A      3.464375   245A      3.532041   246A      3.687459  
     247A      3.745114   248A      3.765623   249A      3.819369  
     250A      3.901689   251A      3.938429   252A      3.946107  
     253A      3.977675   254A      3.981080   255A      4.099717  
     256A      4.285567   257A      4.376384   258A      4.376630  
     259A      4.662776   260A      4.842037   261A      4.843154  
     262A      5.291482   263A      5.447943   264A      5.448148  
     265A      5.467930   266A      5.468086   267A      5.641743  
     268A      6.064782   269A     17.982205   270A     18.379771  
     271A     18.382214   272A     18.998436   273A     18.999337  
     274A     20.660921  

    Final Occupation by Irrep:
              A 
    DOCC [     9 ]

  @DF-RHF Final Energy:  -115.06142596901691

   => Energetics <=

    Nuclear Repulsion Energy =             40.4152785680142728
    One-Electron Energy =                -236.9478989647086280
    Two-Electron Energy =                  81.4711944276774602
    Total Energy =                       -115.0614259690169092

Computation Completed


Properties will be evaluated at   0.000000,   0.000000,   0.000000 [a0]

Properties computed using the SCF density matrix

  Nuclear Dipole Moment: [e a0]
     X:   -11.5097      Y:    -7.3685      Z:   121.5534

  Electronic Dipole Moment: [e a0]
     X:    11.1807      Y:     6.9480      Z:  -122.0280

  Dipole Moment: [e a0]
     X:    -0.3290      Y:    -0.4206      Z:    -0.4746     Total:     0.7144

  Dipole Moment: [D]
     X:    -0.8363      Y:    -1.0690      Z:    -1.2063     Total:     1.8159


*** tstop() called on node73.bme.utexas.edu at Thu Apr 23 11:54:53 2020
Module time:
	user time   =      26.46 seconds =       0.44 minutes
	system time =       0.92 seconds =       0.02 minutes
	total time  =          5 seconds =       0.08 minutes
Total time:
	user time   =     105.79 seconds =       1.76 minutes
	system time =       3.48 seconds =       0.06 minutes
	total time  =         17 seconds =       0.28 minutes
  Constructing Basis Sets for SAPT...

   => Loading Basis Set <=

    Name: (AUG-CC-PVDZ AUX)
    Role: RIFIT
    Keyword: DF_BASIS_SAPT
    atoms 1, 3, 5, 7, 9, 11, 15         entry C          line   112 file /home/liuchw/anaconda3/envs/psi4env/share/psi4/basis/aug-cc-pvdz-ri.gbs 
    atoms 2, 4, 6, 8, 10, 12, 14, 16-18 entry H          line    30 file /home/liuchw/anaconda3/envs/psi4env/share/psi4/basis/aug-cc-pvdz-ri.gbs 
    atoms 13                            entry O          line   204 file /home/liuchw/anaconda3/envs/psi4env/share/psi4/basis/aug-cc-pvdz-ri.gbs 


  //>>>>>>>>>>>>>>>>>>>>>>>>>>>>>>>>>>>//
  //               SAPT2+              //
  //<<<<<<<<<<<<<<<<<<<<<<<<<<<<<<<<<<<//


*** tstart() called on node73.bme.utexas.edu
*** at Thu Apr 23 11:54:53 2020

        SAPT2+  
    Ed Hohenstein
     6 June 2009

      Orbital Information
  --------------------------
    NSO        =       274
    NMO        =       274
    NRI        =       806
    NOCC A     =        21
    NOCC B     =         9
    FOCC A     =         6
    FOCC B     =         2
    NVIR A     =       253
    NVIR B     =       265

    Estimated memory usage: 1196.1 MB

    Natural Orbital Cutoff:   1.000E-06
    Disp(T3) Truncation:            Yes
    CCD (vv|vv) Truncation:         Yes
    MBPT T2 Truncation:             Yes

    Monomer A: 93 virtual orbitals dropped
    Monomer B: 196 virtual orbitals dropped

    Elst10,r            =    -0.001306608579 [Eh]
    Exch10 (S^2)        =     0.000034367179 [Eh]
    Exch10              =     0.000034367212 [Eh]
    Ind20,r (A<-B)      =    -0.000072499995 [Eh]
    Ind20,r (B<-A)      =    -0.000025834433 [Eh]
    Ind20,r             =    -0.000098334428 [Eh]
    Exch-Ind20,r (A<-B) =     0.000004867949 [Eh]
    Exch-Ind20,r (B<-A) =     0.000000708058 [Eh]
    Exch-Ind20,r        =     0.000005576007 [Eh]
    Disp20              =    -0.000790007308 [Eh]
    Disp20 (NO)         =    -0.000766309139 [Eh]
    Exch-Disp20         =     0.000006638866 [Eh]
    Elst12,r            =     0.000236762985 [Eh]
    Exch11              =     0.000000546630 [Eh]
    Exch12              =     0.000007630086 [Eh]
    Ind22               =     0.000007773076 [Eh]
    Disp21              =     0.000170774448 [Eh]
    Disp22 (SDQ)        =     0.000008573419 [Eh]

    (i =   1 of   7)          9 seconds
    (i =   2 of   7)         18 seconds
    (i =   3 of   7)         27 seconds
    (i =   4 of   7)         35 seconds
    (i =   5 of   7)         44 seconds
    (i =   6 of   7)         53 seconds
    (i =   7 of   7)         61 seconds

    Disp220 (T)         =    -0.000074888423 [Eh]

    (i =   1 of  15)          1 seconds
    (i =   2 of  15)          2 seconds
    (i =   3 of  15)          3 seconds
    (i =   4 of  15)          4 seconds
    (i =   5 of  15)          5 seconds
    (i =   6 of  15)          6 seconds
    (i =   7 of  15)          7 seconds
    (i =   8 of  15)          8 seconds
    (i =   9 of  15)          9 seconds
    (i =  10 of  15)         10 seconds
    (i =  11 of  15)         11 seconds
    (i =  12 of  15)         12 seconds
    (i =  13 of  15)         13 seconds
    (i =  14 of  15)         14 seconds
    (i =  15 of  15)         15 seconds

    Disp202 (T)         =    -0.000069433581 [Eh]

    Disp22 (T)          =    -0.000144322004 [Eh]

    Est. Disp220 (T)    =    -0.000077204353 [Eh]
    Est. Disp202 (T)    =    -0.000071580820 [Eh]

    Est. Disp22 (T)     =    -0.000148785172 [Eh]

    SAPT Results 
  --------------------------------------------------------------------------------------------------------
    Electrostatics                 -1.06984559 [mEh]      -0.67133825 [kcal/mol]      -2.80887922 [kJ/mol]
      Elst10,r                     -1.30660858 [mEh]      -0.81990926 [kcal/mol]      -3.43050035 [kJ/mol]
      Elst12,r                      0.23676298 [mEh]       0.14857102 [kcal/mol]       0.62162113 [kJ/mol]

    Exchange                        0.04254393 [mEh]       0.02669672 [kcal/mol]       0.11169907 [kJ/mol]
      Exch10                        0.03436721 [mEh]       0.02156575 [kcal/mol]       0.09023110 [kJ/mol]
      Exch10(S^2)                   0.03436718 [mEh]       0.02156573 [kcal/mol]       0.09023102 [kJ/mol]
      Exch11(S^2)                   0.00054663 [mEh]       0.00034302 [kcal/mol]       0.00143518 [kJ/mol]
      Exch12(S^2)                   0.00763009 [mEh]       0.00478795 [kcal/mol]       0.02003279 [kJ/mol]

    Induction                      -0.09820541 [mEh]      -0.06162483 [kcal/mol]      -0.25783827 [kJ/mol]
      Ind20,r                      -0.09833443 [mEh]      -0.06170579 [kcal/mol]      -0.25817700 [kJ/mol]
      Ind22                         0.00777308 [mEh]       0.00487768 [kcal/mol]       0.02040821 [kJ/mol]
      Exch-Ind20,r                  0.00557601 [mEh]       0.00349900 [kcal/mol]       0.01463980 [kJ/mol]
      Exch-Ind22                   -0.00044077 [mEh]      -0.00027659 [kcal/mol]      -0.00115724 [kJ/mol]
      delta HF,r (2)               -0.01277930 [mEh]      -0.00801913 [kcal/mol]      -0.03355204 [kJ/mol]

    Dispersion                     -0.75280575 [mEh]      -0.47239274 [kcal/mol]      -1.97649122 [kJ/mol]
      Disp20                       -0.79000731 [mEh]      -0.49573707 [kcal/mol]      -2.07416390 [kJ/mol]
      Disp21                        0.17077445 [mEh]       0.10716258 [kcal/mol]       0.44836825 [kJ/mol]
      Disp22 (SDQ)                  0.00857342 [mEh]       0.00537990 [kcal/mol]       0.02250951 [kJ/mol]
      Disp22 (T)                   -0.14432200 [mEh]      -0.09056342 [kcal/mol]      -0.37891737 [kJ/mol]
      Est. Disp22 (T)              -0.14878517 [mEh]      -0.09336411 [kcal/mol]      -0.39063542 [kJ/mol]
      Exch-Disp20                   0.00663887 [mEh]       0.00416595 [kcal/mol]       0.01743034 [kJ/mol]

  Total HF                         -1.37777908 [mEh]      -0.86456943 [kcal/mol]      -3.61735849 [kJ/mol]
  Total SAPT0                      -2.16114753 [mEh]      -1.35614055 [kcal/mol]      -5.67409205 [kJ/mol]
  Total SAPT2                      -1.90887552 [mEh]      -1.19783747 [kcal/mol]      -5.01175199 [kJ/mol]
  Total SAPT2+                     -1.87831282 [mEh]      -1.17865909 [kcal/mol]      -4.93150964 [kJ/mol]

  Special recipe for scaled SAPT0 (see Manual):
    Electrostatics sSAPT0          -1.30660858 [mEh]      -0.81990926 [kcal/mol]      -3.43050035 [kJ/mol]
    Exchange sSAPT0                 0.03436721 [mEh]       0.02156575 [kcal/mol]       0.09023110 [kJ/mol]
    Induction sSAPT0               -0.10553770 [mEh]      -0.06622591 [kcal/mol]      -0.27708920 [kJ/mol]
    Dispersion sSAPT0              -0.78336842 [mEh]      -0.49157111 [kcal/mol]      -2.05673351 [kJ/mol]
  Total sSAPT0                     -2.16114749 [mEh]      -1.35614053 [kcal/mol]      -5.67409196 [kJ/mol]
  --------------------------------------------------------------------------------------------------------

*** tstop() called on node73.bme.utexas.edu at Thu Apr 23 11:57:14 2020
Module time:
	user time   =    1058.44 seconds =      17.64 minutes
	system time =      37.13 seconds =       0.62 minutes
	total time  =        141 seconds =       2.35 minutes
Total time:
	user time   =    1165.40 seconds =      19.42 minutes
	system time =      40.68 seconds =       0.68 minutes
	total time  =        158 seconds =       2.63 minutes

    Psi4 stopped on: Thursday, 23 April 2020 11:57AM
    Psi4 wall time for execution: 0:02:38.56

*** Psi4 exiting successfully. Buy a developer a beer!
