    -----------------------------------------------------------------------
          PSI4: An Open-Source Ab Initio Electronic Structure Package
                              PSI 4.0.0-beta4 Driver

    J. M. Turney, A. C. Simmonett, R. M. Parrish, E. G. Hohenstein,
    F. A. Evangelista, J. T. Fermann, B. J. Mintz, L. A. Burns, J. J. Wilke,
    M. L. Abrams, N. J. Russ, M. L. Leininger, C. L. Janssen, E. T. Seidl,
    W. D. Allen, H. F. Schaefer, R. A. King, E. F. Valeev, C. D. Sherrill,
    and T. D. Crawford, WIREs Comput. Mol. Sci., (2011) (doi: 10.1002/wcms.93)

                         Additional Contributions by
    A. E. DePrince, M. Saitow, U. Bozkaya, A. Yu. Sokolov
    -----------------------------------------------------------------------

    Process ID:  25992
    PSI4DATADIR: /home/xzhu216/psi4/psi4-install/share/psi

    Using LocalCommunicator (Number of processes = 1)

    Memory level set to 256.000 MB

  ==> Input File <==

--------------------------------------------------------------------------
#psi4
#
memory 3 gb

molecule Benzene_MeOH {
0 1
C    0.759749176   1.031275058   0.373772394
H    1.435016257   1.875664269   0.374704616
C    1.266617787  -0.267362341   0.421273076
H    2.334915967  -0.429180190   0.459432338
C    0.395320544  -1.355991164   0.424905109
H    0.788661934  -2.362492586   0.463035490
C   -0.982205637  -1.146654408   0.381270236
H   -1.657656316  -1.991140192   0.385121003
C   -1.489346115   0.151149791   0.337572337
H   -2.557947039   0.313750489   0.307719001
C   -0.618775155   1.240331207   0.333883729
H   -1.011761615   2.247106897   0.304369215
--
0 1
O    0.068108239   0.317949209   3.429508750
H    0.154208454   0.367822300   2.472315205
C   -0.828042360  -0.739664864   3.712563789
H   -0.923763054  -0.796399448   4.793499925
H   -1.820191948  -0.567967124   3.288773585
H   -0.461582042  -1.702705933   3.349652273
units angstrom
no_reorient  #important for SAPT in psi4, default
symmetry c1  #important for SAPT in psi4, default
}

set {
basis aug-cc-pVDZ
scf_type DF
freeze_core True
}
energy('sapt2+')
--------------------------------------------------------------------------

  Memory set to   3.000 GiB by Python script.

  //>>>>>>>>>>>>>>>>>>>>>>>>>>>>>>>>>>>//
  //              Dimer HF             //
  //<<<<<<<<<<<<<<<<<<<<<<<<<<<<<<<<<<<//


  No DF_BASIS_SCF auxiliary basis selected, defaulting to aug-cc-pvdz-jkfit


*** tstart() called on node133.bme.utexas.edu
*** at Thu Sep 19 10:33:45 2013


         ---------------------------------------------------------
                                   SCF
            by Justin Turney, Rob Parrish, and Andy Simmonett
                              RHF Reference
                        4 Threads,   3000 MiB Core
         ---------------------------------------------------------

  ==> Geometry <==

    Molecular point group: c1
    Full point group: C1

    Geometry (in Angstrom), charge = 0, multiplicity = 1:

       Center              X                  Y                   Z       
    ------------   -----------------  -----------------  -----------------
           C          0.947079166581     1.131452091928    -0.925390441498
           H          1.622346247581     1.975841302928    -0.924458219498
           C          1.453947777581    -0.167185307072    -0.877889759498
           H          2.522245957581    -0.329003156072    -0.839730497498
           C          0.582650534581    -1.255814130072    -0.874257726498
           H          0.975991924581    -2.262315552072    -0.836127345498
           C         -0.794875646419    -1.046477374072    -0.917892599498
           H         -1.470326325419    -1.890963158072    -0.914041832498
           C         -1.302016124419     0.251326824928    -0.961590498498
           H         -2.370617048419     0.413927522928    -0.991443834498
           C         -0.431445164419     1.340508240928    -0.965279106498
           H         -0.824431624419     2.347283930928    -0.994793620498
           O          0.255438229581     0.418126242928     2.130345914502
           H          0.341538444581     0.467999333928     1.173152369502
           C         -0.640712369419    -0.639487830072     2.413400953502
           H         -0.736433063419    -0.696222414072     3.494337089502
           H         -1.632861957419    -0.467790090072     1.989610749502
           H         -0.274252051419    -1.602528899072     2.050489437502

  Running in c1 symmetry.

  Nuclear repulsion =  356.204459850139813

  Charge       = 0
  Multiplicity = 1
  Electrons    = 60
  Nalpha       = 30
  Nbeta        = 30

  ==> Algorithm <==

  SCF Algorithm Type is DF.
  DIIS enabled.
  MOM disabled.
  Fractional occupation disabled.
  Guess Type is CORE.
  Energy threshold   = 1.00e-08
  Density threshold  = 1.00e-08
  Integral threshold = 0.00e+00

  ==> Primary Basis <==

  Basis Set: AUG-CC-PVDZ
    Number of shells: 122
    Number of basis function: 274
    Number of Cartesian functions: 290
    Spherical Harmonics?: true
    Max angular momentum: 2

  ==> Pre-Iterations <==

   -------------------------------------------------------
    Irrep   Nso     Nmo     Nalpha   Nbeta   Ndocc  Nsocc
   -------------------------------------------------------
     A        274     274       0       0       0       0
   -------------------------------------------------------
    Total     274     274      30      30      30       0
   -------------------------------------------------------

 OEINTS: Wrapper to libmints.
   by Justin Turney

   Calculation information:
      Number of atoms:                  18
      Number of AO shells:             122
      Number of SO shells:             122
      Number of primitives:            270
      Number of atomic orbitals:       290
      Number of basis functions:       274

      Number of irreps:                  1
      Number of functions per irrep: [ 274 ]

      Overlap, kinetic, potential, dipole, and quadrupole integrals
        stored in file 35.

  ==> Integral Setup <==

  ==> DFJK: Density-Fitted J/K Matrices <==

    J tasked:                  Yes
    K tasked:                  Yes
    wK tasked:                  No
    OpenMP threads:              4
    Integrals threads:           4
    Memory (MB):              2145
    Algorithm:                Core
    Integral Cache:           SAVE
    Schwarz Cutoff:          0E+00
    Fitting Condition:       1E-12

   => Auxiliary Basis Set <=

  Basis Set: aug-cc-pvdz-jkfit
    Number of shells: 344
    Number of basis function: 1008
    Number of Cartesian functions: 1158
    Spherical Harmonics?: true
    Max angular momentum: 3

  Minimum eigenvalue in the overlap matrix is 2.3378538878E-06.
  Using Symmetric Orthogonalization.
  SCF Guess: Core (One-Electron) Hamiltonian.

  Guess energy:  -275.34901848215526

  ==> Iterations <==

                        Total Energy        Delta E     RMS |[F,P]|

   @RHF iter   1:  -274.74951817196569   -2.74750e+02   2.81347e-02 
   @RHF iter   2:  -143.22593629220688    1.31524e+02   4.43730e-02 DIIS
   @RHF iter   3:  -289.97078831720097   -1.46745e+02   2.42425e-02 DIIS
   @RHF iter   4:  -275.34236146858683    1.46284e+01   3.06010e-02 DIIS
   @RHF iter   5:  -340.92707047344157   -6.55847e+01   8.59910e-03 DIIS
   @RHF iter   6:  -345.28189527056310   -4.35482e+00   3.54959e-03 DIIS
   @RHF iter   7:  -345.75825171887283   -4.76356e-01   7.71429e-04 DIIS
   @RHF iter   8:  -345.78019419668982   -2.19425e-02   3.19751e-04 DIIS
   @RHF iter   9:  -345.78527713216084   -5.08294e-03   9.87602e-05 DIIS
   @RHF iter  10:  -345.78581430028174   -5.37168e-04   3.64783e-05 DIIS
   @RHF iter  11:  -345.78591557265491   -1.01272e-04   1.12683e-05 DIIS
   @RHF iter  12:  -345.78592788446048   -1.23118e-05   4.82413e-06 DIIS
   @RHF iter  13:  -345.78593108412502   -3.19966e-06   2.65645e-06 DIIS
   @RHF iter  14:  -345.78593196489402   -8.80769e-07   1.04747e-06 DIIS
   @RHF iter  15:  -345.78593221907960   -2.54186e-07   3.99016e-07 DIIS
   @RHF iter  16:  -345.78593224816808   -2.90885e-08   1.67440e-07 DIIS
   @RHF iter  17:  -345.78593225228173   -4.11364e-09   3.63707e-08 DIIS
   @RHF iter  18:  -345.78593225247761   -1.95882e-10   8.80181e-09 DIIS

  ==> Post-Iterations <==

	Orbital Energies (a.u.)
	-----------------------

	Doubly Occupied:                                                      

	   1A    -20.544356     2A    -11.260921     3A    -11.253771  
	   4A    -11.253293     5A    -11.253228     6A    -11.251874  
	   7A    -11.251777     8A    -11.251275     9A     -1.341602  
	  10A     -1.166445    11A     -1.029813    12A     -1.029186  
	  13A     -0.909676    14A     -0.836912    15A     -0.836903  
	  16A     -0.722011    17A     -0.678461    18A     -0.655148  
	  19A     -0.630774    20A     -0.602349    21A     -0.599736  
	  22A     -0.599642    23A     -0.575873    24A     -0.513655  
	  25A     -0.505378    26A     -0.505313    27A     -0.485549  
	  28A     -0.429839    29A     -0.349149    30A     -0.348983  

	Virtual:                                                              

	  31A      0.032868    32A      0.040718    33A      0.040767  
	  34A      0.052264    35A      0.055625    36A      0.055797  
	  37A      0.074811    38A      0.075513    39A      0.075743  
	  40A      0.090570    41A      0.097427    42A      0.100670  
	  43A      0.121603    44A      0.133946    45A      0.138735  
	  46A      0.140160    47A      0.148961    48A      0.149063  
	  49A      0.150270    50A      0.152652    51A      0.155456  
	  52A      0.160212    53A      0.168615    54A      0.180376  
	  55A      0.183000    56A      0.185776    57A      0.187876  
	  58A      0.190348    59A      0.192509    60A      0.195291  
	  61A      0.204777    62A      0.209274    63A      0.212587  
	  64A      0.243251    65A      0.264585    66A      0.282370  
	  67A      0.285094    68A      0.286992    69A      0.298260  
	  70A      0.307368    71A      0.320067    72A      0.325573  
	  73A      0.331727    74A      0.336170    75A      0.343782  
	  76A      0.357527    77A      0.361508    78A      0.370196  
	  79A      0.376140    80A      0.377153    81A      0.378606  
	  82A      0.381271    83A      0.387337    84A      0.388547  
	  85A      0.408492    86A      0.423037    87A      0.433582  
	  88A      0.435160    89A      0.436386    90A      0.438030  
	  91A      0.441791    92A      0.453964    93A      0.464335  
	  94A      0.468844    95A      0.489827    96A      0.496998  
	  97A      0.500921    98A      0.505387    99A      0.516573  
	 100A      0.519389   101A      0.527375   102A      0.559854  
	 103A      0.564847   104A      0.569762   105A      0.582724  
	 106A      0.584556   107A      0.589229   108A      0.595437  
	 109A      0.599052   110A      0.601726   111A      0.607581  
	 112A      0.610963   113A      0.634238   114A      0.642553  
	 115A      0.653963   116A      0.660096   117A      0.675223  
	 118A      0.679940   119A      0.689859   120A      0.695280  
	 121A      0.696830   122A      0.702869   123A      0.708966  
	 124A      0.717684   125A      0.729634   126A      0.734977  
	 127A      0.742821   128A      0.753741   129A      0.756025  
	 130A      0.773631   131A      0.778363   132A      0.795745  
	 133A      0.800264   134A      0.806078   135A      0.809552  
	 136A      0.820514   137A      0.831370   138A      0.849464  
	 139A      0.851360   140A      0.851854   141A      0.885889  
	 142A      0.891035   143A      0.899784   144A      0.933356  
	 145A      0.944671   146A      0.945581   147A      0.954878  
	 148A      0.959882   149A      0.975689   150A      0.980336  
	 151A      0.981285   152A      1.005406   153A      1.015784  
	 154A      1.026532   155A      1.033106   156A      1.066916  
	 157A      1.074923   158A      1.094889   159A      1.099872  
	 160A      1.116165   161A      1.128985   162A      1.188455  
	 163A      1.189461   164A      1.193025   165A      1.217269  
	 166A      1.259763   167A      1.277699   168A      1.286342  
	 169A      1.340617   170A      1.349636   171A      1.361712  
	 172A      1.398663   173A      1.401406   174A      1.437430  
	 175A      1.485696   176A      1.500927   177A      1.518029  
	 178A      1.522522   179A      1.533313   180A      1.535952  
	 181A      1.576695   182A      1.590142   183A      1.605370  
	 184A      1.615378   185A      1.630547   186A      1.632971  
	 187A      1.645586   188A      1.658606   189A      1.671128  
	 190A      1.711577   191A      1.719231   192A      1.727899  
	 193A      1.732980   194A      1.746260   195A      1.759046  
	 196A      1.776392   197A      1.792072   198A      1.814217  
	 199A      1.833198   200A      1.851194   201A      1.858699  
	 202A      1.868488   203A      1.892304   204A      1.908576  
	 205A      1.923072   206A      1.930059   207A      1.956653  
	 208A      1.965223   209A      1.966377   210A      1.972133  
	 211A      1.981286   212A      2.008230   213A      2.028537  
	 214A      2.040545   215A      2.085906   216A      2.103269  
	 217A      2.121473   218A      2.141318   219A      2.151978  
	 220A      2.172512   221A      2.198551   222A      2.208093  
	 223A      2.219927   224A      2.220932   225A      2.226966  
	 226A      2.240418   227A      2.254010   228A      2.269344  
	 229A      2.274950   230A      2.283418   231A      2.290716  
	 232A      2.294512   233A      2.316044   234A      2.356272  
	 235A      2.369279   236A      2.380316   237A      2.401991  
	 238A      2.414961   239A      2.460937   240A      2.473869  
	 241A      2.488117   242A      2.534381   243A      2.611391  
	 244A      2.672472   245A      2.690546   246A      2.728611  
	 247A      2.782495   248A      2.809887   249A      2.811192  
	 250A      2.811807   251A      2.854235   252A      2.895728  
	 253A      2.946529   254A      2.968478   255A      2.980377  
	 256A      2.990787   257A      2.991683   258A      3.082394  
	 259A      3.150779   260A      3.154600   261A      3.169571  
	 262A      3.174954   263A      3.235741   264A      3.378503  
	 265A      3.384731   266A      3.576661   267A      3.580141  
	 268A      3.806500   269A      3.822116   270A      3.884182  
	 271A      3.940227   272A      4.031684   273A      4.437088  
	 274A      4.853441  

	Final Occupation by Irrep:
	          A 
	DOCC [    30 ]

  Energy converged.

  @RHF Final Energy:  -345.78593225247761

   => Energetics <=

    Nuclear Repulsion Energy =            356.2044598501398127
    One-Electron Energy =               -1174.6349969760910881
    Two-Electron Energy =                 472.6446048734741794
    DFT Exchange-Correlation Energy =       0.0000000000000000
    Empirical Dispersion Energy =           0.0000000000000000
    Total Energy =                       -345.7859322524771528



Properties will be evaluated at   0.000000,   0.000000,   0.000000 Bohr
  ==> Properties <==


Properties computed using the SCF density density matrix
  Nuclear Dipole Moment: (a.u.)
     X:    -1.7301      Y:    -1.9140      Z:     3.0167

  Electronic Dipole Moment: (a.u.)
     X:     1.4381      Y:     1.5272      Z:    -3.7030

  Dipole Moment: (a.u.)
     X:    -0.2919      Y:    -0.3867      Z:    -0.6863     Total:     0.8401

  Dipole Moment: (Debye)
     X:    -0.7421      Y:    -0.9829      Z:    -1.7444     Total:     2.1354


  Saving occupied orbitals to File 180.

  Saving SAPT 2-DIMER file.

*** tstop() called on node133.bme.utexas.edu at Thu Sep 19 10:34:21 2013
Module time:
	user time   =     132.82 seconds =       2.21 minutes
	system time =       1.36 seconds =       0.02 minutes
	total time  =         36 seconds =       0.60 minutes
Total time:
	user time   =     132.82 seconds =       2.21 minutes
	system time =       1.36 seconds =       0.02 minutes
	total time  =         36 seconds =       0.60 minutes

  //>>>>>>>>>>>>>>>>>>>>>>>>>>>>>>>>>>>//
  //            Monomer A HF           //
  //<<<<<<<<<<<<<<<<<<<<<<<<<<<<<<<<<<<//


  No DF_BASIS_SCF auxiliary basis selected, defaulting to aug-cc-pvdz-jkfit


*** tstart() called on node133.bme.utexas.edu
*** at Thu Sep 19 10:34:21 2013


         ---------------------------------------------------------
                                   SCF
            by Justin Turney, Rob Parrish, and Andy Simmonett
                              RHF Reference
                        4 Threads,   3000 MiB Core
         ---------------------------------------------------------

  ==> Geometry <==

    Molecular point group: c1
    Full point group: C1

    Geometry (in Angstrom), charge = 0, multiplicity = 1:

       Center              X                  Y                   Z       
    ------------   -----------------  -----------------  -----------------
           C          0.947079166581     1.131452091928    -0.925390441498
           H          1.622346247581     1.975841302928    -0.924458219498
           C          1.453947777581    -0.167185307072    -0.877889759498
           H          2.522245957581    -0.329003156072    -0.839730497498
           C          0.582650534581    -1.255814130072    -0.874257726498
           H          0.975991924581    -2.262315552072    -0.836127345498
           C         -0.794875646419    -1.046477374072    -0.917892599498
           H         -1.470326325419    -1.890963158072    -0.914041832498
           C         -1.302016124419     0.251326824928    -0.961590498498
           H         -2.370617048419     0.413927522928    -0.991443834498
           C         -0.431445164419     1.340508240928    -0.965279106498
           H         -0.824431624419     2.347283930928    -0.994793620498
           O(Gh)      0.255438229581     0.418126242928     2.130345914502
           H(Gh)      0.341538444581     0.467999333928     1.173152369502
           C(Gh)     -0.640712369419    -0.639487830072     2.413400953502
           H(Gh)     -0.736433063419    -0.696222414072     3.494337089502
           H(Gh)     -1.632861957419    -0.467790090072     1.989610749502
           H(Gh)     -0.274252051419    -1.602528899072     2.050489437502

  Running in c1 symmetry.

  Nuclear repulsion =  203.621439855162293

  Charge       = 0
  Multiplicity = 1
  Electrons    = 42
  Nalpha       = 21
  Nbeta        = 21

  ==> Algorithm <==

  SCF Algorithm Type is DF.
  DIIS enabled.
  MOM disabled.
  Fractional occupation disabled.
  Guess Type is CORE.
  Energy threshold   = 1.00e-08
  Density threshold  = 1.00e-08
  Integral threshold = 0.00e+00

  ==> Primary Basis <==

  Basis Set: AUG-CC-PVDZ
    Number of shells: 122
    Number of basis function: 274
    Number of Cartesian functions: 290
    Spherical Harmonics?: true
    Max angular momentum: 2

  ==> Pre-Iterations <==

   -------------------------------------------------------
    Irrep   Nso     Nmo     Nalpha   Nbeta   Ndocc  Nsocc
   -------------------------------------------------------
     A        274     274       0       0       0       0
   -------------------------------------------------------
    Total     274     274      21      21      21       0
   -------------------------------------------------------

 OEINTS: Wrapper to libmints.
   by Justin Turney

   Calculation information:
      Number of atoms:                  18
      Number of AO shells:             122
      Number of SO shells:             122
      Number of primitives:            270
      Number of atomic orbitals:       290
      Number of basis functions:       274

      Number of irreps:                  1
      Number of functions per irrep: [ 274 ]

      Overlap, kinetic, potential, dipole, and quadrupole integrals
        stored in file 35.

  ==> Integral Setup <==

  ==> DFJK: Density-Fitted J/K Matrices <==

    J tasked:                  Yes
    K tasked:                  Yes
    wK tasked:                  No
    OpenMP threads:              4
    Integrals threads:           4
    Memory (MB):              2145
    Algorithm:                Core
    Integral Cache:           LOAD
    Schwarz Cutoff:          0E+00
    Fitting Condition:       1E-12

   => Auxiliary Basis Set <=

  Basis Set: aug-cc-pvdz-jkfit
    Number of shells: 344
    Number of basis function: 1008
    Number of Cartesian functions: 1158
    Spherical Harmonics?: true
    Max angular momentum: 3

  Minimum eigenvalue in the overlap matrix is 2.3378538878E-06.
  Using Symmetric Orthogonalization.
  SCF Guess: Core (One-Electron) Hamiltonian.

  Guess energy:  -178.81263047837075

  ==> Iterations <==

                        Total Energy        Delta E     RMS |[F,P]|

   @RHF iter   1:  -193.31851106743238   -1.93319e+02   2.05629e-02 
   @RHF iter   2:  -172.83946033941629    2.04791e+01   1.68550e-02 DIIS
   @RHF iter   3:  -228.37917386864211   -5.55397e+01   6.87162e-03 DIIS
   @RHF iter   4:  -230.19220818496962   -1.81303e+00   3.29272e-03 DIIS
   @RHF iter   5:  -230.69037876053329   -4.98171e-01   8.48584e-04 DIIS
   @RHF iter   6:  -230.72307955842763   -3.27008e-02   3.48594e-04 DIIS
   @RHF iter   7:  -230.72907774727889   -5.99819e-03   4.31314e-05 DIIS
   @RHF iter   8:  -230.72922133087286   -1.43584e-04   1.00929e-05 DIIS
   @RHF iter   9:  -230.72922694544860   -5.61458e-06   3.95102e-06 DIIS
   @RHF iter  10:  -230.72922769237522   -7.46927e-07   1.05491e-06 DIIS
   @RHF iter  11:  -230.72922776325100   -7.08758e-08   2.21632e-07 DIIS
   @RHF iter  12:  -230.72922776637665   -3.12565e-09   4.11958e-08 DIIS
   @RHF iter  13:  -230.72922776653814   -1.61492e-10   1.16096e-08 DIIS
   @RHF iter  14:  -230.72922776656515   -2.70006e-11   5.81009e-09 DIIS

  ==> Post-Iterations <==

	Orbital Energies (a.u.)
	-----------------------

	Doubly Occupied:                                                      

	   1A    -11.242492     2A    -11.241930     3A    -11.241867  
	   4A    -11.240745     5A    -11.240643     6A    -11.240076  
	   7A     -1.152467     8A     -1.016790     9A     -1.016770  
	  10A     -0.825459    11A     -0.825447    12A     -0.710037  
	  13A     -0.644867    14A     -0.619158    15A     -0.588250  
	  16A     -0.588214    17A     -0.501518    18A     -0.494475  
	  19A     -0.494456    20A     -0.336113    21A     -0.336101  

	Virtual:                                                              

	  22A      0.031102    23A      0.041608    24A      0.042020  
	  25A      0.045850    26A      0.057133    27A      0.057333  
	  28A      0.074300    29A      0.074575    30A      0.076131  
	  31A      0.077388    32A      0.106142    33A      0.107984  
	  34A      0.115789    35A      0.133984    36A      0.135588  
	  37A      0.137835    38A      0.144414    39A      0.151597  
	  40A      0.152373    41A      0.153849    42A      0.156000  
	  43A      0.160503    44A      0.162132    45A      0.163131  
	  46A      0.183492    47A      0.184550    48A      0.189983  
	  49A      0.190635    50A      0.191182    51A      0.194594  
	  52A      0.200122    53A      0.203875    54A      0.206787  
	  55A      0.241099    56A      0.249832    57A      0.266673  
	  58A      0.271452    59A      0.277443    60A      0.293313  
	  61A      0.294075    62A      0.319201    63A      0.323569  
	  64A      0.326318    65A      0.340820    66A      0.342172  
	  67A      0.354071    68A      0.355871    69A      0.366139  
	  70A      0.372820    71A      0.384396    72A      0.385580  
	  73A      0.386401    74A      0.397315    75A      0.397649  
	  76A      0.409635    77A      0.427718    78A      0.434001  
	  79A      0.434981    80A      0.442147    81A      0.443312  
	  82A      0.460520    83A      0.461294    84A      0.472082  
	  85A      0.477563    86A      0.500186    87A      0.501727  
	  88A      0.508256    89A      0.515182    90A      0.530311  
	  91A      0.548475    92A      0.557282    93A      0.562649  
	  94A      0.571477    95A      0.580227    96A      0.588832  
	  97A      0.594824    98A      0.600467    99A      0.601321  
	 100A      0.607316   101A      0.613610   102A      0.616063  
	 103A      0.624207   104A      0.640670   105A      0.653816  
	 106A      0.663154   107A      0.665590   108A      0.681410  
	 109A      0.693654   110A      0.700978   111A      0.701710  
	 112A      0.703793   113A      0.712012   114A      0.721313  
	 115A      0.729097   116A      0.744876   117A      0.746748  
	 118A      0.759884   119A      0.766044   120A      0.776260  
	 121A      0.784567   122A      0.787838   123A      0.804769  
	 124A      0.816568   125A      0.827033   126A      0.828272  
	 127A      0.840107   128A      0.858218   129A      0.858475  
	 130A      0.859487   131A      0.867832   132A      0.874355  
	 133A      0.880632   134A      0.902204   135A      0.902767  
	 136A      0.931641   137A      0.946399   138A      0.955192  
	 139A      0.958190   140A      0.968619   141A      0.983858  
	 142A      0.984894   143A      0.996836   144A      0.999085  
	 145A      1.010402   146A      1.027559   147A      1.057675  
	 148A      1.082608   149A      1.106447   150A      1.108826  
	 151A      1.126394   152A      1.133512   153A      1.155156  
	 154A      1.199231   155A      1.213863   156A      1.233100  
	 157A      1.279573   158A      1.332394   159A      1.353058  
	 160A      1.356001   161A      1.360686   162A      1.372993  
	 163A      1.442465   164A      1.448645   165A      1.495603  
	 166A      1.505285   167A      1.520761   168A      1.530614  
	 169A      1.543834   170A      1.549178   171A      1.550312  
	 172A      1.571899   173A      1.578396   174A      1.598709  
	 175A      1.626864   176A      1.630675   177A      1.650223  
	 178A      1.655886   179A      1.661433   180A      1.668403  
	 181A      1.693076   182A      1.722798   183A      1.746557  
	 184A      1.747300   185A      1.754513   186A      1.782267  
	 187A      1.811293   188A      1.819364   189A      1.838587  
	 190A      1.856688   191A      1.899355   192A      1.932478  
	 193A      1.936496   194A      1.946411   195A      1.966862  
	 196A      1.973072   197A      1.982787   198A      1.983317  
	 199A      1.999171   200A      2.014753   201A      2.024759  
	 202A      2.073518   203A      2.115283   204A      2.118872  
	 205A      2.129580   206A      2.155857   207A      2.160690  
	 208A      2.212401   209A      2.221608   210A      2.233317  
	 211A      2.235448   212A      2.241456   213A      2.276430  
	 214A      2.278890   215A      2.295152   216A      2.300842  
	 217A      2.332508   218A      2.335837   219A      2.363551  
	 220A      2.378851   221A      2.382784   222A      2.392320  
	 223A      2.407302   224A      2.414353   225A      2.466855  
	 226A      2.472991   227A      2.476558   228A      2.534131  
	 229A      2.580447   230A      2.623884   231A      2.638675  
	 232A      2.671228   233A      2.674805   234A      2.715727  
	 235A      2.810102   236A      2.819480   237A      2.828420  
	 238A      2.844298   239A      2.854889   240A      2.901487  
	 241A      2.946774   242A      2.969582   243A      2.990860  
	 244A      2.992271   245A      3.006750   246A      3.115030  
	 247A      3.148864   248A      3.162280   249A      3.184100  
	 250A      3.190405   251A      3.198841   252A      3.290272  
	 253A      3.310538   254A      3.389308   255A      3.452984  
	 256A      3.591066   257A      3.592338   258A      3.901400  
	 259A      4.063653   260A      4.265997   261A      4.717662  
	 262A      4.860198   263A      4.997616   264A      5.050081  
	 265A      5.060514   266A      5.198199   267A      5.220198  
	 268A      5.482304   269A      5.655515   270A      6.116800  
	 271A      6.541291   272A      7.113878   273A     18.531857  
	 274A     33.592306  

	Final Occupation by Irrep:
	          A 
	DOCC [    21 ]

  Energy converged.

  @RHF Final Energy:  -230.72922776656515

   => Energetics <=

    Nuclear Repulsion Energy =            203.6214398551622935
    One-Electron Energy =                -713.5055855155579820
    Two-Electron Energy =                 279.1549178938308842
    DFT Exchange-Correlation Energy =       0.0000000000000000
    Empirical Dispersion Energy =           0.0000000000000000
    Total Energy =                       -230.7292277665648044



Properties will be evaluated at   0.000000,   0.000000,   0.000000 Bohr
  ==> Properties <==


Properties computed using the SCF density density matrix
  Nuclear Dipole Moment: (a.u.)
     X:     6.0230      Y:     3.3592      Z:   -73.0084

  Electronic Dipole Moment: (a.u.)
     X:    -6.0228      Y:    -3.3586      Z:    73.0149

  Dipole Moment: (a.u.)
     X:     0.0003      Y:     0.0007      Z:     0.0064     Total:     0.0065

  Dipole Moment: (Debye)
     X:     0.0007      Y:     0.0017      Z:     0.0163     Total:     0.0164


  Saving occupied orbitals to File 180.

  Saving SAPT 2-MONOMER_A file.

*** tstop() called on node133.bme.utexas.edu at Thu Sep 19 10:34:43 2013
Module time:
	user time   =      81.91 seconds =       1.37 minutes
	system time =       0.78 seconds =       0.01 minutes
	total time  =         22 seconds =       0.37 minutes
Total time:
	user time   =     214.75 seconds =       3.58 minutes
	system time =       2.14 seconds =       0.04 minutes
	total time  =         58 seconds =       0.97 minutes

  //>>>>>>>>>>>>>>>>>>>>>>>>>>>>>>>>>>>//
  //            Monomer B HF           //
  //<<<<<<<<<<<<<<<<<<<<<<<<<<<<<<<<<<<//


  No DF_BASIS_SCF auxiliary basis selected, defaulting to aug-cc-pvdz-jkfit


*** tstart() called on node133.bme.utexas.edu
*** at Thu Sep 19 10:34:43 2013


         ---------------------------------------------------------
                                   SCF
            by Justin Turney, Rob Parrish, and Andy Simmonett
                              RHF Reference
                        4 Threads,   3000 MiB Core
         ---------------------------------------------------------

  ==> Geometry <==

    Molecular point group: c1
    Full point group: C1

    Geometry (in Angstrom), charge = 0, multiplicity = 1:

       Center              X                  Y                   Z       
    ------------   -----------------  -----------------  -----------------
           C(Gh)      0.947079166581     1.131452091928    -0.925390441498
           H(Gh)      1.622346247581     1.975841302928    -0.924458219498
           C(Gh)      1.453947777581    -0.167185307072    -0.877889759498
           H(Gh)      2.522245957581    -0.329003156072    -0.839730497498
           C(Gh)      0.582650534581    -1.255814130072    -0.874257726498
           H(Gh)      0.975991924581    -2.262315552072    -0.836127345498
           C(Gh)     -0.794875646419    -1.046477374072    -0.917892599498
           H(Gh)     -1.470326325419    -1.890963158072    -0.914041832498
           C(Gh)     -1.302016124419     0.251326824928    -0.961590498498
           H(Gh)     -2.370617048419     0.413927522928    -0.991443834498
           C(Gh)     -0.431445164419     1.340508240928    -0.965279106498
           H(Gh)     -0.824431624419     2.347283930928    -0.994793620498
           O          0.255438229581     0.418126242928     2.130345914502
           H          0.341538444581     0.467999333928     1.173152369502
           C         -0.640712369419    -0.639487830072     2.413400953502
           H         -0.736433063419    -0.696222414072     3.494337089502
           H         -1.632861957419    -0.467790090072     1.989610749502
           H         -0.274252051419    -1.602528899072     2.050489437502

  Running in c1 symmetry.

  Nuclear repulsion =   40.415222434888420

  Charge       = 0
  Multiplicity = 1
  Electrons    = 18
  Nalpha       = 9
  Nbeta        = 9

  ==> Algorithm <==

  SCF Algorithm Type is DF.
  DIIS enabled.
  MOM disabled.
  Fractional occupation disabled.
  Guess Type is CORE.
  Energy threshold   = 1.00e-08
  Density threshold  = 1.00e-08
  Integral threshold = 0.00e+00

  ==> Primary Basis <==

  Basis Set: AUG-CC-PVDZ
    Number of shells: 122
    Number of basis function: 274
    Number of Cartesian functions: 290
    Spherical Harmonics?: true
    Max angular momentum: 2

  ==> Pre-Iterations <==

   -------------------------------------------------------
    Irrep   Nso     Nmo     Nalpha   Nbeta   Ndocc  Nsocc
   -------------------------------------------------------
     A        274     274       0       0       0       0
   -------------------------------------------------------
    Total     274     274       9       9       9       0
   -------------------------------------------------------

 OEINTS: Wrapper to libmints.
   by Justin Turney

   Calculation information:
      Number of atoms:                  18
      Number of AO shells:             122
      Number of SO shells:             122
      Number of primitives:            270
      Number of atomic orbitals:       290
      Number of basis functions:       274

      Number of irreps:                  1
      Number of functions per irrep: [ 274 ]

      Overlap, kinetic, potential, dipole, and quadrupole integrals
        stored in file 35.

  ==> Integral Setup <==

  ==> DFJK: Density-Fitted J/K Matrices <==

    J tasked:                  Yes
    K tasked:                  Yes
    wK tasked:                  No
    OpenMP threads:              4
    Integrals threads:           4
    Memory (MB):              2145
    Algorithm:                Core
    Integral Cache:           LOAD
    Schwarz Cutoff:          0E+00
    Fitting Condition:       1E-12

   => Auxiliary Basis Set <=

  Basis Set: aug-cc-pvdz-jkfit
    Number of shells: 344
    Number of basis function: 1008
    Number of Cartesian functions: 1158
    Spherical Harmonics?: true
    Max angular momentum: 3

  Minimum eigenvalue in the overlap matrix is 2.3378538878E-06.
  Using Symmetric Orthogonalization.
  SCF Guess: Core (One-Electron) Hamiltonian.

  Guess energy:   -90.01476030707161

  ==> Iterations <==

                        Total Energy        Delta E     RMS |[F,P]|

   @RHF iter   1:   -99.23727756664246   -9.92373e+01   1.62557e-02 
   @RHF iter   2:   -89.42911636872478    9.80816e+00   1.03434e-02 DIIS
   @RHF iter   3:  -110.29095231797746   -2.08618e+01   1.15052e-02 DIIS
   @RHF iter   4:  -112.38805540149343   -2.09710e+00   8.78190e-03 DIIS
   @RHF iter   5:  -114.05817052094906   -1.67012e+00   5.41737e-03 DIIS
   @RHF iter   6:  -114.95876484098699   -9.00594e-01   1.56846e-03 DIIS
   @RHF iter   7:  -115.04411471220178   -8.53499e-02   7.10716e-04 DIIS
   @RHF iter   8:  -115.06157747436336   -1.74628e-02   8.99394e-05 DIIS
   @RHF iter   9:  -115.06185140760667   -2.73933e-04   9.74014e-06 DIIS
   @RHF iter  10:  -115.06185918981470   -7.78221e-06   3.36306e-06 DIIS
   @RHF iter  11:  -115.06185974623079   -5.56416e-07   5.96481e-07 DIIS
   @RHF iter  12:  -115.06185977232431   -2.60935e-08   1.00735e-07 DIIS
   @RHF iter  13:  -115.06185977291997   -5.95662e-10   2.18278e-08 DIIS
   @RHF iter  14:  -115.06185977294550   -2.55227e-11   3.57721e-09 DIIS

  ==> Post-Iterations <==

	Orbital Energies (a.u.)
	-----------------------

	Doubly Occupied:                                                      

	   1A    -20.569725     2A    -11.278013     3A     -1.363586  
	   4A     -0.926909     5A     -0.693508     6A     -0.620183  
	   7A     -0.594974     8A     -0.504823     9A     -0.450000  

	Virtual:                                                              

	  10A      0.019480    11A      0.035637    12A      0.036185  
	  13A      0.047476    14A      0.056138    15A      0.056326  
	  16A      0.070928    17A      0.073592    18A      0.075654  
	  19A      0.076806    20A      0.085396    21A      0.109569  
	  22A      0.110609    23A      0.117637    24A      0.130426  
	  25A      0.132451    26A      0.141233    27A      0.142869  
	  28A      0.143343    29A      0.144260    30A      0.154150  
	  31A      0.169837    32A      0.176985    33A      0.178708  
	  34A      0.180937    35A      0.183030    36A      0.186635  
	  37A      0.191755    38A      0.194229    39A      0.194645  
	  40A      0.200758    41A      0.211408    42A      0.229007  
	  43A      0.230558    44A      0.255882    45A      0.268851  
	  46A      0.277110    47A      0.279901    48A      0.289291  
	  49A      0.292379    50A      0.305297    51A      0.315130  
	  52A      0.329874    53A      0.334874    54A      0.340582  
	  55A      0.346049    56A      0.358347    57A      0.375568  
	  58A      0.386014    59A      0.389743    60A      0.396487  
	  61A      0.397824    62A      0.401568    63A      0.413067  
	  64A      0.424508    65A      0.432316    66A      0.439411  
	  67A      0.441911    68A      0.446569    69A      0.458905  
	  70A      0.465200    71A      0.474697    72A      0.474964  
	  73A      0.479955    74A      0.493224    75A      0.500682  
	  76A      0.510228    77A      0.514897    78A      0.521306  
	  79A      0.535356    80A      0.539014    81A      0.544738  
	  82A      0.557086    83A      0.570682    84A      0.574871  
	  85A      0.592866    86A      0.593162    87A      0.613341  
	  88A      0.621483    89A      0.624520    90A      0.633045  
	  91A      0.640463    92A      0.640841    93A      0.649593  
	  94A      0.664423    95A      0.678631    96A      0.681989  
	  97A      0.697316    98A      0.710500    99A      0.723133  
	 100A      0.739684   101A      0.743668   102A      0.747571  
	 103A      0.756297   104A      0.759257   105A      0.769398  
	 106A      0.785580   107A      0.804792   108A      0.806599  
	 109A      0.813350   110A      0.839963   111A      0.852536  
	 112A      0.859031   113A      0.860734   114A      0.871477  
	 115A      0.876306   116A      0.880739   117A      0.882835  
	 118A      0.887652   119A      0.891014   120A      0.891100  
	 121A      0.909076   122A      0.917066   123A      0.926445  
	 124A      0.942886   125A      0.944954   126A      0.970785  
	 127A      1.009429   128A      1.013184   129A      1.015371  
	 130A      1.016726   131A      1.035615   132A      1.048263  
	 133A      1.051928   134A      1.053172   135A      1.082402  
	 136A      1.109429   137A      1.112885   138A      1.117006  
	 139A      1.125628   140A      1.130605   141A      1.167533  
	 142A      1.196750   143A      1.225584   144A      1.228932  
	 145A      1.229427   146A      1.246160   147A      1.258199  
	 148A      1.261024   149A      1.346677   150A      1.379524  
	 151A      1.382463   152A      1.397166   153A      1.398877  
	 154A      1.474855   155A      1.475707   156A      1.484606  
	 157A      1.492429   158A      1.546106   159A      1.563581  
	 160A      1.614084   161A      1.654626   162A      1.737117  
	 163A      1.752024   164A      1.805199   165A      1.824662  
	 166A      1.837502   167A      1.868516   168A      1.938233  
	 169A      1.940154   170A      2.066559   171A      2.089852  
	 172A      2.110848   173A      2.134832   174A      2.137888  
	 175A      2.141531   176A      2.161365   177A      2.194935  
	 178A      2.207031   179A      2.222971   180A      2.224736  
	 181A      2.243861   182A      2.265935   183A      2.271689  
	 184A      2.273955   185A      2.282172   186A      2.296187  
	 187A      2.299536   188A      2.309686   189A      2.311277  
	 190A      2.331450   191A      2.336291   192A      2.353948  
	 193A      2.364834   194A      2.393511   195A      2.450554  
	 196A      2.469197   197A      2.476172   198A      2.489322  
	 199A      2.501376   200A      2.520772   201A      2.532444  
	 202A      2.553795   203A      2.570250   204A      2.598364  
	 205A      2.619846   206A      2.626991   207A      2.642686  
	 208A      2.648605   209A      2.649927   210A      2.678679  
	 211A      2.682781   212A      2.693075   213A      2.717430  
	 214A      2.736494   215A      2.745960   216A      2.747503  
	 217A      2.812847   218A      2.864835   219A      2.868874  
	 220A      2.869012   221A      2.872474   222A      2.898978  
	 223A      2.902711   224A      2.910305   225A      2.954079  
	 226A      2.975713   227A      2.980249   228A      3.055634  
	 229A      3.084234   230A      3.167075   231A      3.204842  
	 232A      3.247511   233A      3.275812   234A      3.327689  
	 235A      3.408988   236A      3.433822   237A      3.440462  
	 238A      3.458746   239A      3.463026   240A      3.523700  
	 241A      3.530743   242A      3.543963   243A      3.587586  
	 244A      3.613831   245A      3.712208   246A      3.782388  
	 247A      3.788027   248A      3.826546   249A      3.913188  
	 250A      3.962326   251A      3.973302   252A      3.990361  
	 253A      4.009916   254A      4.046913   255A      4.099659  
	 256A      4.333018   257A      4.392068   258A      4.530939  
	 259A      4.673671   260A      4.858013   261A      4.883000  
	 262A      5.309599   263A      5.443994   264A      5.446221  
	 265A      5.460905   266A      5.463534   267A      5.632608  
	 268A      6.092159   269A     18.003782   270A     18.393482  
	 271A     18.407076   272A     18.999980   273A     19.006787  
	 274A     20.694401  

	Final Occupation by Irrep:
	          A 
	DOCC [     9 ]

  Energy converged.

  @RHF Final Energy:  -115.06185977294550

   => Energetics <=

    Nuclear Repulsion Energy =             40.4152224348884204
    One-Electron Energy =                -236.9507233998015181
    Two-Electron Energy =                  81.4736411919675731
    DFT Exchange-Correlation Energy =       0.0000000000000000
    Empirical Dispersion Energy =           0.0000000000000000
    Total Energy =                       -115.0618597729455246



Properties will be evaluated at   0.000000,   0.000000,   0.000000 Bohr
  ==> Properties <==


Properties computed using the SCF density density matrix
  Nuclear Dipole Moment: (a.u.)
     X:    -7.7531      Y:    -5.2732      Z:    76.0251

  Electronic Dipole Moment: (a.u.)
     X:     7.4253      Y:     4.8541      Z:   -76.5002

  Dipole Moment: (a.u.)
     X:    -0.3278      Y:    -0.4192      Z:    -0.4750     Total:     0.7133

  Dipole Moment: (Debye)
     X:    -0.8332      Y:    -1.0654      Z:    -1.2074     Total:     1.8131


  Saving occupied orbitals to File 180.

  Saving SAPT 2-MONOMER_B file.

*** tstop() called on node133.bme.utexas.edu at Thu Sep 19 10:35:03 2013
Module time:
	user time   =      74.35 seconds =       1.24 minutes
	system time =       0.74 seconds =       0.01 minutes
	total time  =         20 seconds =       0.33 minutes
Total time:
	user time   =     289.17 seconds =       4.82 minutes
	system time =       2.88 seconds =       0.05 minutes
	total time  =         78 seconds =       1.30 minutes
  No DF_BASIS_SAPT auxiliary basis selected, defaulting to aug-cc-pvdz-ri

  //>>>>>>>>>>>>>>>>>>>>>>>>>>>>>>>>>>>//
  //               SAPT2+              //
  //<<<<<<<<<<<<<<<<<<<<<<<<<<<<<<<<<<<//


*** tstart() called on node133.bme.utexas.edu
*** at Thu Sep 19 10:35:03 2013

        SAPT2+  
    Ed Hohenstein
     6 June 2009

      Orbital Information
  --------------------------
    NSO        =       274
    NMO        =       274
    NRI        =       806
    NOCC A     =        21
    NOCC B     =         9
    FOCC A     =         6
    FOCC B     =         2
    NVIR A     =       253
    NVIR B     =       265

    Estimated memory usage: 1196.1 MB

    Elst10,r            =    -0.008960287967 H
    Exch10 (S^2)        =     0.017752493038 H
    Exch10              =     0.017831243628 H
    Ind20,r (A<-B)      =    -0.005028280296 H
    Ind20,r (B<-A)      =    -0.001520405374 H
    Ind20,r             =    -0.006548685670 H
    Exch-Ind20,r (A<-B) =     0.003271248009 H
    Exch-Ind20,r (B<-A) =     0.001341428875 H
    Exch-Ind20,r        =     0.004612676884 H
    Disp20              =    -0.013084688450 H
    Exch-Disp20         =     0.001747189656 H
    Elst12,r            =     0.000011264407 H
    Exch11              =     0.000457012103 H
    Exch12              =     0.001210968110 H
    Ind22               =    -0.000614980683 H
    Disp21              =     0.002323114027 H
    Disp22 (SDQ)        =     0.000126725792 H

    (i =   1 of   7)        430 seconds
    (i =   2 of   7)        859 seconds
    (i =   3 of   7)       1288 seconds
    (i =   4 of   7)       1717 seconds
    (i =   5 of   7)       2147 seconds
    (i =   6 of   7)       2576 seconds
    (i =   7 of   7)       3006 seconds

    Disp220 (T)         =    -0.001183899172 H

    (i =   1 of  15)        129 seconds
    (i =   2 of  15)        259 seconds
    (i =   3 of  15)        389 seconds
    (i =   4 of  15)        519 seconds
    (i =   5 of  15)        648 seconds
    (i =   6 of  15)        778 seconds
    (i =   7 of  15)        908 seconds
    (i =   8 of  15)       1038 seconds
    (i =   9 of  15)       1167 seconds
    (i =  10 of  15)       1297 seconds
    (i =  11 of  15)       1427 seconds
    (i =  12 of  15)       1557 seconds
    (i =  13 of  15)       1686 seconds
    (i =  14 of  15)       1816 seconds
    (i =  15 of  15)       1946 seconds

    Disp202 (T)         =    -0.001117044713 H

    Disp22 (T)          =    -0.002300943885 H

    SAPT Results  
  -----------------------------------------------------------------------
    Electrostatics          -8.94902356 mH      -5.61559730 kcal mol^-1
      Elst10,r              -8.96028797 mH      -5.62266582 kcal mol^-1
      Elst12,r               0.01126441 mH       0.00706852 kcal mol^-1

    Exchange                19.49922384 mH      12.23594820 kcal mol^-1
      Exch10                17.83124363 mH      11.18927477 kcal mol^-1
      Exch10(S^2)           17.75249304 mH      11.13985803 kcal mol^-1
      Exch11(S^2)            0.45701210 mH       0.28677944 kcal mol^-1
      Exch12(S^2)            1.21096811 mH       0.75989399 kcal mol^-1

    Induction               -3.89747732 mH      -2.44570405 kcal mol^-1
      Ind20,r               -6.54868567 mH      -4.10936247 kcal mol^-1
      Ind22                 -0.61498068 mH      -0.38590622 kcal mol^-1
      Exch-Ind20,r           4.61267688 mH       2.89449856 kcal mol^-1
      Exch-Ind22             0.43317199 mH       0.27181954 kcal mol^-1
      delta HF,r (2)        -1.77965984 mH      -1.11675346 kcal mol^-1

    Dispersion             -11.18860286 mH      -7.02095459 kcal mol^-1
      Disp20               -13.08468845 mH      -8.21076631 kcal mol^-1
      Disp21                 2.32311403 mH       1.45777612 kcal mol^-1
      Disp22 (SDQ)           0.12672579 mH       0.07952164 kcal mol^-1
      Disp22 (T)            -2.30094388 mH      -1.44386415 kcal mol^-1
      Exch-Disp20            1.74718966 mH       1.09637811 kcal mol^-1

    Total HF                 5.15528703 mH       3.23499159 kcal mol^-1
    Total SAPT0             -6.18221176 mH      -3.87939661 kcal mol^-1
    Total SAPT2             -4.68477584 mH      -2.93974134 kcal mol^-1
    Total SAPT2+            -4.53587990 mH      -2.84630773 kcal mol^-1

*** tstop() called on node133.bme.utexas.edu at Thu Sep 19 12:10:25 2013
Module time:
	user time   =   21020.11 seconds =     350.34 minutes
	system time =      92.84 seconds =       1.55 minutes
	total time  =       5722 seconds =      95.37 minutes
Total time:
	user time   =   21309.28 seconds =     355.15 minutes
	system time =      95.72 seconds =       1.60 minutes
	total time  =       5800 seconds =      96.67 minutes

*** PSI4 exiting successfully. Buy a developer a beer!
