
    -----------------------------------------------------------------------
          Psi4: An Open-Source Ab Initio Electronic Structure Package
                               Psi4 1.4a2.dev224 

                         Git: Rev {master} e453b16 


    R. M. Parrish, L. A. Burns, D. G. A. Smith, A. C. Simmonett,
    A. E. DePrince III, E. G. Hohenstein, U. Bozkaya, A. Yu. Sokolov,
    R. Di Remigio, R. M. Richard, J. F. Gonthier, A. M. James,
    H. R. McAlexander, A. Kumar, M. Saitow, X. Wang, B. P. Pritchard,
    P. Verma, H. F. Schaefer III, K. Patkowski, R. A. King, E. F. Valeev,
    F. A. Evangelista, J. M. Turney, T. D. Crawford, and C. D. Sherrill,
    J. Chem. Theory Comput. 13(7) pp 3185--3197 (2017).
    (doi: 10.1021/acs.jctc.7b00174)


                         Additional Contributions by
    P. Kraus, H. Kruse, M. H. Lechner, M. C. Schieber, R. A. Shaw,
    A. Alenaizan, R. Galvelis, Z. L. Glick, S. Lehtola, and J. P. Misiewicz

    -----------------------------------------------------------------------


    Psi4 started on: Thursday, 23 April 2020 05:17PM

    Process ID: 84274
    Host:       node62.bme.utexas.edu
    PSIDATADIR: /home/liuchw/anaconda3/envs/psi4env/share/psi4
    Memory:     500.0 MiB
    Threads:    8
    
  ==> Input File <==

--------------------------------------------------------------------------
#Generated by lconvert.py for sapt job

memory 20 GB

molecule  {
0 1
  C       0.759750    1.031270    0.373770
  H       1.435020    1.875660    0.374710
  C       1.266620   -0.267360    0.421270
  H       2.334920   -0.429180    0.459430
  C       0.395320   -1.355990    0.424900
  H       0.788660   -2.362490    0.463030
  C      -0.982210   -1.146650    0.381270
  H      -1.657660   -1.991140    0.385120
  C      -1.489350    0.151150    0.337570
  H      -2.557950    0.313750    0.307720
  C      -0.618770    1.240330    0.333880
  H      -1.011760    2.247110    0.304370
--
0 1
  O      -0.155040    0.193480    6.134070
  H      -0.068940    0.243350    5.176870
  C      -1.051190   -0.864130    6.417120
  H      -1.146910   -0.920870    7.498060
  H      -2.043340   -0.692440    5.993330
  H      -0.684730   -1.827180    6.054210
units angstrom
no_reorient
symmetry c1
}

set {
scf_type DF
basis aug-cc-pvdz
freeze_core True
guess SAD
}
energy('sapt2+')
--------------------------------------------------------------------------

  Memory set to  18.626 GiB by Python driver.

Scratch directory: /scratch/liuchw/

  //>>>>>>>>>>>>>>>>>>>>>>>>>>>>>>>>>>>//
  //              Dimer HF             //
  //<<<<<<<<<<<<<<<<<<<<<<<<<<<<<<<<<<<//


*** tstart() called on node62.bme.utexas.edu
*** at Thu Apr 23 17:17:30 2020

   => Loading Basis Set <=

    Name: AUG-CC-PVDZ
    Role: ORBITAL
    Keyword: BASIS
    atoms 1, 3, 5, 7, 9, 11, 15         entry C          line   182 file /home/liuchw/anaconda3/envs/psi4env/share/psi4/basis/aug-cc-pvdz.gbs 
    atoms 2, 4, 6, 8, 10, 12, 14, 16-18 entry H          line    40 file /home/liuchw/anaconda3/envs/psi4env/share/psi4/basis/aug-cc-pvdz.gbs 
    atoms 13                            entry O          line   254 file /home/liuchw/anaconda3/envs/psi4env/share/psi4/basis/aug-cc-pvdz.gbs 


         ---------------------------------------------------------
                                   SCF
               by Justin Turney, Rob Parrish, Andy Simmonett
                          and Daniel G. A. Smith
                              RHF Reference
                        8 Threads,  19073 MiB Core
         ---------------------------------------------------------

  ==> Geometry <==

    Molecular point group: c1
    Full point group: C1

    Geometry (in Angstrom), charge = 0, multiplicity = 1:

       Center              X                  Y                   Z               Mass       
    ------------   -----------------  -----------------  -----------------  -----------------
         C            1.012005815713     1.167661293748    -1.712292881573    12.000000000000
         H            1.687275815713     2.012051293748    -1.711352881573     1.007825032230
         C            1.518875815713    -0.130968706252    -1.664792881573    12.000000000000
         H            2.587175815713    -0.292788706252    -1.626632881573     1.007825032230
         C            0.647575815713    -1.219598706252    -1.661162881573    12.000000000000
         H            1.040915815713    -2.226098706252    -1.623032881573     1.007825032230
         C           -0.729954184287    -1.010258706252    -1.704792881573    12.000000000000
         H           -1.405404184287    -1.854748706252    -1.700942881573     1.007825032230
         C           -1.237094184287     0.287541293748    -1.748492881573    12.000000000000
         H           -2.305694184287     0.450141293748    -1.778342881573     1.007825032230
         C           -0.366514184287     1.376721293748    -1.752182881573    12.000000000000
         H           -0.759504184287     2.383501293748    -1.781692881573     1.007825032230
         O            0.097215815713     0.329871293748     4.048007118427    15.994914619570
         H            0.183315815713     0.379741293748     3.090807118427     1.007825032230
         C           -0.798934184287    -0.727738706252     4.331057118427    12.000000000000
         H           -0.894654184287    -0.784478706252     5.411997118427     1.007825032230
         H           -1.791084184287    -0.556048706252     3.907267118427     1.007825032230
         H           -0.432474184287    -1.690788706252     3.968147118427     1.007825032230

  Running in c1 symmetry.

  Rotational constants: A =      0.08668  B =      0.01907  C =      0.01877 [cm^-1]
  Rotational constants: A =   2598.68509  B =    571.78269  C =    562.70724 [MHz]
  Nuclear repulsion =  309.418325019606073

  Charge       = 0
  Multiplicity = 1
  Electrons    = 60
  Nalpha       = 30
  Nbeta        = 30

  ==> Algorithm <==

  SCF Algorithm Type is DF.
  DIIS enabled.
  MOM disabled.
  Fractional occupation disabled.
  Guess Type is SAD.
  Energy threshold   = 1.00e-08
  Density threshold  = 1.00e-08
  Integral threshold = 0.00e+00

  ==> Primary Basis <==

  Basis Set: AUG-CC-PVDZ
    Blend: AUG-CC-PVDZ
    Number of shells: 122
    Number of basis function: 274
    Number of Cartesian functions: 290
    Spherical Harmonics?: true
    Max angular momentum: 2

   => Loading Basis Set <=

    Name: (AUG-CC-PVDZ AUX)
    Role: JKFIT
    Keyword: DF_BASIS_SCF
    atoms 1, 3, 5, 7, 9, 11, 15         entry C          line   154 file /home/liuchw/anaconda3/envs/psi4env/share/psi4/basis/aug-cc-pvdz-jkfit.gbs 
    atoms 2, 4, 6, 8, 10, 12, 14, 16-18 entry H          line    70 file /home/liuchw/anaconda3/envs/psi4env/share/psi4/basis/aug-cc-pvdz-jkfit.gbs 
    atoms 13                            entry O          line   270 file /home/liuchw/anaconda3/envs/psi4env/share/psi4/basis/aug-cc-pvdz-jkfit.gbs 

  ==> Pre-Iterations <==

   -------------------------------------------------------
    Irrep   Nso     Nmo     Nalpha   Nbeta   Ndocc  Nsocc
   -------------------------------------------------------
     A        274     274       0       0       0       0
   -------------------------------------------------------
    Total     274     274      30      30      30       0
   -------------------------------------------------------

  ==> Integral Setup <==

  ==> DiskDFJK: Density-Fitted J/K Matrices <==

    J tasked:                  Yes
    K tasked:                  Yes
    wK tasked:                  No
    OpenMP threads:              8
    Integrals threads:           8
    Memory [MiB]:            14305
    Algorithm:                Core
    Integral Cache:           SAVE
    Schwarz Cutoff:          1E-12
    Fitting Condition:       1E-10

   => Auxiliary Basis Set <=

  Basis Set: (AUG-CC-PVDZ AUX)
    Blend: AUG-CC-PVDZ-JKFIT
    Number of shells: 344
    Number of basis function: 1008
    Number of Cartesian functions: 1158
    Spherical Harmonics?: true
    Max angular momentum: 3

  Minimum eigenvalue in the overlap matrix is 2.3385035159E-06.
  Using Symmetric Orthogonalization.

  SCF Guess: Superposition of Atomic Densities via on-the-fly atomic UHF.

  ==> Iterations <==

                           Total Energy        Delta E     RMS |[F,P]|

   @DF-RHF iter SAD:  -344.51996964437467   -3.44520e+02   0.00000e+00 
   @DF-RHF iter   1:  -345.53078244211031   -1.01081e+00   2.40122e-03 DIIS
   @DF-RHF iter   2:  -345.73393661224895   -2.03154e-01   1.24765e-03 DIIS
   @DF-RHF iter   3:  -345.78756192941808   -5.36253e-02   2.05286e-04 DIIS
   @DF-RHF iter   4:  -345.78994434806032   -2.38242e-03   6.38716e-05 DIIS
   @DF-RHF iter   5:  -345.79010612869484   -1.61781e-04   1.44689e-05 DIIS
   @DF-RHF iter   6:  -345.79011755627835   -1.14276e-05   3.22258e-06 DIIS
   @DF-RHF iter   7:  -345.79011839786125   -8.41583e-07   9.10127e-07 DIIS
   @DF-RHF iter   8:  -345.79011846093698   -6.30757e-08   2.88831e-07 DIIS
   @DF-RHF iter   9:  -345.79011846894122   -8.00424e-09   7.76478e-08 DIIS
   @DF-RHF iter  10:  -345.79011846934293   -4.01712e-10   3.36471e-08 DIIS
   @DF-RHF iter  11:  -345.79011846941228   -6.93490e-11   4.67929e-09 DIIS
  Energy and wave function converged.


  ==> Post-Iterations <==

    Orbital Energies [Eh]
    ---------------------

    Doubly Occupied:                                                      

       1A    -20.564968     2A    -11.274594     3A    -11.246819  
       4A    -11.246258     5A    -11.246247     6A    -11.245052  
       7A    -11.245029     8A    -11.244441     9A     -1.359151  
      10A     -1.157383    11A     -1.021706    12A     -1.021691  
      13A     -0.923076    14A     -0.830254    15A     -0.830236  
      16A     -0.714832    17A     -0.689177    18A     -0.649447  
      19A     -0.624043    20A     -0.616249    21A     -0.593065  
      22A     -0.593060    23A     -0.590957    24A     -0.506322  
      25A     -0.500847    26A     -0.499205    27A     -0.499170  
      28A     -0.445856    29A     -0.340941    30A     -0.340937  

    Virtual:                                                              

      31A      0.030435    32A      0.039522    33A      0.039729  
      34A      0.046853    35A      0.055248    36A      0.055759  
      37A      0.067652    38A      0.067871    39A      0.072479  
      40A      0.074938    41A      0.102811    42A      0.103839  
      43A      0.119281    44A      0.126173    45A      0.136109  
      46A      0.142629    47A      0.143281    48A      0.144450  
      49A      0.144779    50A      0.151154    51A      0.151263  
      52A      0.155979    53A      0.161925    54A      0.165694  
      55A      0.168867    56A      0.177910    57A      0.181097  
      58A      0.182950    59A      0.188503    60A      0.188893  
      61A      0.190267    62A      0.197106    63A      0.200886  
      64A      0.217752    65A      0.235177    66A      0.256033  
      67A      0.264861    68A      0.266097    69A      0.284360  
      70A      0.294783    71A      0.296892    72A      0.298438  
      73A      0.312160    74A      0.312702    75A      0.324585  
      76A      0.335604    77A      0.343212    78A      0.352573  
      79A      0.353024    80A      0.354973    81A      0.363310  
      82A      0.378182    83A      0.381696    84A      0.382232  
      85A      0.384149    86A      0.396851    87A      0.398580  
      88A      0.407143    89A      0.426014    90A      0.427140  
      91A      0.428917    92A      0.430565    93A      0.440255  
      94A      0.440485    95A      0.461352    96A      0.468407  
      97A      0.475418    98A      0.480387    99A      0.481589  
     100A      0.505329   101A      0.505741   102A      0.536191  
     103A      0.539147   104A      0.560375   105A      0.561018  
     106A      0.573573   107A      0.575265   108A      0.577741  
     109A      0.587269   110A      0.591224   111A      0.591701  
     112A      0.591855   113A      0.600745   114A      0.621925  
     115A      0.629702   116A      0.629811   117A      0.635937  
     118A      0.643020   119A      0.665102   120A      0.665426  
     121A      0.670257   122A      0.683199   123A      0.685220  
     124A      0.685507   125A      0.688928   126A      0.693865  
     127A      0.695845   128A      0.700956   129A      0.705698  
     130A      0.732222   131A      0.754265   132A      0.755859  
     133A      0.761013   134A      0.763402   135A      0.772508  
     136A      0.773208   137A      0.777469   138A      0.783135  
     139A      0.783956   140A      0.854206   141A      0.856170  
     142A      0.856199   143A      0.872925   144A      0.887351  
     145A      0.888001   146A      0.923076   147A      0.924141  
     148A      0.926873   149A      0.929183   150A      0.952143  
     151A      0.958631   152A      0.969447   153A      0.971803  
     154A      0.972612   155A      0.981612   156A      0.981819  
     157A      1.002914   158A      1.008585   159A      1.017345  
     160A      1.062943   161A      1.065778   162A      1.075417  
     163A      1.097526   164A      1.101258   165A      1.137934  
     166A      1.175907   167A      1.176118   168A      1.194711  
     169A      1.200021   170A      1.244822   171A      1.259602  
     172A      1.344025   173A      1.345357   174A      1.398449  
     175A      1.417633   176A      1.440604   177A      1.480169  
     178A      1.498763   179A      1.529797   180A      1.529832  
     181A      1.533703   182A      1.534261   183A      1.538990  
     184A      1.562358   185A      1.579026   186A      1.610110  
     187A      1.624051   188A      1.625025   189A      1.626663  
     190A      1.635295   191A      1.636428   192A      1.668390  
     193A      1.705864   194A      1.705930   195A      1.710511  
     196A      1.710627   197A      1.724970   198A      1.778983  
     199A      1.784019   200A      1.786118   201A      1.789867  
     202A      1.798395   203A      1.809505   204A      1.839414  
     205A      1.889457   206A      1.892234   207A      1.897562  
     208A      1.907708   209A      1.915044   210A      1.929775  
     211A      1.951389   212A      1.952870   213A      1.965693  
     214A      1.965733   215A      1.983121   216A      1.988295  
     217A      2.104307   218A      2.104462   219A      2.106368  
     220A      2.111213   221A      2.114157   222A      2.127790  
     223A      2.128397   224A      2.143961   225A      2.189939  
     226A      2.200165   227A      2.201020   228A      2.217027  
     229A      2.217444   230A      2.256335   231A      2.262612  
     232A      2.264258   233A      2.275758   234A      2.293278  
     235A      2.325875   236A      2.359352   237A      2.371577  
     238A      2.371938   239A      2.394025   240A      2.421244  
     241A      2.451798   242A      2.452182   243A      2.567084  
     244A      2.618037   245A      2.634184   246A      2.677896  
     247A      2.730976   248A      2.789369   249A      2.791617  
     250A      2.794516   251A      2.796301   252A      2.802164  
     253A      2.803552   254A      2.909592   255A      2.916525  
     256A      2.970449   257A      2.971368   258A      2.977144  
     259A      3.074421   260A      3.142476   261A      3.143268  
     262A      3.153512   263A      3.156408   264A      3.168483  
     265A      3.384007   266A      3.560921   267A      3.561722  
     268A      3.744988   269A      3.766822   270A      3.809335  
     271A      3.884405   272A      3.901810   273A      4.287728  
     274A      4.811521  

    Final Occupation by Irrep:
              A 
    DOCC [    30 ]

  @DF-RHF Final Energy:  -345.79011846941228

   => Energetics <=

    Nuclear Repulsion Energy =            309.4183250196060726
    One-Electron Energy =               -1081.0948599676285085
    Two-Electron Energy =                 425.8864164786101583
    Total Energy =                       -345.7901184694122776

Computation Completed


Properties will be evaluated at   0.000000,   0.000000,   0.000000 [a0]

Properties computed using the SCF density matrix

  Nuclear Dipole Moment: [e a0]
     X:    -1.9590      Y:    -2.0416      Z:     5.7907

  Electronic Dipole Moment: [e a0]
     X:     1.6449      Y:     1.6366      Z:    -6.3162

  Dipole Moment: [e a0]
     X:    -0.3140      Y:    -0.4051      Z:    -0.5255     Total:     0.7341

  Dipole Moment: [D]
     X:    -0.7982      Y:    -1.0296      Z:    -1.3357     Total:     1.8658


*** tstop() called on node62.bme.utexas.edu at Thu Apr 23 17:17:38 2020
Module time:
	user time   =      48.38 seconds =       0.81 minutes
	system time =       1.68 seconds =       0.03 minutes
	total time  =          8 seconds =       0.13 minutes
Total time:
	user time   =      48.38 seconds =       0.81 minutes
	system time =       1.68 seconds =       0.03 minutes
	total time  =          8 seconds =       0.13 minutes

  //>>>>>>>>>>>>>>>>>>>>>>>>>>>>>>>>>>>//
  //            Monomer A HF           //
  //<<<<<<<<<<<<<<<<<<<<<<<<<<<<<<<<<<<//


*** tstart() called on node62.bme.utexas.edu
*** at Thu Apr 23 17:17:38 2020

   => Loading Basis Set <=

    Name: AUG-CC-PVDZ
    Role: ORBITAL
    Keyword: BASIS
    atoms 1, 3, 5, 7, 9, 11, 15         entry C          line   182 file /home/liuchw/anaconda3/envs/psi4env/share/psi4/basis/aug-cc-pvdz.gbs 
    atoms 2, 4, 6, 8, 10, 12, 14, 16-18 entry H          line    40 file /home/liuchw/anaconda3/envs/psi4env/share/psi4/basis/aug-cc-pvdz.gbs 
    atoms 13                            entry O          line   254 file /home/liuchw/anaconda3/envs/psi4env/share/psi4/basis/aug-cc-pvdz.gbs 


         ---------------------------------------------------------
                                   SCF
               by Justin Turney, Rob Parrish, Andy Simmonett
                          and Daniel G. A. Smith
                              RHF Reference
                        8 Threads,  19073 MiB Core
         ---------------------------------------------------------

  ==> Geometry <==

    Molecular point group: c1
    Full point group: C1

    Geometry (in Angstrom), charge = 0, multiplicity = 1:

       Center              X                  Y                   Z               Mass       
    ------------   -----------------  -----------------  -----------------  -----------------
         C            1.012005815713     1.167661293748    -1.712292881573    12.000000000000
         H            1.687275815713     2.012051293748    -1.711352881573     1.007825032230
         C            1.518875815713    -0.130968706252    -1.664792881573    12.000000000000
         H            2.587175815713    -0.292788706252    -1.626632881573     1.007825032230
         C            0.647575815713    -1.219598706252    -1.661162881573    12.000000000000
         H            1.040915815713    -2.226098706252    -1.623032881573     1.007825032230
         C           -0.729954184287    -1.010258706252    -1.704792881573    12.000000000000
         H           -1.405404184287    -1.854748706252    -1.700942881573     1.007825032230
         C           -1.237094184287     0.287541293748    -1.748492881573    12.000000000000
         H           -2.305694184287     0.450141293748    -1.778342881573     1.007825032230
         C           -0.366514184287     1.376721293748    -1.752182881573    12.000000000000
         H           -0.759504184287     2.383501293748    -1.781692881573     1.007825032230
      Gh(O)           0.097215815713     0.329871293748     4.048007118427    15.994914619570
      Gh(H)           0.183315815713     0.379741293748     3.090807118427     1.007825032230
      Gh(C)          -0.798934184287    -0.727738706252     4.331057118427    12.000000000000
      Gh(H)          -0.894654184287    -0.784478706252     5.411997118427     1.007825032230
      Gh(H)          -1.791084184287    -0.556048706252     3.907267118427     1.007825032230
      Gh(H)          -0.432474184287    -1.690788706252     3.968147118427     1.007825032230

  Running in c1 symmetry.

  Rotational constants: A =      0.08668  B =      0.01907  C =      0.01877 [cm^-1]
  Rotational constants: A =   2598.68509  B =    571.78269  C =    562.70724 [MHz]
  Nuclear repulsion =  203.621452569759612

  Charge       = 0
  Multiplicity = 1
  Electrons    = 42
  Nalpha       = 21
  Nbeta        = 21

  ==> Algorithm <==

  SCF Algorithm Type is DF.
  DIIS enabled.
  MOM disabled.
  Fractional occupation disabled.
  Guess Type is SAD.
  Energy threshold   = 1.00e-08
  Density threshold  = 1.00e-08
  Integral threshold = 0.00e+00

  ==> Primary Basis <==

  Basis Set: AUG-CC-PVDZ
    Blend: AUG-CC-PVDZ
    Number of shells: 122
    Number of basis function: 274
    Number of Cartesian functions: 290
    Spherical Harmonics?: true
    Max angular momentum: 2

   => Loading Basis Set <=

    Name: (AUG-CC-PVDZ AUX)
    Role: JKFIT
    Keyword: DF_BASIS_SCF
    atoms 1, 3, 5, 7, 9, 11, 15         entry C          line   154 file /home/liuchw/anaconda3/envs/psi4env/share/psi4/basis/aug-cc-pvdz-jkfit.gbs 
    atoms 2, 4, 6, 8, 10, 12, 14, 16-18 entry H          line    70 file /home/liuchw/anaconda3/envs/psi4env/share/psi4/basis/aug-cc-pvdz-jkfit.gbs 
    atoms 13                            entry O          line   270 file /home/liuchw/anaconda3/envs/psi4env/share/psi4/basis/aug-cc-pvdz-jkfit.gbs 

  ==> Pre-Iterations <==

   -------------------------------------------------------
    Irrep   Nso     Nmo     Nalpha   Nbeta   Ndocc  Nsocc
   -------------------------------------------------------
     A        274     274       0       0       0       0
   -------------------------------------------------------
    Total     274     274      21      21      21       0
   -------------------------------------------------------

  ==> Integral Setup <==

  ==> DiskDFJK: Density-Fitted J/K Matrices <==

    J tasked:                  Yes
    K tasked:                  Yes
    wK tasked:                  No
    OpenMP threads:              8
    Integrals threads:           8
    Memory [MiB]:            14305
    Algorithm:                Core
    Integral Cache:           LOAD
    Schwarz Cutoff:          1E-12
    Fitting Condition:       1E-10

   => Auxiliary Basis Set <=

  Basis Set: (AUG-CC-PVDZ AUX)
    Blend: AUG-CC-PVDZ-JKFIT
    Number of shells: 344
    Number of basis function: 1008
    Number of Cartesian functions: 1158
    Spherical Harmonics?: true
    Max angular momentum: 3

  Minimum eigenvalue in the overlap matrix is 2.3385035159E-06.
  Using Symmetric Orthogonalization.

  SCF Guess: Superposition of Atomic Densities via on-the-fly atomic UHF.

  ==> Iterations <==

                           Total Energy        Delta E     RMS |[F,P]|

   @DF-RHF iter SAD:  -230.14288965138624   -2.30143e+02   0.00000e+00 
   @DF-RHF iter   1:  -230.55290830624415   -4.10019e-01   1.88554e-03 DIIS
   @DF-RHF iter   2:  -230.69246119097141   -1.39553e-01   9.22252e-04 DIIS
   @DF-RHF iter   3:  -230.72647055409490   -3.40094e-02   1.46963e-04 DIIS
   @DF-RHF iter   4:  -230.72790985151437   -1.43930e-03   1.57007e-05 DIIS
   @DF-RHF iter   5:  -230.72793044231696   -2.05908e-05   2.97780e-06 DIIS
   @DF-RHF iter   6:  -230.72793121194590   -7.69629e-07   4.29281e-07 DIIS
   @DF-RHF iter   7:  -230.72793122256144   -1.06155e-08   2.40100e-07 DIIS
   @DF-RHF iter   8:  -230.72793122524385   -2.68241e-09   2.47238e-08 DIIS
   @DF-RHF iter   9:  -230.72793122531232   -6.84679e-11   4.92213e-09 DIIS
  Energy and wave function converged.


  ==> Post-Iterations <==

    Orbital Energies [Eh]
    ---------------------

    Doubly Occupied:                                                      

       1A    -11.242406     2A    -11.241846     3A    -11.241839  
       4A    -11.240638     5A    -11.240623     6A    -11.240032  
       7A     -1.152840     8A     -1.017256     9A     -1.017229  
      10A     -0.825894    11A     -0.825879    12A     -0.710507  
      13A     -0.645249    14A     -0.619631    15A     -0.588769  
      16A     -0.588749    17A     -0.501575    18A     -0.494927  
      19A     -0.494904    20A     -0.336311    21A     -0.336290  

    Virtual:                                                              

      22A      0.028006    23A      0.039597    24A      0.041568  
      25A      0.041956    26A      0.056851    27A      0.057476  
      28A      0.064814    29A      0.066730    30A      0.068333  
      31A      0.076370    32A      0.106963    33A      0.107734  
      34A      0.118040    35A      0.124540    36A      0.130033  
      37A      0.138541    38A      0.141099    39A      0.145833  
      40A      0.147680    41A      0.149117    42A      0.151577  
      43A      0.153536    44A      0.154153    45A      0.158752  
      46A      0.168524    47A      0.171771    48A      0.179814  
      49A      0.185175    50A      0.190926    51A      0.191215  
      52A      0.192674    53A      0.199368    54A      0.203252  
      55A      0.204249    56A      0.218527    57A      0.233095  
      58A      0.236001    59A      0.266718    60A      0.290497  
      61A      0.299063    62A      0.299877    63A      0.302150  
      64A      0.315291    65A      0.319444    66A      0.325956  
      67A      0.339521    68A      0.347634    69A      0.352153  
      70A      0.355709    71A      0.357999    72A      0.366505  
      73A      0.378056    74A      0.384677    75A      0.386300  
      76A      0.388022    77A      0.398044    78A      0.403142  
      79A      0.411795    80A      0.429088    81A      0.431473  
      82A      0.432855    83A      0.442937    84A      0.443251  
      85A      0.445299    86A      0.461497    87A      0.471165  
      88A      0.482367    89A      0.499915    90A      0.503157  
      91A      0.508839    92A      0.520899    93A      0.526422  
      94A      0.559725    95A      0.562979    96A      0.566781  
      97A      0.573505    98A      0.580385    99A      0.581598  
     100A      0.588352   101A      0.594873   102A      0.597819  
     103A      0.599537   104A      0.603787   105A      0.623977  
     106A      0.638866   107A      0.647280   108A      0.656210  
     109A      0.668310   110A      0.673159   111A      0.677412  
     112A      0.689324   113A      0.689404   114A      0.692504  
     115A      0.695051   116A      0.698617   117A      0.701261  
     118A      0.702671   119A      0.722825   120A      0.733015  
     121A      0.743469   122A      0.759960   123A      0.760436  
     124A      0.764553   125A      0.777309   126A      0.779172  
     127A      0.779383   128A      0.788563   129A      0.803878  
     130A      0.807428   131A      0.856101   132A      0.858064  
     133A      0.859201   134A      0.862619   135A      0.872980  
     136A      0.876675   137A      0.890827   138A      0.891733  
     139A      0.918545   140A      0.928288   141A      0.930480  
     142A      0.932964   143A      0.944700   144A      0.962430  
     145A      0.975519   146A      0.975988   147A      0.984333  
     148A      0.986957   149A      1.008553   150A      1.019920  
     151A      1.067669   152A      1.072505   153A      1.079373  
     154A      1.101647   155A      1.105589   156A      1.113514  
     157A      1.180936   158A      1.181016   159A      1.197853  
     160A      1.198494   161A      1.345850   162A      1.348708  
     163A      1.361989   164A      1.404764   165A      1.417929  
     166A      1.422355   167A      1.465617   168A      1.485302  
     169A      1.503176   170A      1.522173   171A      1.534407  
     172A      1.534455   173A      1.538444   174A      1.538562  
     175A      1.561351   176A      1.577144   177A      1.583024  
     178A      1.616459   179A      1.628735   180A      1.630843  
     181A      1.639933   182A      1.640153   183A      1.674044  
     184A      1.710548   185A      1.710840   186A      1.715218  
     187A      1.715492   188A      1.790381   189A      1.791969  
     190A      1.794250   191A      1.843135   192A      1.863635  
     193A      1.896841   194A      1.896862   195A      1.917530  
     196A      1.933864   197A      1.953927   198A      1.957160  
     199A      1.969810   200A      1.969829   201A      1.970161  
     202A      1.987341   203A      1.992527   204A      2.026912  
     205A      2.108506   206A      2.109116   207A      2.118770  
     208A      2.129943   209A      2.141310   210A      2.194717  
     211A      2.204743   212A      2.205154   213A      2.221376  
     214A      2.221398   215A      2.252819   216A      2.258867  
     217A      2.267039   218A      2.268829   219A      2.270117  
     220A      2.297407   221A      2.323408   222A      2.361079  
     223A      2.363495   224A      2.375729   225A      2.376170  
     226A      2.398826   227A      2.420106   228A      2.456116  
     229A      2.456248   230A      2.510410   231A      2.607327  
     232A      2.622477   233A      2.623366   234A      2.682241  
     235A      2.708686   236A      2.782930   237A      2.795619  
     238A      2.797780   239A      2.800867   240A      2.806576  
     241A      2.807013   242A      2.835894   243A      2.974584  
     244A      2.975610   245A      2.981324   246A      3.061175  
     247A      3.119245   248A      3.146767   249A      3.147568  
     250A      3.158056   251A      3.160814   252A      3.220167  
     253A      3.227626   254A      3.361367   255A      3.388188  
     256A      3.565383   257A      3.566276   258A      3.820269  
     259A      3.888846   260A      4.160246   261A      4.599144  
     262A      4.816013   263A      4.960027   264A      4.991517  
     265A      5.000676   266A      5.103683   267A      5.142587  
     268A      5.365197   269A      5.545508   270A      5.945292  
     271A      6.421112   272A      6.981939   273A     18.500341  
     274A     33.553278  

    Final Occupation by Irrep:
              A 
    DOCC [    21 ]

  @DF-RHF Final Energy:  -230.72793122531232

   => Energetics <=

    Nuclear Repulsion Energy =            203.6214525697596116
    One-Electron Energy =                -713.4919906187760716
    Two-Electron Energy =                 279.1426068237041136
    Total Energy =                       -230.7279312253123180

Computation Completed


Properties will be evaluated at   0.000000,   0.000000,   0.000000 [a0]

Properties computed using the SCF density matrix

  Nuclear Dipole Moment: [e a0]
     X:    11.1761      Y:     6.2335      Z:  -135.4637

  Electronic Dipole Moment: [e a0]
     X:   -11.1761      Y:    -6.2332      Z:   135.4697

  Dipole Moment: [e a0]
     X:     0.0000      Y:     0.0003      Z:     0.0060     Total:     0.0060

  Dipole Moment: [D]
     X:     0.0000      Y:     0.0008      Z:     0.0153     Total:     0.0154


*** tstop() called on node62.bme.utexas.edu at Thu Apr 23 17:17:42 2020
Module time:
	user time   =      22.01 seconds =       0.37 minutes
	system time =       0.93 seconds =       0.02 minutes
	total time  =          4 seconds =       0.07 minutes
Total time:
	user time   =      70.44 seconds =       1.17 minutes
	system time =       2.61 seconds =       0.04 minutes
	total time  =         12 seconds =       0.20 minutes

  //>>>>>>>>>>>>>>>>>>>>>>>>>>>>>>>>>>>//
  //            Monomer B HF           //
  //<<<<<<<<<<<<<<<<<<<<<<<<<<<<<<<<<<<//


*** tstart() called on node62.bme.utexas.edu
*** at Thu Apr 23 17:17:42 2020

   => Loading Basis Set <=

    Name: AUG-CC-PVDZ
    Role: ORBITAL
    Keyword: BASIS
    atoms 1, 3, 5, 7, 9, 11, 15         entry C          line   182 file /home/liuchw/anaconda3/envs/psi4env/share/psi4/basis/aug-cc-pvdz.gbs 
    atoms 2, 4, 6, 8, 10, 12, 14, 16-18 entry H          line    40 file /home/liuchw/anaconda3/envs/psi4env/share/psi4/basis/aug-cc-pvdz.gbs 
    atoms 13                            entry O          line   254 file /home/liuchw/anaconda3/envs/psi4env/share/psi4/basis/aug-cc-pvdz.gbs 


         ---------------------------------------------------------
                                   SCF
               by Justin Turney, Rob Parrish, Andy Simmonett
                          and Daniel G. A. Smith
                              RHF Reference
                        8 Threads,  19073 MiB Core
         ---------------------------------------------------------

  ==> Geometry <==

    Molecular point group: c1
    Full point group: C1

    Geometry (in Angstrom), charge = 0, multiplicity = 1:

       Center              X                  Y                   Z               Mass       
    ------------   -----------------  -----------------  -----------------  -----------------
      Gh(C)           1.012005815713     1.167661293748    -1.712292881573    12.000000000000
      Gh(H)           1.687275815713     2.012051293748    -1.711352881573     1.007825032230
      Gh(C)           1.518875815713    -0.130968706252    -1.664792881573    12.000000000000
      Gh(H)           2.587175815713    -0.292788706252    -1.626632881573     1.007825032230
      Gh(C)           0.647575815713    -1.219598706252    -1.661162881573    12.000000000000
      Gh(H)           1.040915815713    -2.226098706252    -1.623032881573     1.007825032230
      Gh(C)          -0.729954184287    -1.010258706252    -1.704792881573    12.000000000000
      Gh(H)          -1.405404184287    -1.854748706252    -1.700942881573     1.007825032230
      Gh(C)          -1.237094184287     0.287541293748    -1.748492881573    12.000000000000
      Gh(H)          -2.305694184287     0.450141293748    -1.778342881573     1.007825032230
      Gh(C)          -0.366514184287     1.376721293748    -1.752182881573    12.000000000000
      Gh(H)          -0.759504184287     2.383501293748    -1.781692881573     1.007825032230
         O            0.097215815713     0.329871293748     4.048007118427    15.994914619570
         H            0.183315815713     0.379741293748     3.090807118427     1.007825032230
         C           -0.798934184287    -0.727738706252     4.331057118427    12.000000000000
         H           -0.894654184287    -0.784478706252     5.411997118427     1.007825032230
         H           -1.791084184287    -0.556048706252     3.907267118427     1.007825032230
         H           -0.432474184287    -1.690788706252     3.968147118427     1.007825032230

  Running in c1 symmetry.

  Rotational constants: A =      0.08668  B =      0.01907  C =      0.01877 [cm^-1]
  Rotational constants: A =   2598.68509  B =    571.78269  C =    562.70724 [MHz]
  Nuclear repulsion =   40.415218219536015

  Charge       = 0
  Multiplicity = 1
  Electrons    = 18
  Nalpha       = 9
  Nbeta        = 9

  ==> Algorithm <==

  SCF Algorithm Type is DF.
  DIIS enabled.
  MOM disabled.
  Fractional occupation disabled.
  Guess Type is SAD.
  Energy threshold   = 1.00e-08
  Density threshold  = 1.00e-08
  Integral threshold = 0.00e+00

  ==> Primary Basis <==

  Basis Set: AUG-CC-PVDZ
    Blend: AUG-CC-PVDZ
    Number of shells: 122
    Number of basis function: 274
    Number of Cartesian functions: 290
    Spherical Harmonics?: true
    Max angular momentum: 2

   => Loading Basis Set <=

    Name: (AUG-CC-PVDZ AUX)
    Role: JKFIT
    Keyword: DF_BASIS_SCF
    atoms 1, 3, 5, 7, 9, 11, 15         entry C          line   154 file /home/liuchw/anaconda3/envs/psi4env/share/psi4/basis/aug-cc-pvdz-jkfit.gbs 
    atoms 2, 4, 6, 8, 10, 12, 14, 16-18 entry H          line    70 file /home/liuchw/anaconda3/envs/psi4env/share/psi4/basis/aug-cc-pvdz-jkfit.gbs 
    atoms 13                            entry O          line   270 file /home/liuchw/anaconda3/envs/psi4env/share/psi4/basis/aug-cc-pvdz-jkfit.gbs 

  ==> Pre-Iterations <==

   -------------------------------------------------------
    Irrep   Nso     Nmo     Nalpha   Nbeta   Ndocc  Nsocc
   -------------------------------------------------------
     A        274     274       0       0       0       0
   -------------------------------------------------------
    Total     274     274       9       9       9       0
   -------------------------------------------------------

  ==> Integral Setup <==

  ==> DiskDFJK: Density-Fitted J/K Matrices <==

    J tasked:                  Yes
    K tasked:                  Yes
    wK tasked:                  No
    OpenMP threads:              8
    Integrals threads:           8
    Memory [MiB]:            14305
    Algorithm:                Core
    Integral Cache:           LOAD
    Schwarz Cutoff:          1E-12
    Fitting Condition:       1E-10

   => Auxiliary Basis Set <=

  Basis Set: (AUG-CC-PVDZ AUX)
    Blend: AUG-CC-PVDZ-JKFIT
    Number of shells: 344
    Number of basis function: 1008
    Number of Cartesian functions: 1158
    Spherical Harmonics?: true
    Max angular momentum: 3

  Minimum eigenvalue in the overlap matrix is 2.3385035159E-06.
  Using Symmetric Orthogonalization.

  SCF Guess: Superposition of Atomic Densities via on-the-fly atomic UHF.

  ==> Iterations <==

                           Total Energy        Delta E     RMS |[F,P]|

   @DF-RHF iter SAD:  -114.37471875104468   -1.14375e+02   0.00000e+00 
   @DF-RHF iter   1:  -114.97584927229808   -6.01131e-01   1.49709e-03 DIIS
   @DF-RHF iter   2:  -115.03990219034509   -6.40529e-02   8.53478e-04 DIIS
   @DF-RHF iter   3:  -115.06034577661126   -2.04436e-02   1.31809e-04 DIIS
   @DF-RHF iter   4:  -115.06130092266631   -9.55146e-04   3.98436e-05 DIIS
   @DF-RHF iter   5:  -115.06138583399489   -8.49113e-05   8.63870e-06 DIIS
   @DF-RHF iter   6:  -115.06139119423504   -5.36024e-06   1.98593e-06 DIIS
   @DF-RHF iter   7:  -115.06139162427944   -4.30044e-07   4.42580e-07 DIIS
   @DF-RHF iter   8:  -115.06139164730375   -2.30243e-08   8.92826e-08 DIIS
   @DF-RHF iter   9:  -115.06139164815761   -8.53859e-10   1.72089e-08 DIIS
   @DF-RHF iter  10:  -115.06139164818848   -3.08660e-11   3.75194e-09 DIIS
  Energy and wave function converged.


  ==> Post-Iterations <==

    Orbital Energies [Eh]
    ---------------------

    Doubly Occupied:                                                      

       1A    -20.569651     2A    -11.278337     3A     -1.363752  
       4A     -0.927010     5A     -0.693603     6A     -0.620304  
       7A     -0.595070     8A     -0.504907     9A     -0.450137  

    Virtual:                                                              

      10A      0.016450    11A      0.034007    12A      0.034624  
      13A      0.043065    14A      0.055118    15A      0.055884  
      16A      0.058402    17A      0.065887    18A      0.068203  
      19A      0.076458    20A      0.084843    21A      0.102169  
      22A      0.110008    23A      0.111843    24A      0.116485  
      25A      0.124161    26A      0.134945    27A      0.144823  
      28A      0.145198    29A      0.145852    30A      0.147215  
      31A      0.151567    32A      0.158733    33A      0.164624  
      34A      0.170259    35A      0.171844    36A      0.179486  
      37A      0.182255    38A      0.187681    39A      0.188414  
      40A      0.191919    41A      0.195044    42A      0.226099  
      43A      0.235784    44A      0.235832    45A      0.248756  
      46A      0.262227    47A      0.268615    48A      0.269267  
      49A      0.278419    50A      0.285152    51A      0.289007  
      52A      0.295139    53A      0.335789    54A      0.337409  
      55A      0.341446    56A      0.354590    57A      0.357478  
      58A      0.359566    59A      0.364843    60A      0.374757  
      61A      0.398221    62A      0.402087    63A      0.407633  
      64A      0.412739    65A      0.420941    66A      0.421700  
      67A      0.434338    68A      0.440015    69A      0.443598  
      70A      0.446259    71A      0.461353    72A      0.465288  
      73A      0.470780    74A      0.470909    75A      0.478468  
      76A      0.481773    77A      0.486904    78A      0.493628  
      79A      0.494764    80A      0.520725    81A      0.524829  
      82A      0.526988    83A      0.530331    84A      0.540095  
      85A      0.549964    86A      0.553638    87A      0.555180  
      88A      0.556503    89A      0.567681    90A      0.590903  
      91A      0.627678    92A      0.628228    93A      0.630510  
      94A      0.633164    95A      0.636326    96A      0.636533  
      97A      0.641949    98A      0.658000    99A      0.663294  
     100A      0.665927   101A      0.673046   102A      0.681655  
     103A      0.695586   104A      0.706529   105A      0.729613  
     106A      0.740877   107A      0.755610   108A      0.760599  
     109A      0.776822   110A      0.782311   111A      0.783659  
     112A      0.794267   113A      0.812793   114A      0.826467  
     115A      0.827462   116A      0.836783   117A      0.839986  
     118A      0.873359   119A      0.875197   120A      0.884750  
     121A      0.886170   122A      0.891116   123A      0.892511  
     124A      0.904129   125A      0.904652   126A      0.918575  
     127A      0.944894   128A      0.969501   129A      0.980157  
     130A      1.003911   131A      1.009071   132A      1.009853  
     133A      1.012978   134A      1.019650   135A      1.042043  
     136A      1.048266   137A      1.048467   138A      1.062053  
     139A      1.114119   140A      1.119306   141A      1.121772  
     142A      1.121873   143A      1.134494   144A      1.186907  
     145A      1.196558   146A      1.230586   147A      1.240391  
     148A      1.249031   149A      1.258760   150A      1.267092  
     151A      1.383966   152A      1.393303   153A      1.400456  
     154A      1.400780   155A      1.436382   156A      1.477182  
     157A      1.478789   158A      1.480482   159A      1.480523  
     160A      1.544841   161A      1.622688   162A      1.664108  
     163A      1.720889   164A      1.781406   165A      1.783703  
     166A      1.800458   167A      1.811075   168A      1.889004  
     169A      1.904457   170A      2.036070   171A      2.056753  
     172A      2.100059   173A      2.109328   174A      2.115827  
     175A      2.124238   176A      2.128348   177A      2.128696  
     178A      2.130549   179A      2.131201   180A      2.181316  
     181A      2.190494   182A      2.194827   183A      2.207445  
     184A      2.210662   185A      2.237218   186A      2.237343  
     187A      2.251798   188A      2.267515   189A      2.274799  
     190A      2.278409   191A      2.283535   192A      2.294994  
     193A      2.297893   194A      2.307680   195A      2.307692  
     196A      2.321411   197A      2.352613   198A      2.386036  
     199A      2.417700   200A      2.486307   201A      2.487311  
     202A      2.496822   203A      2.496894   204A      2.509933  
     205A      2.562877   206A      2.603167   207A      2.621932  
     208A      2.628158   209A      2.630279   210A      2.630373  
     211A      2.649775   212A      2.650091   213A      2.666819  
     214A      2.666874   215A      2.697899   216A      2.711039  
     217A      2.738382   218A      2.750788   219A      2.789892  
     220A      2.859047   221A      2.859247   222A      2.863667  
     223A      2.863848   224A      2.866162   225A      2.868536  
     226A      2.905955   227A      2.913191   228A      2.944576  
     229A      2.944995   230A      3.011383   231A      3.071032  
     232A      3.164948   233A      3.191852   234A      3.255559  
     235A      3.333064   236A      3.390317   237A      3.392108  
     238A      3.392411   239A      3.392615   240A      3.394521  
     241A      3.398605   242A      3.462492   243A      3.462970  
     244A      3.464162   245A      3.532836   246A      3.689051  
     247A      3.740217   248A      3.762117   249A      3.802799  
     250A      3.895644   251A      3.932738   252A      3.939765  
     253A      3.973524   254A      3.974655   255A      4.099227  
     256A      4.282986   257A      4.378052   258A      4.378154  
     259A      4.662756   260A      4.842072   261A      4.842802  
     262A      5.292968   263A      5.449260   264A      5.449581  
     265A      5.469573   266A      5.469626   267A      5.643468  
     268A      6.065766   269A     17.982934   270A     18.380581  
     271A     18.382607   272A     18.999234   273A     18.999794  
     274A     20.660220  

    Final Occupation by Irrep:
              A 
    DOCC [     9 ]

  @DF-RHF Final Energy:  -115.06139164818848

   => Energetics <=

    Nuclear Repulsion Energy =             40.4152182195360155
    One-Electron Energy =                -236.9476767895904459
    Two-Electron Energy =                  81.4710669218659405
    Total Energy =                       -115.0613916481884758

Computation Completed


Properties will be evaluated at   0.000000,   0.000000,   0.000000 [a0]

Properties computed using the SCF density matrix

  Nuclear Dipole Moment: [e a0]
     X:   -13.1351      Y:    -8.2752      Z:   141.2544

  Electronic Dipole Moment: [e a0]
     X:    12.8061      Y:     7.8547      Z:  -141.7290

  Dipole Moment: [e a0]
     X:    -0.3289      Y:    -0.4205      Z:    -0.4746     Total:     0.7143

  Dipole Moment: [D]
     X:    -0.8360      Y:    -1.0687      Z:    -1.2064     Total:     1.8156


*** tstop() called on node62.bme.utexas.edu at Thu Apr 23 17:17:46 2020
Module time:
	user time   =      22.32 seconds =       0.37 minutes
	system time =       0.93 seconds =       0.02 minutes
	total time  =          4 seconds =       0.07 minutes
Total time:
	user time   =      92.82 seconds =       1.55 minutes
	system time =       3.54 seconds =       0.06 minutes
	total time  =         16 seconds =       0.27 minutes
  Constructing Basis Sets for SAPT...

   => Loading Basis Set <=

    Name: (AUG-CC-PVDZ AUX)
    Role: RIFIT
    Keyword: DF_BASIS_SAPT
    atoms 1, 3, 5, 7, 9, 11, 15         entry C          line   112 file /home/liuchw/anaconda3/envs/psi4env/share/psi4/basis/aug-cc-pvdz-ri.gbs 
    atoms 2, 4, 6, 8, 10, 12, 14, 16-18 entry H          line    30 file /home/liuchw/anaconda3/envs/psi4env/share/psi4/basis/aug-cc-pvdz-ri.gbs 
    atoms 13                            entry O          line   204 file /home/liuchw/anaconda3/envs/psi4env/share/psi4/basis/aug-cc-pvdz-ri.gbs 


  //>>>>>>>>>>>>>>>>>>>>>>>>>>>>>>>>>>>//
  //               SAPT2+              //
  //<<<<<<<<<<<<<<<<<<<<<<<<<<<<<<<<<<<//


*** tstart() called on node62.bme.utexas.edu
*** at Thu Apr 23 17:17:46 2020

        SAPT2+  
    Ed Hohenstein
     6 June 2009

      Orbital Information
  --------------------------
    NSO        =       274
    NMO        =       274
    NRI        =       806
    NOCC A     =        21
    NOCC B     =         9
    FOCC A     =         6
    FOCC B     =         2
    NVIR A     =       253
    NVIR B     =       265

    Estimated memory usage: 1196.1 MB

    Natural Orbital Cutoff:   1.000E-06
    Disp(T3) Truncation:            Yes
    CCD (vv|vv) Truncation:         Yes
    MBPT T2 Truncation:             Yes

    Monomer A: 94 virtual orbitals dropped
    Monomer B: 197 virtual orbitals dropped

    Elst10,r            =    -0.000761662537 [Eh]
    Exch10 (S^2)        =     0.000002153804 [Eh]
    Exch10              =     0.000002153802 [Eh]
    Ind20,r (A<-B)      =    -0.000025839086 [Eh]
    Ind20,r (B<-A)      =    -0.000009414769 [Eh]
    Ind20,r             =    -0.000035253854 [Eh]
    Exch-Ind20,r (A<-B) =     0.000000460970 [Eh]
    Exch-Ind20,r (B<-A) =     0.000000039881 [Eh]
    Exch-Ind20,r        =     0.000000500851 [Eh]
    Disp20              =    -0.000315249810 [Eh]
    Disp20 (NO)         =    -0.000310149896 [Eh]
    Exch-Disp20         =     0.000000530291 [Eh]
    Elst12,r            =     0.000138622523 [Eh]
    Exch11              =     0.000000006137 [Eh]
    Exch12              =     0.000000581708 [Eh]
    Ind22               =     0.000003710649 [Eh]
    Disp21              =     0.000073546169 [Eh]
    Disp22 (SDQ)        =     0.000003202118 [Eh]

    (i =   1 of   7)          8 seconds
    (i =   2 of   7)         16 seconds
    (i =   3 of   7)         24 seconds
    (i =   4 of   7)         33 seconds
    (i =   5 of   7)         41 seconds
    (i =   6 of   7)         49 seconds
    (i =   7 of   7)         58 seconds

    Disp220 (T)         =    -0.000030454303 [Eh]

    (i =   1 of  15)          0 seconds
    (i =   2 of  15)          1 seconds
    (i =   3 of  15)          2 seconds
    (i =   4 of  15)          3 seconds
    (i =   5 of  15)          4 seconds
    (i =   6 of  15)          5 seconds
    (i =   7 of  15)          6 seconds
    (i =   8 of  15)          7 seconds
    (i =   9 of  15)          8 seconds
    (i =  10 of  15)          9 seconds
    (i =  11 of  15)         10 seconds
    (i =  12 of  15)         10 seconds
    (i =  13 of  15)         11 seconds
    (i =  14 of  15)         12 seconds
    (i =  15 of  15)         13 seconds

    Disp202 (T)         =    -0.000027956328 [Eh]

    Disp22 (T)          =    -0.000058410630 [Eh]

    Est. Disp220 (T)    =    -0.000030955074 [Eh]
    Est. Disp202 (T)    =    -0.000028416024 [Eh]

    Est. Disp22 (T)     =    -0.000059371098 [Eh]

    SAPT Results 
  --------------------------------------------------------------------------------------------------------
    Electrostatics                 -0.62304001 [mEh]      -0.39096351 [kcal/mol]      -1.63579133 [kJ/mol]
      Elst10,r                     -0.76166254 [mEh]      -0.47795046 [kcal/mol]      -1.99974472 [kJ/mol]
      Elst12,r                      0.13862252 [mEh]       0.08698695 [kcal/mol]       0.36395338 [kJ/mol]

    Exchange                        0.00274165 [mEh]       0.00172041 [kcal/mol]       0.00719819 [kJ/mol]
      Exch10                        0.00215380 [mEh]       0.00135153 [kcal/mol]       0.00565481 [kJ/mol]
      Exch10(S^2)                   0.00215380 [mEh]       0.00135153 [kcal/mol]       0.00565481 [kJ/mol]
      Exch11(S^2)                   0.00000614 [mEh]       0.00000385 [kcal/mol]       0.00001611 [kJ/mol]
      Exch12(S^2)                   0.00058171 [mEh]       0.00036503 [kcal/mol]       0.00152727 [kJ/mol]

    Induction                      -0.03242924 [mEh]      -0.02034966 [kcal/mol]      -0.08514297 [kJ/mol]
      Ind20,r                      -0.03525385 [mEh]      -0.02212213 [kcal/mol]      -0.09255898 [kJ/mol]
      Ind22                         0.00371065 [mEh]       0.00232847 [kcal/mol]       0.00974231 [kJ/mol]
      Exch-Ind20,r                  0.00050085 [mEh]       0.00031429 [kcal/mol]       0.00131498 [kJ/mol]
      Exch-Ind22                   -0.00005272 [mEh]      -0.00003308 [kcal/mol]      -0.00013841 [kJ/mol]
      delta HF,r (2)               -0.00133417 [mEh]      -0.00083721 [kcal/mol]      -0.00350287 [kJ/mol]

    Dispersion                     -0.29734233 [mEh]      -0.18658513 [kcal/mol]      -0.78067218 [kJ/mol]
      Disp20                       -0.31524981 [mEh]      -0.19782224 [kcal/mol]      -0.82768826 [kJ/mol]
      Disp21                        0.07354617 [mEh]       0.04615092 [kcal/mol]       0.19309544 [kJ/mol]
      Disp22 (SDQ)                  0.00320212 [mEh]       0.00200936 [kcal/mol]       0.00840716 [kJ/mol]
      Disp22 (T)                   -0.05841063 [mEh]      -0.03665322 [kcal/mol]      -0.15335709 [kJ/mol]
      Est. Disp22 (T)              -0.05937110 [mEh]      -0.03725593 [kcal/mol]      -0.15587880 [kJ/mol]
      Exch-Disp20                   0.00053029 [mEh]       0.00033276 [kcal/mol]       0.00139228 [kJ/mol]

  Total HF                         -0.79559591 [mEh]      -0.49924397 [kcal/mol]      -2.08883678 [kJ/mol]
  Total SAPT0                      -1.11031543 [mEh]      -0.69673345 [kcal/mol]      -2.91513276 [kJ/mol]
  Total SAPT2                      -0.96744713 [mEh]      -0.60708224 [kcal/mol]      -2.54003209 [kJ/mol]
  Total SAPT2+                     -0.95006994 [mEh]      -0.59617789 [kcal/mol]      -2.49440829 [kJ/mol]

  Special recipe for scaled SAPT0 (see Manual):
    Electrostatics sSAPT0          -0.76166254 [mEh]      -0.47795046 [kcal/mol]      -1.99974472 [kJ/mol]
    Exchange sSAPT0                 0.00215380 [mEh]       0.00135153 [kcal/mol]       0.00565481 [kJ/mol]
    Induction sSAPT0               -0.03608718 [mEh]      -0.02264504 [kcal/mol]      -0.09474687 [kJ/mol]
    Dispersion sSAPT0              -0.31471952 [mEh]      -0.19748948 [kcal/mol]      -0.82629598 [kJ/mol]
  Total sSAPT0                     -1.11031543 [mEh]      -0.69673345 [kcal/mol]      -2.91513276 [kJ/mol]
  --------------------------------------------------------------------------------------------------------

*** tstop() called on node62.bme.utexas.edu at Thu Apr 23 17:20:03 2020
Module time:
	user time   =    1012.62 seconds =      16.88 minutes
	system time =      42.31 seconds =       0.71 minutes
	total time  =        137 seconds =       2.28 minutes
Total time:
	user time   =    1106.56 seconds =      18.44 minutes
	system time =      45.90 seconds =       0.77 minutes
	total time  =        153 seconds =       2.55 minutes

    Psi4 stopped on: Thursday, 23 April 2020 05:20PM
    Psi4 wall time for execution: 0:02:32.80

*** Psi4 exiting successfully. Buy a developer a beer!
