    -----------------------------------------------------------------------
          PSI4: An Open-Source Ab Initio Electronic Structure Package
                              PSI 4.0.0-beta4 Driver

    J. M. Turney, A. C. Simmonett, R. M. Parrish, E. G. Hohenstein,
    F. A. Evangelista, J. T. Fermann, B. J. Mintz, L. A. Burns, J. J. Wilke,
    M. L. Abrams, N. J. Russ, M. L. Leininger, C. L. Janssen, E. T. Seidl,
    W. D. Allen, H. F. Schaefer, R. A. King, E. F. Valeev, C. D. Sherrill,
    and T. D. Crawford, WIREs Comput. Mol. Sci., (2011) (doi: 10.1002/wcms.93)

                         Additional Contributions by
    A. E. DePrince, M. Saitow, U. Bozkaya, A. Yu. Sokolov
    -----------------------------------------------------------------------

    Process ID:  21037
    PSI4DATADIR: /home/xzhu216/psi4/psi4-install/share/psi

    Using LocalCommunicator (Number of processes = 1)

    Memory level set to 256.000 MB

  ==> Input File <==

--------------------------------------------------------------------------
#psi4
#
memory 30 gb

molecule Benzene_MeNH2 {
0 1
    C     0.692315234     1.088292040     0.324841241
    H     1.281948804     1.991946780     0.252515784
    C     1.318187219    -0.156870079     0.286896073
    H     2.393143372    -0.219476358     0.188406812
    C     0.558018413    -1.321950449     0.381399863
    H     1.043919224    -2.287573802     0.357615421
    C    -0.827552361    -1.241421869     0.511685015
    H    -1.416700950    -2.145251521     0.585339272
    C    -1.453411383     0.003671449     0.548381072
    H    -2.528232546     0.065702716     0.649842537
    C    -0.693460943     1.168401084     0.456229070
    H    -1.178735338     2.134409890     0.485726845
--
0 1
    N     0.330008921    -0.171870669     3.299286181
    H     0.464627278    -0.127830167     2.296214824
    H     0.471501492     0.773276067     3.631758458
    C    -1.046090554    -0.578254078     3.576721973
    H    -1.203967120    -0.606801085     4.653277509
    H    -1.817392741     0.062126711     3.136602975
    H    -1.200782535    -1.587821880     3.201100273
units angstrom
no_reorient  #important for SAPT in psi4, default
symmetry c1  #important for SAPT in psi4, default
}

set {
basis aug-cc-pVDZ
scf_type DF
freeze_core True
}
energy('sapt2+')
--------------------------------------------------------------------------

  Memory set to  30.000 GiB by Python script.

  //>>>>>>>>>>>>>>>>>>>>>>>>>>>>>>>>>>>//
  //              Dimer HF             //
  //<<<<<<<<<<<<<<<<<<<<<<<<<<<<<<<<<<<//


  No DF_BASIS_SCF auxiliary basis selected, defaulting to aug-cc-pvdz-jkfit


*** tstart() called on node114.bme.utexas.edu
*** at Thu Mar 27 14:06:40 2014


         ---------------------------------------------------------
                                   SCF
            by Justin Turney, Rob Parrish, and Andy Simmonett
                              RHF Reference
                        4 Threads,  30000 MiB Core
         ---------------------------------------------------------

  ==> Geometry <==

    Molecular point group: c1
    Full point group: C1

    Geometry (in Angstrom), charge = 0, multiplicity = 1:

       Center              X                  Y                   Z       
    ------------   -----------------  -----------------  -----------------
           C          0.843772495641     1.242540477143    -0.947737268192
           H          1.433406065641     2.146195217143    -1.020062725192
           C          1.469644480641    -0.002621641857    -0.985682436192
           H          2.544600633641    -0.065227920857    -1.084171697192
           C          0.709475674641    -1.167702011857    -0.891178646192
           H          1.195376485641    -2.133325364857    -0.914963088192
           C         -0.676095099359    -1.087173431857    -0.760893494192
           H         -1.265243688359    -1.991003083857    -0.687239237192
           C         -1.301954121359     0.157919886143    -0.724197437192
           H         -2.376775284359     0.219951153143    -0.622735972192
           C         -0.542003681359     1.322649521143    -0.816349439192
           H         -1.027278076359     2.288658327143    -0.786851664192
           N          0.481466182641    -0.017622231857     2.026707671808
           H          0.616084539641     0.026418270143     1.023636314808
           H          0.622958753641     0.927524504143     2.359179948808
           C         -0.894633292359    -0.424005640857     2.304143463808
           H         -1.052509858359    -0.452552647857     3.380698999808
           H         -1.665935479359     0.216375148143     1.864024465808
           H         -1.049325273359    -1.433573442857     1.928521763808

  Running in c1 symmetry.

  Nuclear repulsion =  362.323532636267657

  Charge       = 0
  Multiplicity = 1
  Electrons    = 60
  Nalpha       = 30
  Nbeta        = 30

  ==> Algorithm <==

  SCF Algorithm Type is DF.
  DIIS enabled.
  MOM disabled.
  Fractional occupation disabled.
  Guess Type is CORE.
  Energy threshold   = 1.00e-08
  Density threshold  = 1.00e-08
  Integral threshold = 0.00e+00

  ==> Primary Basis <==

  Basis Set: AUG-CC-PVDZ
    Number of shells: 127
    Number of basis function: 283
    Number of Cartesian functions: 299
    Spherical Harmonics?: true
    Max angular momentum: 2

  ==> Pre-Iterations <==

   -------------------------------------------------------
    Irrep   Nso     Nmo     Nalpha   Nbeta   Ndocc  Nsocc
   -------------------------------------------------------
     A        283     283       0       0       0       0
   -------------------------------------------------------
    Total     283     283      30      30      30       0
   -------------------------------------------------------

 OEINTS: Wrapper to libmints.
   by Justin Turney

   Calculation information:
      Number of atoms:                  19
      Number of AO shells:             127
      Number of SO shells:             127
      Number of primitives:            277
      Number of atomic orbitals:       299
      Number of basis functions:       283

      Number of irreps:                  1
      Number of functions per irrep: [ 283 ]

      Overlap, kinetic, potential, dipole, and quadrupole integrals
        stored in file 35.

  ==> Integral Setup <==

  ==> DFJK: Density-Fitted J/K Matrices <==

    J tasked:                  Yes
    K tasked:                  Yes
    wK tasked:                  No
    OpenMP threads:              4
    Integrals threads:           4
    Memory (MB):             21457
    Algorithm:                Core
    Integral Cache:           SAVE
    Schwarz Cutoff:          0E+00
    Fitting Condition:       1E-12

   => Auxiliary Basis Set <=

  Basis Set: aug-cc-pvdz-jkfit
    Number of shells: 356
    Number of basis function: 1040
    Number of Cartesian functions: 1193
    Spherical Harmonics?: true
    Max angular momentum: 3

  Minimum eigenvalue in the overlap matrix is 2.3272267343E-06.
  Using Symmetric Orthogonalization.
  SCF Guess: Core (One-Electron) Hamiltonian.

  Guess energy:  -261.67541217335162

  ==> Iterations <==

                        Total Energy        Delta E     RMS |[F,P]|

   @RHF iter   1:  -247.70730537074070   -2.47707e+02   2.80653e-02 
   @RHF iter   2:  -132.55678865358931    1.15151e+02   4.16771e-02 DIIS
   @RHF iter   3:  -265.96038547356426   -1.33404e+02   2.43700e-02 DIIS
   @RHF iter   4:  -272.70224625274597   -6.74186e+00   2.65199e-02 DIIS
   @RHF iter   5:  -325.31441802719581   -5.26122e+01   3.36610e-03 DIIS
   @RHF iter   6:  -325.86503746566137   -5.50619e-01   1.17911e-03 DIIS
   @RHF iter   7:  -325.92787874838899   -6.28413e-02   5.01242e-04 DIIS
   @RHF iter   8:  -325.94057474807602   -1.26960e-02   1.19368e-04 DIIS
   @RHF iter   9:  -325.94161353663520   -1.03879e-03   3.84662e-05 DIIS
   @RHF iter  10:  -325.94175806574270   -1.44529e-04   1.47793e-05 DIIS
   @RHF iter  11:  -325.94177896663979   -2.09009e-05   4.75152e-06 DIIS
   @RHF iter  12:  -325.94178178343140   -2.81679e-06   1.28714e-06 DIIS
   @RHF iter  13:  -325.94178198585172   -2.02420e-07   5.07013e-07 DIIS
   @RHF iter  14:  -325.94178202094537   -3.50936e-08   2.61962e-07 DIIS
   @RHF iter  15:  -325.94178203225403   -1.13087e-08   1.35696e-07 DIIS
   @RHF iter  16:  -325.94178203645157   -4.19755e-09   4.92559e-08 DIIS
   @RHF iter  17:  -325.94178203699545   -5.43878e-10   1.61144e-08 DIIS
   @RHF iter  18:  -325.94178203702955   -3.41061e-11   4.73121e-09 DIIS

  ==> Post-Iterations <==

	Orbital Energies (a.u.)
	-----------------------

	Doubly Occupied:                                                      

	   1A    -15.523562     2A    -11.249215     3A    -11.248526  
	   4A    -11.248086     5A    -11.247388     6A    -11.246737  
	   7A    -11.246110     8A    -11.231725     9A     -1.169321  
	  10A     -1.148313    11A     -1.025827    12A     -1.025131  
	  13A     -0.881906    14A     -0.832889    15A     -0.832595  
	  16A     -0.718411    17A     -0.652183    18A     -0.650873  
	  19A     -0.626334    20A     -0.597657    21A     -0.595745  
	  22A     -0.590815    23A     -0.540205    24A     -0.509245  
	  25A     -0.501200    26A     -0.501103    27A     -0.489584  
	  28A     -0.375151    29A     -0.343974    30A     -0.342338  

	Virtual:                                                              

	  31A      0.032907    32A      0.040248    33A      0.041962  
	  34A      0.051545    35A      0.056141    36A      0.056256  
	  37A      0.069035    38A      0.075215    39A      0.076228  
	  40A      0.079196    41A      0.100003    42A      0.101737  
	  43A      0.116085    44A      0.121824    45A      0.135138  
	  46A      0.139202    47A      0.140552    48A      0.148010  
	  49A      0.150537    50A      0.153074    51A      0.154324  
	  52A      0.155969    53A      0.160670    54A      0.179448  
	  55A      0.181184    56A      0.182938    57A      0.186525  
	  58A      0.187155    59A      0.189483    60A      0.192887  
	  61A      0.199342    62A      0.211401    63A      0.213567  
	  64A      0.220096    65A      0.232231    66A      0.252115  
	  67A      0.258551    68A      0.265140    69A      0.282090  
	  70A      0.292943    71A      0.305134    72A      0.316244  
	  73A      0.319403    74A      0.323420    75A      0.330968  
	  76A      0.341512    77A      0.352588    78A      0.358156  
	  79A      0.364039    80A      0.373929    81A      0.377514  
	  82A      0.378545    83A      0.381539    84A      0.383257  
	  85A      0.404648    86A      0.412296    87A      0.413797  
	  88A      0.430272    89A      0.435292    90A      0.438827  
	  91A      0.439912    92A      0.447751    93A      0.452904  
	  94A      0.462722    95A      0.465607    96A      0.473240  
	  97A      0.494278    98A      0.497793    99A      0.501452  
	 100A      0.517371   101A      0.524954   102A      0.530450  
	 103A      0.536638   104A      0.544098   105A      0.563367  
	 106A      0.566932   107A      0.576165   108A      0.582175  
	 109A      0.590159   110A      0.591368   111A      0.598452  
	 112A      0.605722   113A      0.613033   114A      0.623428  
	 115A      0.628216   116A      0.629566   117A      0.640108  
	 118A      0.651841   119A      0.655298   120A      0.674613  
	 121A      0.679272   122A      0.691371   123A      0.695051  
	 124A      0.700683   125A      0.706313   126A      0.714321  
	 127A      0.722117   128A      0.731633   129A      0.743039  
	 130A      0.744987   131A      0.757614   132A      0.758766  
	 133A      0.773239   134A      0.775692   135A      0.785571  
	 136A      0.787699   137A      0.803507   138A      0.822254  
	 139A      0.824983   140A      0.838541   141A      0.843158  
	 142A      0.851322   143A      0.853224   144A      0.854629  
	 145A      0.861922   146A      0.877158   147A      0.897469  
	 148A      0.903315   149A      0.928818   150A      0.941266  
	 151A      0.950774   152A      0.955739   153A      0.959287  
	 154A      0.976273   155A      0.979513   156A      0.991052  
	 157A      0.992962   158A      1.002725   159A      1.016571  
	 160A      1.035950   161A      1.065936   162A      1.083719  
	 163A      1.095209   164A      1.114552   165A      1.121235  
	 166A      1.128672   167A      1.153079   168A      1.171745  
	 169A      1.191920   170A      1.195441   171A      1.210152  
	 172A      1.248196   173A      1.303246   174A      1.315266  
	 175A      1.351720   176A      1.371905   177A      1.376995  
	 178A      1.380905   179A      1.415672   180A      1.437429  
	 181A      1.456451   182A      1.487945   183A      1.504251  
	 184A      1.516987   185A      1.523906   186A      1.540966  
	 187A      1.562540   188A      1.580036   189A      1.616391  
	 190A      1.619555   191A      1.638289   192A      1.647326  
	 193A      1.660110   194A      1.663999   195A      1.685945  
	 196A      1.692930   197A      1.728645   198A      1.732034  
	 199A      1.757767   200A      1.762426   201A      1.765584  
	 202A      1.787210   203A      1.799396   204A      1.806331  
	 205A      1.825689   206A      1.859852   207A      1.872595  
	 208A      1.886446   209A      1.904729   210A      1.925120  
	 211A      1.927546   212A      1.952053   213A      1.956882  
	 214A      1.968127   215A      1.985546   216A      1.997361  
	 217A      2.014946   218A      2.025916   219A      2.056524  
	 220A      2.062441   221A      2.080505   222A      2.126140  
	 223A      2.142197   224A      2.147698   225A      2.167966  
	 226A      2.173994   227A      2.178607   228A      2.192975  
	 229A      2.212283   230A      2.222030   231A      2.233402  
	 232A      2.244819   233A      2.251166   234A      2.255308  
	 235A      2.273376   236A      2.289241   237A      2.304257  
	 238A      2.306181   239A      2.345371   240A      2.363558  
	 241A      2.374157   242A      2.381817   243A      2.388944  
	 244A      2.408772   245A      2.434084   246A      2.452513  
	 247A      2.483265   248A      2.507854   249A      2.537226  
	 250A      2.587566   251A      2.603747   252A      2.620016  
	 253A      2.631769   254A      2.657315   255A      2.691424  
	 256A      2.717599   257A      2.780683   258A      2.808610  
	 259A      2.821993   260A      2.853068   261A      2.878519  
	 262A      2.936256   263A      2.970573   264A      2.982614  
	 265A      2.996948   266A      3.002677   267A      3.004879  
	 268A      3.047295   269A      3.124986   270A      3.133842  
	 271A      3.154281   272A      3.170118   273A      3.172485  
	 274A      3.191659   275A      3.234478   276A      3.307510  
	 277A      3.384002   278A      3.514214   279A      3.587161  
	 280A      3.601039   281A      3.888187   282A      3.906976  
	 283A      4.878146  

	Final Occupation by Irrep:
	          A 
	DOCC [    30 ]

  Energy converged.

  @RHF Final Energy:  -325.94178203702955

   => Energetics <=

    Nuclear Repulsion Energy =            362.3235326362676574
    One-Electron Energy =               -1158.1463328384927536
    Two-Electron Energy =                 469.8810181651958260
    DFT Exchange-Correlation Energy =       0.0000000000000000
    Empirical Dispersion Energy =           0.0000000000000000
    Total Energy =                       -325.9417820370293271



Properties will be evaluated at   0.000000,   0.000000,   0.000000 Bohr
  ==> Properties <==


Properties computed using the SCF density density matrix
  Nuclear Dipole Moment: (a.u.)
     X:    -1.8994      Y:    -0.2348      Z:     5.0940

  Electronic Dipole Moment: (a.u.)
     X:     1.5652      Y:     0.5795      Z:    -5.5023

  Dipole Moment: (a.u.)
     X:    -0.3342      Y:     0.3446      Z:    -0.4083     Total:     0.6302

  Dipole Moment: (Debye)
     X:    -0.8494      Y:     0.8759      Z:    -1.0379     Total:     1.6019


  Saving occupied orbitals to File 180.

  Saving SAPT 2-DIMER file.

*** tstop() called on node114.bme.utexas.edu at Thu Mar 27 14:07:20 2014
Module time:
	user time   =     149.30 seconds =       2.49 minutes
	system time =       1.11 seconds =       0.02 minutes
	total time  =         40 seconds =       0.67 minutes
Total time:
	user time   =     149.30 seconds =       2.49 minutes
	system time =       1.11 seconds =       0.02 minutes
	total time  =         40 seconds =       0.67 minutes

  //>>>>>>>>>>>>>>>>>>>>>>>>>>>>>>>>>>>//
  //            Monomer A HF           //
  //<<<<<<<<<<<<<<<<<<<<<<<<<<<<<<<<<<<//


  No DF_BASIS_SCF auxiliary basis selected, defaulting to aug-cc-pvdz-jkfit


*** tstart() called on node114.bme.utexas.edu
*** at Thu Mar 27 14:07:20 2014


         ---------------------------------------------------------
                                   SCF
            by Justin Turney, Rob Parrish, and Andy Simmonett
                              RHF Reference
                        4 Threads,  30000 MiB Core
         ---------------------------------------------------------

  ==> Geometry <==

    Molecular point group: c1
    Full point group: C1

    Geometry (in Angstrom), charge = 0, multiplicity = 1:

       Center              X                  Y                   Z       
    ------------   -----------------  -----------------  -----------------
           C          0.843772495641     1.242540477143    -0.947737268192
           H          1.433406065641     2.146195217143    -1.020062725192
           C          1.469644480641    -0.002621641857    -0.985682436192
           H          2.544600633641    -0.065227920857    -1.084171697192
           C          0.709475674641    -1.167702011857    -0.891178646192
           H          1.195376485641    -2.133325364857    -0.914963088192
           C         -0.676095099359    -1.087173431857    -0.760893494192
           H         -1.265243688359    -1.991003083857    -0.687239237192
           C         -1.301954121359     0.157919886143    -0.724197437192
           H         -2.376775284359     0.219951153143    -0.622735972192
           C         -0.542003681359     1.322649521143    -0.816349439192
           H         -1.027278076359     2.288658327143    -0.786851664192
           N(Gh)      0.481466182641    -0.017622231857     2.026707671808
           H(Gh)      0.616084539641     0.026418270143     1.023636314808
           H(Gh)      0.622958753641     0.927524504143     2.359179948808
           C(Gh)     -0.894633292359    -0.424005640857     2.304143463808
           H(Gh)     -1.052509858359    -0.452552647857     3.380698999808
           H(Gh)     -1.665935479359     0.216375148143     1.864024465808
           H(Gh)     -1.049325273359    -1.433573442857     1.928521763808

  Running in c1 symmetry.

  Nuclear repulsion =  203.658594639332165

  Charge       = 0
  Multiplicity = 1
  Electrons    = 42
  Nalpha       = 21
  Nbeta        = 21

  ==> Algorithm <==

  SCF Algorithm Type is DF.
  DIIS enabled.
  MOM disabled.
  Fractional occupation disabled.
  Guess Type is CORE.
  Energy threshold   = 1.00e-08
  Density threshold  = 1.00e-08
  Integral threshold = 0.00e+00

  ==> Primary Basis <==

  Basis Set: AUG-CC-PVDZ
    Number of shells: 127
    Number of basis function: 283
    Number of Cartesian functions: 299
    Spherical Harmonics?: true
    Max angular momentum: 2

  ==> Pre-Iterations <==

   -------------------------------------------------------
    Irrep   Nso     Nmo     Nalpha   Nbeta   Ndocc  Nsocc
   -------------------------------------------------------
     A        283     283       0       0       0       0
   -------------------------------------------------------
    Total     283     283      21      21      21       0
   -------------------------------------------------------

 OEINTS: Wrapper to libmints.
   by Justin Turney

   Calculation information:
      Number of atoms:                  19
      Number of AO shells:             127
      Number of SO shells:             127
      Number of primitives:            277
      Number of atomic orbitals:       299
      Number of basis functions:       283

      Number of irreps:                  1
      Number of functions per irrep: [ 283 ]

      Overlap, kinetic, potential, dipole, and quadrupole integrals
        stored in file 35.

  ==> Integral Setup <==

  ==> DFJK: Density-Fitted J/K Matrices <==

    J tasked:                  Yes
    K tasked:                  Yes
    wK tasked:                  No
    OpenMP threads:              4
    Integrals threads:           4
    Memory (MB):             21457
    Algorithm:                Core
    Integral Cache:           LOAD
    Schwarz Cutoff:          0E+00
    Fitting Condition:       1E-12

   => Auxiliary Basis Set <=

  Basis Set: aug-cc-pvdz-jkfit
    Number of shells: 356
    Number of basis function: 1040
    Number of Cartesian functions: 1193
    Spherical Harmonics?: true
    Max angular momentum: 3

  Minimum eigenvalue in the overlap matrix is 2.3272267345E-06.
  Using Symmetric Orthogonalization.
  SCF Guess: Core (One-Electron) Hamiltonian.

  Guess energy:  -178.86889519557124

  ==> Iterations <==

                        Total Energy        Delta E     RMS |[F,P]|

   @RHF iter   1:  -193.19519519535655   -1.93195e+02   1.99593e-02 
   @RHF iter   2:  -172.74235517077776    2.04528e+01   1.63148e-02 DIIS
   @RHF iter   3:  -228.35266731809881   -5.56103e+01   6.70138e-03 DIIS
   @RHF iter   4:  -230.18245116638789   -1.82978e+00   3.21774e-03 DIIS
   @RHF iter   5:  -230.69132945055756   -5.08878e-01   8.11976e-04 DIIS
   @RHF iter   6:  -230.72349836524845   -3.21689e-02   3.36114e-04 DIIS
   @RHF iter   7:  -230.72942118348422   -5.92282e-03   4.16558e-05 DIIS
   @RHF iter   8:  -230.72956344496177   -1.42261e-04   1.02530e-05 DIIS
   @RHF iter   9:  -230.72956945638410   -6.01142e-06   4.06047e-06 DIIS
   @RHF iter  10:  -230.72957029067297   -8.34289e-07   1.08389e-06 DIIS
   @RHF iter  11:  -230.72957037053985   -7.98669e-08   2.19679e-07 DIIS
   @RHF iter  12:  -230.72957037404618   -3.50633e-09   3.93960e-08 DIIS
   @RHF iter  13:  -230.72957037422580   -1.79625e-10   1.12711e-08 DIIS
   @RHF iter  14:  -230.72957037425616   -3.03544e-11   4.97346e-09 DIIS

  ==> Post-Iterations <==

	Orbital Energies (a.u.)
	-----------------------

	Doubly Occupied:                                                      

	   1A    -11.242417     2A    -11.241885     3A    -11.241823  
	   4A    -11.240667     5A    -11.240605     6A    -11.240042  
	   7A     -1.152582     8A     -1.016823     9A     -1.016752  
	  10A     -0.825397    11A     -0.825387    12A     -0.710011  
	  13A     -0.644657    14A     -0.619199    15A     -0.588184  
	  16A     -0.588092    17A     -0.501614    18A     -0.494392  
	  19A     -0.494308    20A     -0.336175    21A     -0.336114  

	Virtual:                                                              

	  22A      0.030663    23A      0.040847    24A      0.041950  
	  25A      0.046381    26A      0.057055    27A      0.057295  
	  28A      0.067922    29A      0.072384    30A      0.076130  
	  31A      0.077550    32A      0.096726    33A      0.105496  
	  34A      0.112206    35A      0.122338    36A      0.130717  
	  37A      0.135713    38A      0.139626    39A      0.141947  
	  40A      0.150830    41A      0.151500    42A      0.155221  
	  43A      0.157672    44A      0.161674    45A      0.161873  
	  46A      0.176917    47A      0.183398    48A      0.186059  
	  49A      0.188349    50A      0.190228    51A      0.192358  
	  52A      0.195490    53A      0.195920    54A      0.207439  
	  55A      0.208934    56A      0.216399    57A      0.243551  
	  58A      0.254228    59A      0.266095    60A      0.266563  
	  61A      0.275579    62A      0.299930    63A      0.308717  
	  64A      0.320844    65A      0.322907    66A      0.333768  
	  67A      0.341312    68A      0.345343    69A      0.363401  
	  70A      0.367332    71A      0.377051    72A      0.379711  
	  73A      0.382682    74A      0.384253    75A      0.394796  
	  76A      0.397824    77A      0.421738    78A      0.425406  
	  79A      0.429187    80A      0.437747    81A      0.439190  
	  82A      0.441171    83A      0.445716    84A      0.460455  
	  85A      0.469033    86A      0.478960    87A      0.480489  
	  88A      0.484995    89A      0.488129    90A      0.508617  
	  91A      0.511821    92A      0.520847    93A      0.541038  
	  94A      0.557535    95A      0.563932    96A      0.566738  
	  97A      0.572412    98A      0.590252    99A      0.594446  
	 100A      0.595953   101A      0.600715   102A      0.604594  
	 103A      0.607998   104A      0.614412   105A      0.624705  
	 106A      0.640230   107A      0.644986   108A      0.652331  
	 109A      0.662380   110A      0.672076   111A      0.677615  
	 112A      0.688175   113A      0.696105   114A      0.703647  
	 115A      0.706543   116A      0.710066   117A      0.715283  
	 118A      0.725602   119A      0.735312   120A      0.753165  
	 121A      0.769175   122A      0.775902   123A      0.782107  
	 124A      0.793955   125A      0.806862   126A      0.814553  
	 127A      0.821923   128A      0.836571   129A      0.840891  
	 130A      0.848824   131A      0.857946   132A      0.858893  
	 133A      0.861449   134A      0.869989   135A      0.883523  
	 136A      0.889879   137A      0.894074   138A      0.909433  
	 139A      0.915670   140A      0.920785   141A      0.942721  
	 142A      0.957086   143A      0.964405   144A      0.969259  
	 145A      0.971060   146A      0.977351   147A      0.989674  
	 148A      0.994453   149A      1.003556   150A      1.018269  
	 151A      1.024493   152A      1.049464   153A      1.077660  
	 154A      1.097212   155A      1.104318   156A      1.110998  
	 157A      1.119753   158A      1.129118   159A      1.162376  
	 160A      1.199680   161A      1.219278   162A      1.259389  
	 163A      1.281967   164A      1.300465   165A      1.329084  
	 166A      1.343551   167A      1.357839   168A      1.361265  
	 169A      1.381671   170A      1.398007   171A      1.421857  
	 172A      1.447655   173A      1.462741   174A      1.488649  
	 175A      1.524215   176A      1.535648   177A      1.555486  
	 178A      1.560739   179A      1.588128   180A      1.603879  
	 181A      1.627285   182A      1.646870   183A      1.660751  
	 184A      1.663881   185A      1.686865   186A      1.696182  
	 187A      1.704401   188A      1.749366   189A      1.759697  
	 190A      1.788496   191A      1.798705   192A      1.805736  
	 193A      1.825351   194A      1.836166   195A      1.875770  
	 196A      1.913952   197A      1.929855   198A      1.938397  
	 199A      1.960095   200A      1.969102   201A      1.985893  
	 202A      1.987713   203A      1.998127   204A      1.999360  
	 205A      2.008908   206A      2.040741   207A      2.073739  
	 208A      2.130224   209A      2.140721   210A      2.145314  
	 211A      2.172447   212A      2.178852   213A      2.205106  
	 214A      2.225619   215A      2.236168   216A      2.238900  
	 217A      2.250899   218A      2.281744   219A      2.295393  
	 220A      2.299119   221A      2.311419   222A      2.326731  
	 223A      2.343201   224A      2.364711   225A      2.368006  
	 226A      2.381523   227A      2.398097   228A      2.403281  
	 229A      2.425719   230A      2.442911   231A      2.452929  
	 232A      2.502791   233A      2.529087   234A      2.561602  
	 235A      2.568674   236A      2.596109   237A      2.627380  
	 238A      2.637611   239A      2.668648   240A      2.702422  
	 241A      2.721376   242A      2.763694   243A      2.796795  
	 244A      2.819697   245A      2.832898   246A      2.856379  
	 247A      2.883095   248A      2.903491   249A      2.980004  
	 250A      2.989285   251A      2.993445   252A      3.000604  
	 253A      3.057334   254A      3.082673   255A      3.091301  
	 256A      3.151124   257A      3.175604   258A      3.194645  
	 259A      3.214611   260A      3.228009   261A      3.380220  
	 262A      3.390128   263A      3.417337   264A      3.470479  
	 265A      3.556885   266A      3.598445   267A      3.609737  
	 268A      3.723262   269A      3.870479   270A      3.910623  
	 271A      3.948826   272A      3.976060   273A      4.255441  
	 274A      4.545784   275A      4.882223   276A      4.990327  
	 277A      5.082833   278A      5.168395   279A      5.216777  
	 280A      5.827285   281A      6.171855   282A     18.558626  
	 283A     25.424726  

	Final Occupation by Irrep:
	          A 
	DOCC [    21 ]

  Energy converged.

  @RHF Final Energy:  -230.72957037425616

   => Energetics <=

    Nuclear Repulsion Energy =            203.6585946393321649
    One-Electron Energy =                -713.5820735609598842
    Two-Electron Energy =                 279.1939085473712794
    DFT Exchange-Correlation Energy =       0.0000000000000000
    Empirical Dispersion Energy =           0.0000000000000000
    Total Energy =                       -230.7295703742564683



Properties will be evaluated at   0.000000,   0.000000,   0.000000 Bohr
  ==> Properties <==


Properties computed using the SCF density density matrix
  Nuclear Dipole Moment: (a.u.)
     X:     6.6540      Y:     6.1585      Z:   -67.7887

  Electronic Dipole Moment: (a.u.)
     X:    -6.6536      Y:    -6.1587      Z:    67.7924

  Dipole Moment: (a.u.)
     X:     0.0004      Y:    -0.0003      Z:     0.0037     Total:     0.0037

  Dipole Moment: (Debye)
     X:     0.0009      Y:    -0.0007      Z:     0.0094     Total:     0.0095


  Saving occupied orbitals to File 180.

  Saving SAPT 2-MONOMER_A file.

*** tstop() called on node114.bme.utexas.edu at Thu Mar 27 14:07:52 2014
Module time:
	user time   =      97.18 seconds =       1.62 minutes
	system time =       2.31 seconds =       0.04 minutes
	total time  =         32 seconds =       0.53 minutes
Total time:
	user time   =     246.49 seconds =       4.11 minutes
	system time =       3.42 seconds =       0.06 minutes
	total time  =         72 seconds =       1.20 minutes

  //>>>>>>>>>>>>>>>>>>>>>>>>>>>>>>>>>>>//
  //            Monomer B HF           //
  //<<<<<<<<<<<<<<<<<<<<<<<<<<<<<<<<<<<//


  No DF_BASIS_SCF auxiliary basis selected, defaulting to aug-cc-pvdz-jkfit


*** tstart() called on node114.bme.utexas.edu
*** at Thu Mar 27 14:07:52 2014


         ---------------------------------------------------------
                                   SCF
            by Justin Turney, Rob Parrish, and Andy Simmonett
                              RHF Reference
                        4 Threads,  30000 MiB Core
         ---------------------------------------------------------

  ==> Geometry <==

    Molecular point group: c1
    Full point group: C1

    Geometry (in Angstrom), charge = 0, multiplicity = 1:

       Center              X                  Y                   Z       
    ------------   -----------------  -----------------  -----------------
           C(Gh)      0.843772495641     1.242540477143    -0.947737268192
           H(Gh)      1.433406065641     2.146195217143    -1.020062725192
           C(Gh)      1.469644480641    -0.002621641857    -0.985682436192
           H(Gh)      2.544600633641    -0.065227920857    -1.084171697192
           C(Gh)      0.709475674641    -1.167702011857    -0.891178646192
           H(Gh)      1.195376485641    -2.133325364857    -0.914963088192
           C(Gh)     -0.676095099359    -1.087173431857    -0.760893494192
           H(Gh)     -1.265243688359    -1.991003083857    -0.687239237192
           C(Gh)     -1.301954121359     0.157919886143    -0.724197437192
           H(Gh)     -2.376775284359     0.219951153143    -0.622735972192
           C(Gh)     -0.542003681359     1.322649521143    -0.816349439192
           H(Gh)     -1.027278076359     2.288658327143    -0.786851664192
           N          0.481466182641    -0.017622231857     2.026707671808
           H          0.616084539641     0.026418270143     1.023636314808
           H          0.622958753641     0.927524504143     2.359179948808
           C         -0.894633292359    -0.424005640857     2.304143463808
           H         -1.052509858359    -0.452552647857     3.380698999808
           H         -1.665935479359     0.216375148143     1.864024465808
           H         -1.049325273359    -1.433573442857     1.928521763808

  Running in c1 symmetry.

  Nuclear repulsion =   42.107253189955337

  Charge       = 0
  Multiplicity = 1
  Electrons    = 18
  Nalpha       = 9
  Nbeta        = 9

  ==> Algorithm <==

  SCF Algorithm Type is DF.
  DIIS enabled.
  MOM disabled.
  Fractional occupation disabled.
  Guess Type is CORE.
  Energy threshold   = 1.00e-08
  Density threshold  = 1.00e-08
  Integral threshold = 0.00e+00

  ==> Primary Basis <==

  Basis Set: AUG-CC-PVDZ
    Number of shells: 127
    Number of basis function: 283
    Number of Cartesian functions: 299
    Spherical Harmonics?: true
    Max angular momentum: 2

  ==> Pre-Iterations <==

   -------------------------------------------------------
    Irrep   Nso     Nmo     Nalpha   Nbeta   Ndocc  Nsocc
   -------------------------------------------------------
     A        283     283       0       0       0       0
   -------------------------------------------------------
    Total     283     283       9       9       9       0
   -------------------------------------------------------

 OEINTS: Wrapper to libmints.
   by Justin Turney

   Calculation information:
      Number of atoms:                  19
      Number of AO shells:             127
      Number of SO shells:             127
      Number of primitives:            277
      Number of atomic orbitals:       299
      Number of basis functions:       283

      Number of irreps:                  1
      Number of functions per irrep: [ 283 ]

      Overlap, kinetic, potential, dipole, and quadrupole integrals
        stored in file 35.

  ==> Integral Setup <==

  ==> DFJK: Density-Fitted J/K Matrices <==

    J tasked:                  Yes
    K tasked:                  Yes
    wK tasked:                  No
    OpenMP threads:              4
    Integrals threads:           4
    Memory (MB):             21457
    Algorithm:                Core
    Integral Cache:           LOAD
    Schwarz Cutoff:          0E+00
    Fitting Condition:       1E-12

   => Auxiliary Basis Set <=

  Basis Set: aug-cc-pvdz-jkfit
    Number of shells: 356
    Number of basis function: 1040
    Number of Cartesian functions: 1193
    Spherical Harmonics?: true
    Max angular momentum: 3

  Minimum eigenvalue in the overlap matrix is 2.3272267345E-06.
  Using Symmetric Orthogonalization.
  SCF Guess: Core (One-Electron) Hamiltonian.

  Guess energy:   -74.74533742823812

  ==> Iterations <==

                        Total Energy        Delta E     RMS |[F,P]|

   @RHF iter   1:   -78.53831343016483   -7.85383e+01   1.54982e-02 
   @RHF iter   2:   -72.71799293370754    5.82032e+00   9.76399e-03 DIIS
   @RHF iter   3:   -91.79579489278450   -1.90778e+01   9.27624e-03 DIIS
   @RHF iter   4:   -93.74759493054123   -1.95180e+00   6.00045e-03 DIIS
   @RHF iter   5:   -94.88774723664199   -1.14015e+00   2.85657e-03 DIIS
   @RHF iter   6:   -95.21965935817079   -3.31912e-01   4.63060e-04 DIIS
   @RHF iter   7:   -95.23028200931086   -1.06227e-02   1.15074e-04 DIIS
   @RHF iter   8:   -95.23113454732734   -8.52538e-04   1.44419e-05 DIIS
   @RHF iter   9:   -95.23115784178501   -2.32945e-05   3.67295e-06 DIIS
   @RHF iter  10:   -95.23115961601209   -1.77423e-06   1.11356e-06 DIIS
   @RHF iter  11:   -95.23115976239367   -1.46382e-07   2.00479e-07 DIIS
   @RHF iter  12:   -95.23115976738345   -4.98977e-09   4.21708e-08 DIIS
   @RHF iter  13:   -95.23115976761440   -2.30955e-10   1.10004e-08 DIIS
   @RHF iter  14:   -95.23115976763592   -2.15152e-11   2.33992e-09 DIIS

  ==> Post-Iterations <==

	Orbital Energies (a.u.)
	-----------------------

	Doubly Occupied:                                                      

	   1A    -15.549022     2A    -11.247361     3A     -1.174170  
	   4A     -0.896763     5A     -0.662164     6A     -0.604432  
	   7A     -0.555015     8A     -0.515623     9A     -0.393334  

	Virtual:                                                              

	  10A      0.021523    11A      0.036135    12A      0.037542  
	  13A      0.046402    14A      0.056638    15A      0.056954  
	  16A      0.065282    17A      0.072735    18A      0.075406  
	  19A      0.077216    20A      0.083557    21A      0.108392  
	  22A      0.112252    23A      0.112910    24A      0.118505  
	  25A      0.128395    26A      0.134407    27A      0.142598  
	  28A      0.144824    29A      0.145121    30A      0.149868  
	  31A      0.169388    32A      0.175989    33A      0.176911  
	  34A      0.181114    35A      0.183718    36A      0.183982  
	  37A      0.187052    38A      0.190254    39A      0.193244  
	  40A      0.199481    41A      0.209530    42A      0.215080  
	  43A      0.226073    44A      0.233376    45A      0.233757  
	  46A      0.249392    47A      0.263473    48A      0.269338  
	  49A      0.282132    50A      0.285407    51A      0.290419  
	  52A      0.323191    53A      0.325263    54A      0.329516  
	  55A      0.341837    56A      0.346584    57A      0.355492  
	  58A      0.366124    59A      0.371240    60A      0.382149  
	  61A      0.387382    62A      0.390350    63A      0.405165  
	  64A      0.415137    65A      0.426015    66A      0.429757  
	  67A      0.440114    68A      0.447160    69A      0.456583  
	  70A      0.461784    71A      0.465552    72A      0.475189  
	  73A      0.476283    74A      0.479169    75A      0.488716  
	  76A      0.496054    77A      0.503842    78A      0.516129  
	  79A      0.524703    80A      0.532973    81A      0.535096  
	  82A      0.537773    83A      0.543640    84A      0.550350  
	  85A      0.562037    86A      0.569306    87A      0.588076  
	  88A      0.606684    89A      0.608458    90A      0.618949  
	  91A      0.625540    92A      0.628166    93A      0.633238  
	  94A      0.637334    95A      0.662355    96A      0.663773  
	  97A      0.669223    98A      0.670375    99A      0.685072  
	 100A      0.694927   101A      0.705957   102A      0.711281  
	 103A      0.726336   104A      0.741977   105A      0.755223  
	 106A      0.759379   107A      0.770598   108A      0.784519  
	 109A      0.787864   110A      0.794545   111A      0.804031  
	 112A      0.814841   113A      0.823041   114A      0.833330  
	 115A      0.843583   116A      0.859592   117A      0.872943  
	 118A      0.876510   119A      0.879381   120A      0.887901  
	 121A      0.890225   122A      0.891250   123A      0.895023  
	 124A      0.907331   125A      0.914548   126A      0.923971  
	 127A      0.932072   128A      0.941345   129A      0.950868  
	 130A      0.959699   131A      0.988409   132A      1.009272  
	 133A      1.014495   134A      1.019751   135A      1.030828  
	 136A      1.035243   137A      1.050887   138A      1.055732  
	 139A      1.062765   140A      1.067269   141A      1.083025  
	 142A      1.117721   143A      1.127887   144A      1.129824  
	 145A      1.141194   146A      1.143936   147A      1.164272  
	 148A      1.174588   149A      1.209744   150A      1.224520  
	 151A      1.236180   152A      1.257752   153A      1.261894  
	 154A      1.271135   155A      1.332551   156A      1.359513  
	 157A      1.381905   158A      1.400250   159A      1.402249  
	 160A      1.449845   161A      1.477520   162A      1.483560  
	 163A      1.492430   164A      1.502233   165A      1.537312  
	 166A      1.582576   167A      1.662537   168A      1.690043  
	 169A      1.716965   170A      1.797033   171A      1.809385  
	 172A      1.815901   173A      1.947707   174A      1.973708  
	 175A      1.990213   176A      2.000733   177A      2.075985  
	 178A      2.094194   179A      2.130681   180A      2.144010  
	 181A      2.156035   182A      2.163103   183A      2.181999  
	 184A      2.191235   185A      2.201394   186A      2.213244  
	 187A      2.242606   188A      2.259781   189A      2.262900  
	 190A      2.271271   191A      2.285871   192A      2.291079  
	 193A      2.310545   194A      2.330524   195A      2.344146  
	 196A      2.353490   197A      2.358254   198A      2.376888  
	 199A      2.387872   200A      2.407850   201A      2.432516  
	 202A      2.447626   203A      2.467649   204A      2.479652  
	 205A      2.499404   206A      2.507042   207A      2.521531  
	 208A      2.535824   209A      2.558036   210A      2.577327  
	 211A      2.581885   212A      2.592737   213A      2.608277  
	 214A      2.616435   215A      2.625031   216A      2.644578  
	 217A      2.649597   218A      2.659584   219A      2.673153  
	 220A      2.680700   221A      2.722038   222A      2.731392  
	 223A      2.742966   224A      2.758382   225A      2.765636  
	 226A      2.774003   227A      2.820283   228A      2.867608  
	 229A      2.876487   230A      2.884411   231A      2.888581  
	 232A      2.925580   233A      2.926658   234A      2.942206  
	 235A      2.975076   236A      2.997818   237A      3.014265  
	 238A      3.061532   239A      3.077606   240A      3.143700  
	 241A      3.155362   242A      3.200463   243A      3.216567  
	 244A      3.241872   245A      3.257417   246A      3.333134  
	 247A      3.424891   248A      3.455458   249A      3.456713  
	 250A      3.468555   251A      3.496202   252A      3.499874  
	 253A      3.540912   254A      3.546908   255A      3.615675  
	 256A      3.700791   257A      3.732462   258A      3.755003  
	 259A      3.768762   260A      3.972630   261A      3.984405  
	 262A      4.022841   263A      4.035691   264A      4.100124  
	 265A      4.107151   266A      4.442176   267A      4.528778  
	 268A      4.688903   269A      4.886174   270A      4.909117  
	 271A      5.333106   272A      5.451478   273A      5.452147  
	 274A      5.469408   275A      5.471146   276A      5.640764  
	 277A      6.111491   278A     18.015162   279A     18.412432  
	 280A     18.422199   281A     19.014206   282A     19.024177  
	 283A     20.719716  

	Final Occupation by Irrep:
	          A 
	DOCC [     9 ]

  Energy converged.

  @RHF Final Energy:   -95.23115976763592

   => Energetics <=

    Nuclear Repulsion Energy =             42.1072531899553368
    One-Electron Energy =                -211.4810581287725313
    Two-Electron Energy =                  74.1426451711812717
    DFT Exchange-Correlation Energy =       0.0000000000000000
    Empirical Dispersion Energy =           0.0000000000000000
    Total Energy =                        -95.2311597676359156



Properties will be evaluated at   0.000000,   0.000000,   0.000000 Bohr
  ==> Properties <==


Properties computed using the SCF density density matrix
  Nuclear Dipole Moment: (a.u.)
     X:    -8.5534      Y:    -6.3933      Z:    72.8827

  Electronic Dipole Moment: (a.u.)
     X:     8.1961      Y:     6.7688      Z:   -73.1358

  Dipole Moment: (a.u.)
     X:    -0.3573      Y:     0.3755      Z:    -0.2531     Total:     0.5768

  Dipole Moment: (Debye)
     X:    -0.9081      Y:     0.9543      Z:    -0.6433     Total:     1.4660


  Saving occupied orbitals to File 180.

  Saving SAPT 2-MONOMER_B file.

*** tstop() called on node114.bme.utexas.edu at Thu Mar 27 14:08:16 2014
Module time:
	user time   =      86.90 seconds =       1.45 minutes
	system time =       0.68 seconds =       0.01 minutes
	total time  =         24 seconds =       0.40 minutes
Total time:
	user time   =     333.41 seconds =       5.56 minutes
	system time =       4.10 seconds =       0.07 minutes
	total time  =         96 seconds =       1.60 minutes
  No DF_BASIS_SAPT auxiliary basis selected, defaulting to aug-cc-pvdz-ri

  //>>>>>>>>>>>>>>>>>>>>>>>>>>>>>>>>>>>//
  //               SAPT2+              //
  //<<<<<<<<<<<<<<<<<<<<<<<<<<<<<<<<<<<//


*** tstart() called on node114.bme.utexas.edu
*** at Thu Mar 27 14:08:16 2014

        SAPT2+  
    Ed Hohenstein
     6 June 2009

      Orbital Information
  --------------------------
    NSO        =       283
    NMO        =       283
    NRI        =       829
    NOCC A     =        21
    NOCC B     =         9
    FOCC A     =         6
    FOCC B     =         2
    NVIR A     =       262
    NVIR B     =       274

    Estimated memory usage: 1292.5 MB

    Elst10,r            =    -0.014849293618 H
    Exch10 (S^2)        =     0.038186307028 H
    Exch10              =     0.038571355170 H
    Ind20,r (A<-B)      =    -0.007450836046 H
    Ind20,r (B<-A)      =    -0.005369896347 H
    Ind20,r             =    -0.012820732393 H
    Exch-Ind20,r (A<-B) =     0.005967770852 H
    Exch-Ind20,r (B<-A) =     0.005054343755 H
    Exch-Ind20,r        =     0.011022114607 H
    Disp20              =    -0.022053047785 H
    Exch-Disp20         =     0.003807863008 H
    Elst12,r            =    -0.000842686358 H
    Exch11              =     0.000978323210 H
    Exch12              =     0.001635872317 H
    Ind22               =    -0.001407483193 H
    Disp21              =     0.004222249121 H
    Disp22 (SDQ)        =     0.000418198260 H

    (i =   1 of   7)        468 seconds
    (i =   2 of   7)       1031 seconds
    (i =   3 of   7)       1917 seconds
    (i =   4 of   7)       2896 seconds
    (i =   5 of   7)       3476 seconds
    (i =   6 of   7)       3964 seconds
    (i =   7 of   7)       4425 seconds

    Disp220 (T)         =    -0.001980976381 H

    (i =   1 of  15)        170 seconds
    (i =   2 of  15)        368 seconds
    (i =   3 of  15)        569 seconds
    (i =   4 of  15)        763 seconds
    (i =   5 of  15)        962 seconds
    (i =   6 of  15)       1159 seconds
    (i =   7 of  15)       1355 seconds
    (i =   8 of  15)       1554 seconds
    (i =   9 of  15)       1752 seconds
    (i =  10 of  15)       1938 seconds
    (i =  11 of  15)       2138 seconds
    (i =  12 of  15)       2334 seconds
    (i =  13 of  15)       2532 seconds
    (i =  14 of  15)       2731 seconds
    (i =  15 of  15)       2928 seconds

    Disp202 (T)         =    -0.001629044441 H

    Disp22 (T)          =    -0.003610020821 H

    SAPT Results  
  -----------------------------------------------------------------------
    Electrostatics         -15.69197998 mH      -9.84686651 kcal mol^-1
      Elst10,r             -14.84929362 mH      -9.31807281 kcal mol^-1
      Elst12,r              -0.84268636 mH      -0.52879369 kcal mol^-1

    Exchange                41.18555070 mH      25.84432433 kcal mol^-1
      Exch10                38.57135517 mH      24.20389180 kcal mol^-1
      Exch10(S^2)           38.18630703 mH      23.96227043 kcal mol^-1
      Exch11(S^2)            0.97832321 mH       0.61390711 kcal mol^-1
      Exch12(S^2)            1.63587232 mH       1.02652542 kcal mol^-1

    Induction               -4.97141220 mH      -3.11960839 kcal mol^-1
      Ind20,r              -12.82073239 mH      -8.04513137 kcal mol^-1
      Ind22                 -1.40748319 mH      -0.88320907 kcal mol^-1
      Exch-Ind20,r          11.02211461 mH       6.91648163 kcal mol^-1
      Exch-Ind22             1.21002768 mH       0.75930386 kcal mol^-1
      delta HF,r (2)        -2.97533890 mH      -1.86705343 kcal mol^-1

    Dispersion             -17.21475822 mH     -10.80242432 kcal mol^-1
      Disp20               -22.05304778 mH     -13.83849699 kcal mol^-1
      Disp21                 4.22224912 mH       2.64950143 kcal mol^-1
      Disp22 (SDQ)           0.41819826 mH       0.26242338 kcal mol^-1
      Disp22 (T)            -3.61002082 mH      -2.26532236 kcal mol^-1
      Exch-Disp20            3.80786301 mH       2.38947021 kcal mol^-1

    Total HF                18.94810486 mH      11.89011581 kcal mol^-1
    Total SAPT0              0.70292009 mH       0.44108903 kcal mol^-1
    Total SAPT2              2.27697374 mH       1.42882265 kcal mol^-1
    Total SAPT2+             3.30740030 mH       2.07542511 kcal mol^-1

*** tstop() called on node114.bme.utexas.edu at Thu Mar 27 16:26:51 2014
Module time:
	user time   =   30351.13 seconds =     505.85 minutes
	system time =     159.36 seconds =       2.66 minutes
	total time  =       8315 seconds =     138.58 minutes
Total time:
	user time   =   30684.54 seconds =     511.41 minutes
	system time =     163.46 seconds =       2.72 minutes
	total time  =       8411 seconds =     140.18 minutes

*** PSI4 exiting successfully. Buy a developer a beer!
