    -----------------------------------------------------------------------
          PSI4: An Open-Source Ab Initio Electronic Structure Package
                              PSI 4.0.0-beta4 Driver

    J. M. Turney, A. C. Simmonett, R. M. Parrish, E. G. Hohenstein,
    F. A. Evangelista, J. T. Fermann, B. J. Mintz, L. A. Burns, J. J. Wilke,
    M. L. Abrams, N. J. Russ, M. L. Leininger, C. L. Janssen, E. T. Seidl,
    W. D. Allen, H. F. Schaefer, R. A. King, E. F. Valeev, C. D. Sherrill,
    and T. D. Crawford, WIREs Comput. Mol. Sci., (2011) (doi: 10.1002/wcms.93)

                         Additional Contributions by
    A. E. DePrince, M. Saitow, U. Bozkaya, A. Yu. Sokolov
    -----------------------------------------------------------------------

    Process ID:  18197
    PSI4DATADIR: /home/xzhu216/psi4/psi4-install/share/psi

    Using LocalCommunicator (Number of processes = 1)

    Memory level set to 256.000 MB

  ==> Input File <==

--------------------------------------------------------------------------
#psi4
#
memory 3 gb

molecule Benzene_MeNH2 {
0 1
C    0.692315234   1.088292040   0.324841241
H    1.281948804   1.991946780   0.252515784
C    1.318187219  -0.156870079   0.286896073
H    2.393143372  -0.219476358   0.188406812
C    0.558018413  -1.321950449   0.381399863
H    1.043919224  -2.287573802   0.357615421
C   -0.827552361  -1.241421869   0.511685015
H   -1.416700950  -2.145251521   0.585339272
C   -1.453411383   0.003671449   0.548381072
H   -2.528232546   0.065702716   0.649842537
C   -0.693460943   1.168401084   0.456229070
H   -1.178735338   2.134409890   0.485726845
--
0 1
N    0.302184569  -0.197619926   3.582684063
H    0.436802926  -0.153579424   2.579612706
H    0.443677140   0.747526810   3.915156340
C   -1.073914906  -0.604003335   3.860119855
H   -1.231791472  -0.632550342   4.936675391
H   -1.845217093   0.036377454   3.420000857
H   -1.228606887  -1.613571137   3.484498155
units angstrom
no_reorient  #important for SAPT in psi4, default
symmetry c1  #important for SAPT in psi4, default
}

set {
basis aug-cc-pVDZ
scf_type DF
freeze_core True
}
energy('sapt2+')
--------------------------------------------------------------------------

  Memory set to   3.000 GiB by Python script.

  //>>>>>>>>>>>>>>>>>>>>>>>>>>>>>>>>>>>//
  //              Dimer HF             //
  //<<<<<<<<<<<<<<<<<<<<<<<<<<<<<<<<<<<//


  No DF_BASIS_SCF auxiliary basis selected, defaulting to aug-cc-pvdz-jkfit


*** tstart() called on node144.bme.utexas.edu
*** at Thu Sep 19 09:49:10 2013


         ---------------------------------------------------------
                                   SCF
            by Justin Turney, Rob Parrish, and Andy Simmonett
                              RHF Reference
                        4 Threads,   3000 MiB Core
         ---------------------------------------------------------

  ==> Geometry <==

    Molecular point group: c1
    Full point group: C1

    Geometry (in Angstrom), charge = 0, multiplicity = 1:

       Center              X                  Y                   Z       
    ------------   -----------------  -----------------  -----------------
           C          0.851690139893     1.249867636342    -1.028380426085
           H          1.441323709893     2.153522376342    -1.100705883085
           C          1.477562124893     0.004705517342    -1.066325594085
           H          2.552518277893    -0.057900761658    -1.164814855085
           C          0.717393318893    -1.160374852658    -0.971821804085
           H          1.203294129893    -2.125998205658    -0.995606246085
           C         -0.668177455107    -1.079846272658    -0.841536652085
           H         -1.257326044107    -1.983675924658    -0.767882395085
           C         -1.294036477107     0.165247045342    -0.804840595085
           H         -2.368857640107     0.227278312342    -0.703379130085
           C         -0.534086037107     1.329976680342    -0.896992597085
           H         -1.019360432107     2.295985486342    -0.867494822085
           N          0.461559474893    -0.036044329658     2.229462395915
           H          0.596177831893     0.007996172342     1.226391038915
           H          0.603052045893     0.909102406342     2.561934672915
           C         -0.914540000107    -0.442427738658     2.506898187915
           H         -1.072416566107    -0.470974745658     3.583453723915
           H         -1.685842187107     0.197953050342     2.066779189915
           H         -1.069231981107    -1.451995540658     2.131276487915

  Running in c1 symmetry.

  Nuclear repulsion =  354.226159514799804

  Charge       = 0
  Multiplicity = 1
  Electrons    = 60
  Nalpha       = 30
  Nbeta        = 30

  ==> Algorithm <==

  SCF Algorithm Type is DF.
  DIIS enabled.
  MOM disabled.
  Fractional occupation disabled.
  Guess Type is CORE.
  Energy threshold   = 1.00e-08
  Density threshold  = 1.00e-08
  Integral threshold = 0.00e+00

  ==> Primary Basis <==

  Basis Set: AUG-CC-PVDZ
    Number of shells: 127
    Number of basis function: 283
    Number of Cartesian functions: 299
    Spherical Harmonics?: true
    Max angular momentum: 2

  ==> Pre-Iterations <==

   -------------------------------------------------------
    Irrep   Nso     Nmo     Nalpha   Nbeta   Ndocc  Nsocc
   -------------------------------------------------------
     A        283     283       0       0       0       0
   -------------------------------------------------------
    Total     283     283      30      30      30       0
   -------------------------------------------------------

 OEINTS: Wrapper to libmints.
   by Justin Turney

   Calculation information:
      Number of atoms:                  19
      Number of AO shells:             127
      Number of SO shells:             127
      Number of primitives:            277
      Number of atomic orbitals:       299
      Number of basis functions:       283

      Number of irreps:                  1
      Number of functions per irrep: [ 283 ]

      Overlap, kinetic, potential, dipole, and quadrupole integrals
        stored in file 35.

  ==> Integral Setup <==

  ==> DFJK: Density-Fitted J/K Matrices <==

    J tasked:                  Yes
    K tasked:                  Yes
    wK tasked:                  No
    OpenMP threads:              4
    Integrals threads:           4
    Memory (MB):              2145
    Algorithm:                Core
    Integral Cache:           SAVE
    Schwarz Cutoff:          0E+00
    Fitting Condition:       1E-12

   => Auxiliary Basis Set <=

  Basis Set: aug-cc-pvdz-jkfit
    Number of shells: 356
    Number of basis function: 1040
    Number of Cartesian functions: 1193
    Spherical Harmonics?: true
    Max angular momentum: 3

  Minimum eigenvalue in the overlap matrix is 2.3293045443E-06.
  Using Symmetric Orthogonalization.
  SCF Guess: Core (One-Electron) Hamiltonian.

  Guess energy:  -261.83933691674855

  ==> Iterations <==

                        Total Energy        Delta E     RMS |[F,P]|

   @RHF iter   1:  -247.29532938648498   -2.47295e+02   2.78955e-02 
   @RHF iter   2:  -126.41369887516186    1.20882e+02   4.17559e-02 DIIS
   @RHF iter   3:  -264.48663544094819   -1.38073e+02   2.39172e-02 DIIS
   @RHF iter   4:  -271.34305850968389   -6.85642e+00   2.53337e-02 DIIS
   @RHF iter   5:  -325.27131692309200   -5.39283e+01   3.54606e-03 DIIS
   @RHF iter   6:  -325.86757724302009   -5.96260e-01   1.26020e-03 DIIS
   @RHF iter   7:  -325.93981872582327   -7.22415e-02   4.94011e-04 DIIS
   @RHF iter   8:  -325.95248902635677   -1.26703e-02   1.11486e-04 DIIS
   @RHF iter   9:  -325.95337392560185   -8.84899e-04   4.14273e-05 DIIS
   @RHF iter  10:  -325.95351994663480   -1.46021e-04   1.46148e-05 DIIS
   @RHF iter  11:  -325.95354153760735   -2.15910e-05   4.39619e-06 DIIS
   @RHF iter  12:  -325.95354407179303   -2.53419e-06   1.15014e-06 DIIS
   @RHF iter  13:  -325.95354422659972   -1.54807e-07   3.69263e-07 DIIS
   @RHF iter  14:  -325.95354424736973   -2.07700e-08   1.98808e-07 DIIS
   @RHF iter  15:  -325.95354425307897   -5.70924e-09   1.05955e-07 DIIS
   @RHF iter  16:  -325.95354425564409   -2.56512e-09   4.19231e-08 DIIS
   @RHF iter  17:  -325.95354425606507   -4.20982e-10   1.42754e-08 DIIS
   @RHF iter  18:  -325.95354425609179   -2.67164e-11   3.87666e-09 DIIS

  ==> Post-Iterations <==

	Orbital Energies (a.u.)
	-----------------------

	Doubly Occupied:                                                      

	   1A    -15.528960     2A    -11.248997     3A    -11.248288  
	   4A    -11.248091     5A    -11.247176     6A    -11.246840  
	   7A    -11.246238     8A    -11.234353     9A     -1.164711  
	  10A     -1.153618    11A     -1.024478    12A     -1.024243  
	  13A     -0.883407    14A     -0.832255    15A     -0.832122  
	  16A     -0.717187    17A     -0.651011    18A     -0.649480  
	  19A     -0.625988    20A     -0.596013    21A     -0.595030  
	  22A     -0.591580    23A     -0.541476    24A     -0.510637  
	  25A     -0.500880    26A     -0.500741    27A     -0.495843  
	  28A     -0.377290    29A     -0.344018    30A     -0.343490  

	Virtual:                                                              

	  31A      0.033003    32A      0.040268    33A      0.041939  
	  34A      0.050949    35A      0.056184    36A      0.056299  
	  37A      0.068105    38A      0.075224    39A      0.075770  
	  40A      0.078682    41A      0.100423    42A      0.101430  
	  43A      0.115458    44A      0.123479    45A      0.134503  
	  46A      0.139756    47A      0.140624    48A      0.147641  
	  49A      0.150590    50A      0.151840    51A      0.154226  
	  52A      0.156018    53A      0.160435    54A      0.179241  
	  55A      0.181532    56A      0.182739    57A      0.185550  
	  58A      0.187290    59A      0.189142    60A      0.192056  
	  61A      0.199804    62A      0.209453    63A      0.211899  
	  64A      0.217883    65A      0.229191    66A      0.249230  
	  67A      0.253511    68A      0.265190    69A      0.276280  
	  70A      0.288676    71A      0.300382    72A      0.309669  
	  73A      0.317604    74A      0.320307    75A      0.332756  
	  76A      0.338156    77A      0.350076    78A      0.354850  
	  79A      0.360407    80A      0.368408    81A      0.376315  
	  82A      0.376833    83A      0.379282    84A      0.381076  
	  85A      0.393632    86A      0.404683    87A      0.412002  
	  88A      0.427350    89A      0.434038    90A      0.438499  
	  91A      0.439271    92A      0.443606    93A      0.449690  
	  94A      0.457048    95A      0.461530    96A      0.468707  
	  97A      0.482761    98A      0.494338    99A      0.499482  
	 100A      0.505497   101A      0.515792   102A      0.518322  
	 103A      0.533039   104A      0.539723   105A      0.560386  
	 106A      0.564263   107A      0.573474   108A      0.577317  
	 109A      0.587167   110A      0.591110   111A      0.592915  
	 112A      0.603700   113A      0.605856   114A      0.616834  
	 115A      0.622388   116A      0.625450   117A      0.633745  
	 118A      0.647403   119A      0.651719   120A      0.669065  
	 121A      0.674728   122A      0.684978   123A      0.687111  
	 124A      0.692647   125A      0.693664   126A      0.706106  
	 127A      0.711583   128A      0.716137   129A      0.730524  
	 130A      0.738487   131A      0.741061   132A      0.744173  
	 133A      0.760792   134A      0.771134   135A      0.777376  
	 136A      0.778948   137A      0.792564   138A      0.809946  
	 139A      0.817270   140A      0.820997   141A      0.829871  
	 142A      0.836070   143A      0.853427   144A      0.854392  
	 145A      0.858592   146A      0.872953   147A      0.894628  
	 148A      0.896489   149A      0.912958   150A      0.936078  
	 151A      0.940331   152A      0.949587   153A      0.951685  
	 154A      0.965451   155A      0.971959   156A      0.978603  
	 157A      0.983643   158A      0.989872   159A      1.005816  
	 160A      1.026275   161A      1.047325   162A      1.066636  
	 163A      1.080737   164A      1.091123   165A      1.099902  
	 166A      1.115814   167A      1.121501   168A      1.152594  
	 169A      1.162130   170A      1.173104   171A      1.194657  
	 172A      1.225642   173A      1.293448   174A      1.307276  
	 175A      1.334522   176A      1.344687   177A      1.351475  
	 178A      1.366008   179A      1.393265   180A      1.429090  
	 181A      1.444881   182A      1.467484   183A      1.501904  
	 184A      1.510798   185A      1.528351   186A      1.541357  
	 187A      1.555218   188A      1.578636   189A      1.593738  
	 190A      1.604166   191A      1.627302   192A      1.644161  
	 193A      1.647567   194A      1.656370   195A      1.671710  
	 196A      1.687663   197A      1.708201   198A      1.713746  
	 199A      1.737748   200A      1.739784   201A      1.749380  
	 202A      1.763656   203A      1.781256   204A      1.787041  
	 205A      1.797916   206A      1.805806   207A      1.844135  
	 208A      1.855635   209A      1.888686   210A      1.919418  
	 211A      1.928883   212A      1.936116   213A      1.941963  
	 214A      1.968376   215A      1.973623   216A      1.975410  
	 217A      1.981394   218A      2.014300   219A      2.027472  
	 220A      2.049361   221A      2.064734   222A      2.076889  
	 223A      2.120136   224A      2.128908   225A      2.137917  
	 226A      2.153645   227A      2.170934   228A      2.175392  
	 229A      2.184435   230A      2.202674   231A      2.212288  
	 232A      2.224103   233A      2.241049   234A      2.242378  
	 235A      2.257467   236A      2.274006   237A      2.283014  
	 238A      2.291668   239A      2.297419   240A      2.336052  
	 241A      2.365402   242A      2.370028   243A      2.380953  
	 244A      2.391111   245A      2.414847   246A      2.424935  
	 247A      2.456813   248A      2.483558   249A      2.506953  
	 250A      2.543299   251A      2.585433   252A      2.597863  
	 253A      2.619194   254A      2.637114   255A      2.684155  
	 256A      2.688576   257A      2.781708   258A      2.795875  
	 259A      2.813001   260A      2.832253   261A      2.850242  
	 262A      2.856795   263A      2.944957   264A      2.952405  
	 265A      2.973551   266A      2.983811   267A      2.989153  
	 268A      2.995536   269A      3.096020   270A      3.133667  
	 271A      3.135814   272A      3.146943   273A      3.157058  
	 274A      3.172809   275A      3.197350   276A      3.250269  
	 277A      3.383495   278A      3.460407   279A      3.573784  
	 280A      3.580560   281A      3.813095   282A      3.892622  
	 283A      4.858472  

	Final Occupation by Irrep:
	          A 
	DOCC [    30 ]

  Energy converged.

  @RHF Final Energy:  -325.95354425609179

   => Energetics <=

    Nuclear Repulsion Energy =            354.2261595147998037
    One-Electron Energy =               -1141.9505324005701823
    Two-Electron Energy =                 461.7708286296786468
    DFT Exchange-Correlation Energy =       0.0000000000000000
    Empirical Dispersion Energy =           0.0000000000000000
    Total Energy =                       -325.9535442560917886



Properties will be evaluated at   0.000000,   0.000000,   0.000000 Bohr
  ==> Properties <==


Properties computed using the SCF density density matrix
  Nuclear Dipole Moment: (a.u.)
     X:    -1.9482      Y:    -0.2799      Z:     5.5902

  Electronic Dipole Moment: (a.u.)
     X:     1.6190      Y:     0.6323      Z:    -5.9981

  Dipole Moment: (a.u.)
     X:    -0.3292      Y:     0.3524      Z:    -0.4079     Total:     0.6316

  Dipole Moment: (Debye)
     X:    -0.8367      Y:     0.8956      Z:    -1.0368     Total:     1.6054


  Saving occupied orbitals to File 180.

  Saving SAPT 2-DIMER file.

*** tstop() called on node144.bme.utexas.edu at Thu Sep 19 09:49:50 2013
Module time:
	user time   =     147.99 seconds =       2.47 minutes
	system time =       1.43 seconds =       0.02 minutes
	total time  =         40 seconds =       0.67 minutes
Total time:
	user time   =     147.99 seconds =       2.47 minutes
	system time =       1.43 seconds =       0.02 minutes
	total time  =         40 seconds =       0.67 minutes

  //>>>>>>>>>>>>>>>>>>>>>>>>>>>>>>>>>>>//
  //            Monomer A HF           //
  //<<<<<<<<<<<<<<<<<<<<<<<<<<<<<<<<<<<//


  No DF_BASIS_SCF auxiliary basis selected, defaulting to aug-cc-pvdz-jkfit


*** tstart() called on node144.bme.utexas.edu
*** at Thu Sep 19 09:49:50 2013


         ---------------------------------------------------------
                                   SCF
            by Justin Turney, Rob Parrish, and Andy Simmonett
                              RHF Reference
                        4 Threads,   3000 MiB Core
         ---------------------------------------------------------

  ==> Geometry <==

    Molecular point group: c1
    Full point group: C1

    Geometry (in Angstrom), charge = 0, multiplicity = 1:

       Center              X                  Y                   Z       
    ------------   -----------------  -----------------  -----------------
           C          0.851690139893     1.249867636342    -1.028380426085
           H          1.441323709893     2.153522376342    -1.100705883085
           C          1.477562124893     0.004705517342    -1.066325594085
           H          2.552518277893    -0.057900761658    -1.164814855085
           C          0.717393318893    -1.160374852658    -0.971821804085
           H          1.203294129893    -2.125998205658    -0.995606246085
           C         -0.668177455107    -1.079846272658    -0.841536652085
           H         -1.257326044107    -1.983675924658    -0.767882395085
           C         -1.294036477107     0.165247045342    -0.804840595085
           H         -2.368857640107     0.227278312342    -0.703379130085
           C         -0.534086037107     1.329976680342    -0.896992597085
           H         -1.019360432107     2.295985486342    -0.867494822085
           N(Gh)      0.461559474893    -0.036044329658     2.229462395915
           H(Gh)      0.596177831893     0.007996172342     1.226391038915
           H(Gh)      0.603052045893     0.909102406342     2.561934672915
           C(Gh)     -0.914540000107    -0.442427738658     2.506898187915
           H(Gh)     -1.072416566107    -0.470974745658     3.583453723915
           H(Gh)     -1.685842187107     0.197953050342     2.066779189915
           H(Gh)     -1.069231981107    -1.451995540658     2.131276487915

  Running in c1 symmetry.

  Nuclear repulsion =  203.658594639332165

  Charge       = 0
  Multiplicity = 1
  Electrons    = 42
  Nalpha       = 21
  Nbeta        = 21

  ==> Algorithm <==

  SCF Algorithm Type is DF.
  DIIS enabled.
  MOM disabled.
  Fractional occupation disabled.
  Guess Type is CORE.
  Energy threshold   = 1.00e-08
  Density threshold  = 1.00e-08
  Integral threshold = 0.00e+00

  ==> Primary Basis <==

  Basis Set: AUG-CC-PVDZ
    Number of shells: 127
    Number of basis function: 283
    Number of Cartesian functions: 299
    Spherical Harmonics?: true
    Max angular momentum: 2

  ==> Pre-Iterations <==

   -------------------------------------------------------
    Irrep   Nso     Nmo     Nalpha   Nbeta   Ndocc  Nsocc
   -------------------------------------------------------
     A        283     283       0       0       0       0
   -------------------------------------------------------
    Total     283     283      21      21      21       0
   -------------------------------------------------------

 OEINTS: Wrapper to libmints.
   by Justin Turney

   Calculation information:
      Number of atoms:                  19
      Number of AO shells:             127
      Number of SO shells:             127
      Number of primitives:            277
      Number of atomic orbitals:       299
      Number of basis functions:       283

      Number of irreps:                  1
      Number of functions per irrep: [ 283 ]

      Overlap, kinetic, potential, dipole, and quadrupole integrals
        stored in file 35.

  ==> Integral Setup <==

  ==> DFJK: Density-Fitted J/K Matrices <==

    J tasked:                  Yes
    K tasked:                  Yes
    wK tasked:                  No
    OpenMP threads:              4
    Integrals threads:           4
    Memory (MB):              2145
    Algorithm:                Core
    Integral Cache:           LOAD
    Schwarz Cutoff:          0E+00
    Fitting Condition:       1E-12

   => Auxiliary Basis Set <=

  Basis Set: aug-cc-pvdz-jkfit
    Number of shells: 356
    Number of basis function: 1040
    Number of Cartesian functions: 1193
    Spherical Harmonics?: true
    Max angular momentum: 3

  Minimum eigenvalue in the overlap matrix is 2.3293045440E-06.
  Using Symmetric Orthogonalization.
  SCF Guess: Core (One-Electron) Hamiltonian.

  Guess energy:  -178.82955518086052

  ==> Iterations <==

                        Total Energy        Delta E     RMS |[F,P]|

   @RHF iter   1:  -193.28974439915882   -1.93290e+02   1.99096e-02 
   @RHF iter   2:  -172.68780351339760    2.06019e+01   1.63072e-02 DIIS
   @RHF iter   3:  -228.37045710386283   -5.56827e+01   6.66740e-03 DIIS
   @RHF iter   4:  -230.18736138877571   -1.81690e+00   3.20261e-03 DIIS
   @RHF iter   5:  -230.69070276385386   -5.03341e-01   8.17903e-04 DIIS
   @RHF iter   6:  -230.72318005287181   -3.24773e-02   3.37501e-04 DIIS
   @RHF iter   7:  -230.72916481883115   -5.98477e-03   4.17669e-05 DIIS
   @RHF iter   8:  -230.72930864038759   -1.43822e-04   9.89439e-06 DIIS
   @RHF iter   9:  -230.72931435825674   -5.71787e-06   3.82754e-06 DIIS
   @RHF iter  10:  -230.72931510713832   -7.48882e-07   1.02205e-06 DIIS
   @RHF iter  11:  -230.72931517866951   -7.15312e-08   2.13695e-07 DIIS
   @RHF iter  12:  -230.72931518184279   -3.17328e-09   4.08241e-08 DIIS
   @RHF iter  13:  -230.72931518204601   -2.03215e-10   1.29639e-08 DIIS
   @RHF iter  14:  -230.72931518208944   -4.34284e-11   5.55170e-09 DIIS

  ==> Post-Iterations <==

	Orbital Energies (a.u.)
	-----------------------

	Doubly Occupied:                                                      

	   1A    -11.242395     2A    -11.241849     3A    -11.241810  
	   4A    -11.240635     5A    -11.240593     6A    -11.240017  
	   7A     -1.152651     8A     -1.016898     9A     -1.016824  
	  10A     -0.825468    11A     -0.825459    12A     -0.710079  
	  13A     -0.644721    14A     -0.619277    15A     -0.588271  
	  16A     -0.588175    17A     -0.501638    18A     -0.494465  
	  19A     -0.494384    20A     -0.336194    21A     -0.336142  

	Virtual:                                                              

	  22A      0.030367    23A      0.040694    24A      0.041893  
	  25A      0.045804    26A      0.057046    27A      0.057304  
	  28A      0.066915    29A      0.071623    30A      0.076083  
	  31A      0.076318    32A      0.096443    33A      0.105520  
	  34A      0.112308    35A      0.121929    36A      0.130535  
	  37A      0.135383    38A      0.139990    39A      0.142248  
	  40A      0.150636    41A      0.151621    42A      0.154313  
	  43A      0.156972    44A      0.160825    45A      0.161253  
	  46A      0.174587    47A      0.182109    48A      0.184308  
	  49A      0.188535    50A      0.190197    51A      0.192184  
	  52A      0.192610    53A      0.194304    54A      0.206182  
	  55A      0.208812    56A      0.213759    57A      0.241754  
	  58A      0.248974    59A      0.260089    60A      0.266565  
	  61A      0.272061    62A      0.297255    63A      0.306393  
	  64A      0.319071    65A      0.321558    66A      0.331316  
	  67A      0.340539    68A      0.344303    69A      0.361166  
	  70A      0.362899    71A      0.370649    72A      0.380684  
	  73A      0.382332    74A      0.384858    75A      0.390629  
	  76A      0.393254    77A      0.417696    78A      0.424735  
	  79A      0.427299    80A      0.430912    81A      0.434723  
	  82A      0.441659    83A      0.443476    84A      0.455693  
	  85A      0.466496    86A      0.470781    87A      0.476942  
	  88A      0.484853    89A      0.486906    90A      0.505431  
	  91A      0.507938    92A      0.515088    93A      0.531868  
	  94A      0.542656    95A      0.553476    96A      0.559867  
	  97A      0.569673    98A      0.578089    99A      0.584712  
	 100A      0.593279   101A      0.594656   102A      0.599895  
	 103A      0.605954   104A      0.610743   105A      0.619072  
	 106A      0.630807   107A      0.638032   108A      0.644724  
	 109A      0.653643   110A      0.663167   111A      0.668233  
	 112A      0.676284   113A      0.686940   114A      0.698923  
	 115A      0.701142   116A      0.703274   117A      0.708350  
	 118A      0.712046   119A      0.724428   120A      0.742498  
	 121A      0.763071   122A      0.765868   123A      0.777900  
	 124A      0.783385   125A      0.793883   126A      0.801388  
	 127A      0.812811   128A      0.815698   129A      0.831038  
	 130A      0.833297   131A      0.846067   132A      0.857002  
	 133A      0.858839   134A      0.860682   135A      0.866295  
	 136A      0.876744   137A      0.880523   138A      0.903076  
	 139A      0.909199   140A      0.916039   141A      0.930227  
	 142A      0.941581   143A      0.954125   144A      0.963291  
	 145A      0.967732   146A      0.972033   147A      0.975092  
	 148A      0.989282   149A      0.997567   150A      1.003586  
	 151A      1.020121   152A      1.040649   153A      1.060865  
	 154A      1.080015   155A      1.090650   156A      1.092022  
	 157A      1.108610   158A      1.122738   159A      1.133387  
	 160A      1.186469   161A      1.199258   162A      1.205875  
	 163A      1.253674   164A      1.269012   165A      1.274887  
	 166A      1.304099   167A      1.340169   168A      1.360302  
	 169A      1.364538   170A      1.389842   171A      1.418258  
	 172A      1.436692   173A      1.452373   174A      1.483052  
	 175A      1.511345   176A      1.521650   177A      1.551376  
	 178A      1.552857   179A      1.583442   180A      1.590821  
	 181A      1.600597   182A      1.642358   183A      1.651207  
	 184A      1.661519   185A      1.673274   186A      1.681672  
	 187A      1.689095   188A      1.735911   189A      1.743815  
	 190A      1.752101   191A      1.767465   192A      1.778796  
	 193A      1.809519   194A      1.815072   195A      1.834834  
	 196A      1.888117   197A      1.917098   198A      1.933196  
	 199A      1.936601   200A      1.970180   201A      1.973241  
	 202A      1.975836   203A      1.980202   204A      1.985939  
	 205A      2.001807   206A      2.019483   207A      2.063036  
	 208A      2.082371   209A      2.126469   210A      2.128083  
	 211A      2.157242   212A      2.170075   213A      2.193900  
	 214A      2.214586   215A      2.225876   216A      2.231542  
	 217A      2.244044   218A      2.248743   219A      2.286208  
	 220A      2.288135   221A      2.297914   222A      2.309171  
	 223A      2.322980   224A      2.339058   225A      2.350304  
	 226A      2.371057   227A      2.383067   228A      2.387676  
	 229A      2.418881   230A      2.425300   231A      2.441316  
	 232A      2.469011   233A      2.485450   234A      2.495991  
	 235A      2.540924   236A      2.560561   237A      2.582345  
	 238A      2.625527   239A      2.661006   240A      2.693382  
	 241A      2.698807   242A      2.721917   243A      2.754458  
	 244A      2.809230   245A      2.821800   246A      2.830780  
	 247A      2.847192   248A      2.862160   249A      2.897433  
	 250A      2.971615   251A      2.987754   252A      2.991521  
	 253A      2.995751   254A      3.048729   255A      3.066851  
	 256A      3.129219   257A      3.162542   258A      3.180345  
	 259A      3.184113   260A      3.206179   261A      3.358562  
	 262A      3.383983   263A      3.390968   264A      3.438875  
	 265A      3.502064   266A      3.582643   267A      3.588820  
	 268A      3.693749   269A      3.835040   270A      3.898038  
	 271A      3.911879   272A      3.943586   273A      4.179158  
	 274A      4.481965   275A      4.864561   276A      4.974069  
	 277A      5.058991   278A      5.156838   279A      5.189414  
	 280A      5.808150   281A      6.146311   282A     18.544090  
	 283A     25.415536  

	Final Occupation by Irrep:
	          A 
	DOCC [    21 ]

  Energy converged.

  @RHF Final Energy:  -230.72931518208944

   => Energetics <=

    Nuclear Repulsion Energy =            203.6585946393321649
    One-Electron Energy =                -713.5799258055299106
    Two-Electron Energy =                 279.1920159841075133
    DFT Exchange-Correlation Energy =       0.0000000000000000
    Empirical Dispersion Energy =           0.0000000000000000
    Total Energy =                       -230.7293151820902608



Properties will be evaluated at   0.000000,   0.000000,   0.000000 Bohr
  ==> Properties <==


Properties computed using the SCF density density matrix
  Nuclear Dipole Moment: (a.u.)
     X:     7.2824      Y:     6.7400      Z:   -74.1893

  Electronic Dipole Moment: (a.u.)
     X:    -7.2819      Y:    -6.7403      Z:    74.1925

  Dipole Moment: (a.u.)
     X:     0.0005      Y:    -0.0003      Z:     0.0032     Total:     0.0033

  Dipole Moment: (Debye)
     X:     0.0013      Y:    -0.0008      Z:     0.0082     Total:     0.0083


  Saving occupied orbitals to File 180.

  Saving SAPT 2-MONOMER_A file.

*** tstop() called on node144.bme.utexas.edu at Thu Sep 19 09:50:15 2013
Module time:
	user time   =      90.20 seconds =       1.50 minutes
	system time =       0.89 seconds =       0.01 minutes
	total time  =         25 seconds =       0.42 minutes
Total time:
	user time   =     238.21 seconds =       3.97 minutes
	system time =       2.32 seconds =       0.04 minutes
	total time  =         65 seconds =       1.08 minutes

  //>>>>>>>>>>>>>>>>>>>>>>>>>>>>>>>>>>>//
  //            Monomer B HF           //
  //<<<<<<<<<<<<<<<<<<<<<<<<<<<<<<<<<<<//


  No DF_BASIS_SCF auxiliary basis selected, defaulting to aug-cc-pvdz-jkfit


*** tstart() called on node144.bme.utexas.edu
*** at Thu Sep 19 09:50:15 2013


         ---------------------------------------------------------
                                   SCF
            by Justin Turney, Rob Parrish, and Andy Simmonett
                              RHF Reference
                        4 Threads,   3000 MiB Core
         ---------------------------------------------------------

  ==> Geometry <==

    Molecular point group: c1
    Full point group: C1

    Geometry (in Angstrom), charge = 0, multiplicity = 1:

       Center              X                  Y                   Z       
    ------------   -----------------  -----------------  -----------------
           C(Gh)      0.851690139893     1.249867636342    -1.028380426085
           H(Gh)      1.441323709893     2.153522376342    -1.100705883085
           C(Gh)      1.477562124893     0.004705517342    -1.066325594085
           H(Gh)      2.552518277893    -0.057900761658    -1.164814855085
           C(Gh)      0.717393318893    -1.160374852658    -0.971821804085
           H(Gh)      1.203294129893    -2.125998205658    -0.995606246085
           C(Gh)     -0.668177455107    -1.079846272658    -0.841536652085
           H(Gh)     -1.257326044107    -1.983675924658    -0.767882395085
           C(Gh)     -1.294036477107     0.165247045342    -0.804840595085
           H(Gh)     -2.368857640107     0.227278312342    -0.703379130085
           C(Gh)     -0.534086037107     1.329976680342    -0.896992597085
           H(Gh)     -1.019360432107     2.295985486342    -0.867494822085
           N          0.461559474893    -0.036044329658     2.229462395915
           H          0.596177831893     0.007996172342     1.226391038915
           H          0.603052045893     0.909102406342     2.561934672915
           C         -0.914540000107    -0.442427738658     2.506898187915
           H         -1.072416566107    -0.470974745658     3.583453723915
           H         -1.685842187107     0.197953050342     2.066779189915
           H         -1.069231981107    -1.451995540658     2.131276487915

  Running in c1 symmetry.

  Nuclear repulsion =   42.107253189955344

  Charge       = 0
  Multiplicity = 1
  Electrons    = 18
  Nalpha       = 9
  Nbeta        = 9

  ==> Algorithm <==

  SCF Algorithm Type is DF.
  DIIS enabled.
  MOM disabled.
  Fractional occupation disabled.
  Guess Type is CORE.
  Energy threshold   = 1.00e-08
  Density threshold  = 1.00e-08
  Integral threshold = 0.00e+00

  ==> Primary Basis <==

  Basis Set: AUG-CC-PVDZ
    Number of shells: 127
    Number of basis function: 283
    Number of Cartesian functions: 299
    Spherical Harmonics?: true
    Max angular momentum: 2

  ==> Pre-Iterations <==

   -------------------------------------------------------
    Irrep   Nso     Nmo     Nalpha   Nbeta   Ndocc  Nsocc
   -------------------------------------------------------
     A        283     283       0       0       0       0
   -------------------------------------------------------
    Total     283     283       9       9       9       0
   -------------------------------------------------------

 OEINTS: Wrapper to libmints.
   by Justin Turney

   Calculation information:
      Number of atoms:                  19
      Number of AO shells:             127
      Number of SO shells:             127
      Number of primitives:            277
      Number of atomic orbitals:       299
      Number of basis functions:       283

      Number of irreps:                  1
      Number of functions per irrep: [ 283 ]

      Overlap, kinetic, potential, dipole, and quadrupole integrals
        stored in file 35.

  ==> Integral Setup <==

  ==> DFJK: Density-Fitted J/K Matrices <==

    J tasked:                  Yes
    K tasked:                  Yes
    wK tasked:                  No
    OpenMP threads:              4
    Integrals threads:           4
    Memory (MB):              2145
    Algorithm:                Core
    Integral Cache:           LOAD
    Schwarz Cutoff:          0E+00
    Fitting Condition:       1E-12

   => Auxiliary Basis Set <=

  Basis Set: aug-cc-pvdz-jkfit
    Number of shells: 356
    Number of basis function: 1040
    Number of Cartesian functions: 1193
    Spherical Harmonics?: true
    Max angular momentum: 3

  Minimum eigenvalue in the overlap matrix is 2.3293045440E-06.
  Using Symmetric Orthogonalization.
  SCF Guess: Core (One-Electron) Hamiltonian.

  Guess energy:   -74.73503743572459

  ==> Iterations <==

                        Total Energy        Delta E     RMS |[F,P]|

   @RHF iter   1:   -78.58169667080907   -7.85817e+01   1.54383e-02 
   @RHF iter   2:   -72.71596308379424    5.86573e+00   9.74336e-03 DIIS
   @RHF iter   3:   -91.81893562791552   -1.91030e+01   9.24224e-03 DIIS
   @RHF iter   4:   -93.75249021463927   -1.93355e+00   5.98998e-03 DIIS
   @RHF iter   5:   -94.88837677641791   -1.13589e+00   2.85491e-03 DIIS
   @RHF iter   6:   -95.21954137961117   -3.31165e-01   4.61206e-04 DIIS
   @RHF iter   7:   -95.23011881050667   -1.05774e-02   1.13213e-04 DIIS
   @RHF iter   8:   -95.23094975670026   -8.30946e-04   1.42653e-05 DIIS
   @RHF iter   9:   -95.23097252714783   -2.27704e-05   3.67780e-06 DIIS
   @RHF iter  10:   -95.23097429073405   -1.76359e-06   1.10720e-06 DIIS
   @RHF iter  11:   -95.23097443625088   -1.45517e-07   1.98786e-07 DIIS
   @RHF iter  12:   -95.23097444116502   -4.91414e-09   4.19696e-08 DIIS
   @RHF iter  13:   -95.23097444139660   -2.31580e-10   1.09517e-08 DIIS
   @RHF iter  14:   -95.23097444141817   -2.15721e-11   2.31362e-09 DIIS

  ==> Post-Iterations <==

	Orbital Energies (a.u.)
	-----------------------

	Doubly Occupied:                                                      

	   1A    -15.549036     2A    -11.247429     3A     -1.174196  
	   4A     -0.896772     5A     -0.662173     6A     -0.604448  
	   7A     -0.555034     8A     -0.515640     9A     -0.393365  

	Virtual:                                                              

	  10A      0.021125    11A      0.035971    12A      0.037267  
	  13A      0.046112    14A      0.056584    15A      0.056834  
	  16A      0.064380    17A      0.072085    18A      0.074795  
	  19A      0.077197    20A      0.082407    21A      0.107507  
	  22A      0.111904    23A      0.112545    24A      0.117789  
	  25A      0.126755    26A      0.133170    27A      0.142341  
	  28A      0.144849    29A      0.145049    30A      0.150050  
	  31A      0.168724    32A      0.174422    33A      0.175613  
	  34A      0.180942    35A      0.182731    36A      0.183191  
	  37A      0.187101    38A      0.189871    39A      0.191009  
	  40A      0.198915    41A      0.205977    42A      0.212554  
	  43A      0.223605    44A      0.232502    45A      0.233299  
	  46A      0.245505    47A      0.261550    48A      0.269304  
	  49A      0.281471    50A      0.285134    51A      0.289263  
	  52A      0.316153    53A      0.321624    54A      0.327842  
	  55A      0.336126    56A      0.345732    57A      0.356888  
	  58A      0.366167    59A      0.368903    60A      0.376376  
	  61A      0.378415    62A      0.386859    63A      0.405582  
	  64A      0.408249    65A      0.427677    66A      0.431756  
	  67A      0.437550    68A      0.441817    69A      0.450837  
	  70A      0.457700    71A      0.463689    72A      0.471166  
	  73A      0.474283    74A      0.475204    75A      0.482771  
	  76A      0.488845    77A      0.491004    78A      0.511701  
	  79A      0.518632    80A      0.527690    81A      0.530925  
	  82A      0.533703    83A      0.541213    84A      0.549472  
	  85A      0.554476    86A      0.561901    87A      0.575785  
	  88A      0.593275    89A      0.596816    90A      0.609911  
	  91A      0.618304    92A      0.623617    93A      0.629545  
	  94A      0.633235    95A      0.648833    96A      0.656864  
	  97A      0.660133    98A      0.661928    99A      0.671384  
	 100A      0.679853   101A      0.700931   102A      0.703776  
	 103A      0.714559   104A      0.723806   105A      0.743862  
	 106A      0.745632   107A      0.751527   108A      0.773031  
	 109A      0.775019   110A      0.787718   111A      0.794045  
	 112A      0.799159   113A      0.817524   114A      0.824588  
	 115A      0.832968   116A      0.847783   117A      0.852769  
	 118A      0.861034   119A      0.870952   120A      0.874385  
	 121A      0.878308   122A      0.889403   123A      0.891836  
	 124A      0.899908   125A      0.903492   126A      0.911920  
	 127A      0.915390   128A      0.929552   129A      0.938552  
	 130A      0.945046   131A      0.983447   132A      0.991040  
	 133A      1.004167   134A      1.013694   135A      1.026188  
	 136A      1.026968   137A      1.039545   138A      1.051096  
	 139A      1.057736   140A      1.060732   141A      1.068265  
	 142A      1.117147   143A      1.118192   144A      1.120957  
	 145A      1.125446   146A      1.135938   147A      1.147688  
	 148A      1.161084   149A      1.193450   150A      1.200444  
	 151A      1.226014   152A      1.235477   153A      1.258750  
	 154A      1.266172   155A      1.274362   156A      1.330401  
	 157A      1.381094   158A      1.398691   159A      1.400656  
	 160A      1.413325   161A      1.465393   162A      1.481523  
	 163A      1.485146   164A      1.494900   165A      1.507320  
	 166A      1.546064   167A      1.662857   168A      1.671372  
	 169A      1.695290   170A      1.777771   171A      1.797856  
	 172A      1.810168   173A      1.940937   174A      1.952331  
	 175A      1.975994   176A      1.979364   177A      2.072112  
	 178A      2.092305   179A      2.112442   180A      2.133621  
	 181A      2.140375   182A      2.153542   183A      2.162057  
	 184A      2.171774   185A      2.194222   186A      2.201698  
	 187A      2.220807   188A      2.241535   189A      2.247145  
	 190A      2.253882   191A      2.264490   192A      2.269679  
	 193A      2.290534   194A      2.308613   195A      2.318875  
	 196A      2.327125   197A      2.343991   198A      2.348700  
	 199A      2.361124   200A      2.401863   201A      2.410141  
	 202A      2.423136   203A      2.434693   204A      2.463619  
	 205A      2.477733   206A      2.482888   207A      2.510182  
	 208A      2.516678   209A      2.543455   210A      2.553338  
	 211A      2.560854   212A      2.563574   213A      2.589033  
	 214A      2.609431   215A      2.612374   216A      2.619092  
	 217A      2.644231   218A      2.648868   219A      2.654805  
	 220A      2.660617   221A      2.694565   222A      2.709358  
	 223A      2.718385   224A      2.733903   225A      2.748076  
	 226A      2.762911   227A      2.811998   228A      2.860555  
	 229A      2.868070   230A      2.876214   231A      2.885774  
	 232A      2.887594   233A      2.893782   234A      2.929383  
	 235A      2.952608   236A      2.957473   237A      2.964378  
	 238A      2.991951   239A      3.022901   240A      3.079168  
	 241A      3.106327   242A      3.140000   243A      3.192383  
	 244A      3.206413   245A      3.255927   246A      3.332588  
	 247A      3.405846   248A      3.428988   249A      3.442684  
	 250A      3.453065   251A      3.470504   252A      3.473143  
	 253A      3.502930   254A      3.535806   255A      3.559159  
	 256A      3.606363   257A      3.642449   258A      3.707210  
	 259A      3.721671   260A      3.916169   261A      3.963933  
	 262A      3.986739   263A      4.003043   264A      4.044269  
	 265A      4.104709   266A      4.405811   267A      4.445200  
	 268A      4.679032   269A      4.859439   270A      4.866502  
	 271A      5.318727   272A      5.451631   273A      5.452366  
	 274A      5.469849   275A      5.470604   276A      5.641977  
	 277A      6.099134   278A     18.011691   279A     18.405232  
	 280A     18.410971   281A     19.007412   282A     19.013568  
	 283A     20.700406  

	Final Occupation by Irrep:
	          A 
	DOCC [     9 ]

  Energy converged.

  @RHF Final Energy:   -95.23097444141817

   => Energetics <=

    Nuclear Repulsion Energy =             42.1072531899553439
    One-Electron Energy =                -211.4802698896488096
    Two-Electron Energy =                  74.1420422582752110
    DFT Exchange-Correlation Energy =       0.0000000000000000
    Empirical Dispersion Energy =           0.0000000000000000
    Total Energy =                        -95.2309744414182546



Properties will be evaluated at   0.000000,   0.000000,   0.000000 Bohr
  ==> Properties <==


Properties computed using the SCF density density matrix
  Nuclear Dipole Moment: (a.u.)
     X:    -9.2305      Y:    -7.0199      Z:    79.7794

  Electronic Dipole Moment: (a.u.)
     X:     8.8731      Y:     7.3955      Z:   -80.0327

  Dipole Moment: (a.u.)
     X:    -0.3574      Y:     0.3756      Z:    -0.2532     Total:     0.5770

  Dipole Moment: (Debye)
     X:    -0.9085      Y:     0.9547      Z:    -0.6436     Total:     1.4666


  Saving occupied orbitals to File 180.

  Saving SAPT 2-MONOMER_B file.

*** tstop() called on node144.bme.utexas.edu at Thu Sep 19 09:50:37 2013
Module time:
	user time   =      82.53 seconds =       1.38 minutes
	system time =       0.79 seconds =       0.01 minutes
	total time  =         22 seconds =       0.37 minutes
Total time:
	user time   =     320.76 seconds =       5.35 minutes
	system time =       3.11 seconds =       0.05 minutes
	total time  =         87 seconds =       1.45 minutes
  No DF_BASIS_SAPT auxiliary basis selected, defaulting to aug-cc-pvdz-ri

  //>>>>>>>>>>>>>>>>>>>>>>>>>>>>>>>>>>>//
  //               SAPT2+              //
  //<<<<<<<<<<<<<<<<<<<<<<<<<<<<<<<<<<<//


*** tstart() called on node144.bme.utexas.edu
*** at Thu Sep 19 09:50:37 2013

        SAPT2+  
    Ed Hohenstein
     6 June 2009

      Orbital Information
  --------------------------
    NSO        =       283
    NMO        =       283
    NRI        =       829
    NOCC A     =        21
    NOCC B     =         9
    FOCC A     =         6
    FOCC B     =         2
    NVIR A     =       262
    NVIR B     =       274

    Estimated memory usage: 1292.5 MB

    Elst10,r            =    -0.007391603237 H
    Exch10 (S^2)        =     0.016340436859 H
    Exch10              =     0.016414546314 H
    Ind20,r (A<-B)      =    -0.003162540009 H
    Ind20,r (B<-A)      =    -0.001928696074 H
    Ind20,r             =    -0.005091236083 H
    Exch-Ind20,r (A<-B) =     0.002456164623 H
    Exch-Ind20,r (B<-A) =     0.001746493590 H
    Exch-Ind20,r        =     0.004202658212 H
    Disp20              =    -0.013540984040 H
    Exch-Disp20         =     0.001861505505 H
    Elst12,r            =    -0.000302884214 H
    Exch11              =     0.000446455660 H
    Exch12              =     0.001017076208 H
    Ind22               =    -0.000597998499 H
    Disp21              =     0.002522057235 H
    Disp22 (SDQ)        =     0.000294067315 H

    (i =   1 of   7)        479 seconds
    (i =   2 of   7)        957 seconds
    (i =   3 of   7)       1436 seconds
    (i =   4 of   7)       1914 seconds
    (i =   5 of   7)       2393 seconds
    (i =   6 of   7)       2871 seconds
    (i =   7 of   7)       3350 seconds

    Disp220 (T)         =    -0.001259104306 H

    (i =   1 of  15)        142 seconds
    (i =   2 of  15)        284 seconds
    (i =   3 of  15)        427 seconds
    (i =   4 of  15)        569 seconds
    (i =   5 of  15)        711 seconds
    (i =   6 of  15)        854 seconds
    (i =   7 of  15)        996 seconds
    (i =   8 of  15)       1138 seconds
    (i =   9 of  15)       1280 seconds
    (i =  10 of  15)       1423 seconds
    (i =  11 of  15)       1565 seconds
    (i =  12 of  15)       1708 seconds
    (i =  13 of  15)       1850 seconds
    (i =  14 of  15)       1992 seconds
    (i =  15 of  15)       2135 seconds

    Disp202 (T)         =    -0.001037374668 H

    Disp22 (T)          =    -0.002296478975 H

    SAPT Results  
  -----------------------------------------------------------------------
    Electrostatics          -7.69448745 mH      -4.82836397 kcal mol^-1
      Elst10,r              -7.39160324 mH      -4.63830125 kcal mol^-1
      Elst12,r              -0.30288421 mH      -0.19006272 kcal mol^-1

    Exchange                17.87807818 mH      11.21866390 kcal mol^-1
      Exch10                16.41454631 mH      10.30028375 kcal mol^-1
      Exch10(S^2)           16.34043686 mH      10.25377936 kcal mol^-1
      Exch11(S^2)            0.44645566 mH       0.28015517 kcal mol^-1
      Exch12(S^2)            1.01707621 mH       0.63822498 kcal mol^-1

    Induction               -2.38194486 mH      -1.49469303 kcal mol^-1
      Ind20,r               -5.09123608 mH      -3.19479901 kcal mol^-1
      Ind22                 -0.59799850 mH      -0.37524974 kcal mol^-1
      Exch-Ind20,r           4.20265821 mH       2.63720795 kcal mol^-1
      Exch-Ind22             0.49362930 mH       0.30975707 kcal mol^-1
      delta HF,r (2)        -1.38899779 mH      -0.87160931 kcal mol^-1

    Dispersion             -11.15983296 mH      -7.00290120 kcal mol^-1
      Disp20               -13.54098404 mH      -8.49709612 kcal mol^-1
      Disp21                 2.52205723 mH       1.58261487 kcal mol^-1
      Disp22 (SDQ)           0.29406731 mH       0.18453003 kcal mol^-1
      Disp22 (T)            -2.29647897 mH      -1.44106237 kcal mol^-1
      Exch-Disp20            1.86150551 mH       1.16811239 kcal mol^-1

    Total HF                 6.74536742 mH       4.23278213 kcal mol^-1
    Total SAPT0             -4.93411112 mH      -3.09620160 kcal mol^-1
    Total SAPT2             -3.87783266 mH      -2.43337684 kcal mol^-1
    Total SAPT2+            -3.35818709 mH      -2.10729430 kcal mol^-1

*** tstop() called on node144.bme.utexas.edu at Thu Sep 19 11:36:27 2013
Module time:
	user time   =   23411.18 seconds =     390.19 minutes
	system time =      92.55 seconds =       1.54 minutes
	total time  =       6350 seconds =     105.83 minutes
Total time:
	user time   =   23731.94 seconds =     395.53 minutes
	system time =      95.66 seconds =       1.59 minutes
	total time  =       6437 seconds =     107.28 minutes

*** PSI4 exiting successfully. Buy a developer a beer!
