    -----------------------------------------------------------------------
          PSI4: An Open-Source Ab Initio Electronic Structure Package
                              PSI 4.0.0-beta4 Driver

    J. M. Turney, A. C. Simmonett, R. M. Parrish, E. G. Hohenstein,
    F. A. Evangelista, J. T. Fermann, B. J. Mintz, L. A. Burns, J. J. Wilke,
    M. L. Abrams, N. J. Russ, M. L. Leininger, C. L. Janssen, E. T. Seidl,
    W. D. Allen, H. F. Schaefer, R. A. King, E. F. Valeev, C. D. Sherrill,
    and T. D. Crawford, WIREs Comput. Mol. Sci., (2011) (doi: 10.1002/wcms.93)

                         Additional Contributions by
    A. E. DePrince, M. Saitow, U. Bozkaya, A. Yu. Sokolov
    -----------------------------------------------------------------------

    Process ID:   8595
    PSI4DATADIR: /home/xzhu216/psi4/psi4-install/share/psi

    Using LocalCommunicator (Number of processes = 1)

    Memory level set to 256.000 MB

  ==> Input File <==

--------------------------------------------------------------------------
#psi4
#
memory 3 gb

molecule Benzene_Peptide {
0 1
C    0.408779894   1.051025017   0.375536055
H    1.011938752   1.948545699   0.368077879
C    1.019167880  -0.199769627   0.289053431
H    2.095571302  -0.271833326   0.217190985
C    0.241722635  -1.356882700   0.296689948
H    0.715216333  -2.326588694   0.228072177
C   -1.146179707  -1.264257568   0.393901978
H   -1.749181865  -2.161926634   0.399409796
C   -1.757277805  -0.013960230   0.482951731
H   -2.833513775   0.058243677   0.559039176
C   -0.979686023   1.144206527   0.472283704
H   -1.454051418   2.114000878   0.537135888
--
0 1
C    0.242455290   1.949411634   4.085880060
H   -0.115689809   2.115142477   3.072587290
H    1.267038851   2.306121200   4.167321569
H   -0.361641583   2.523047463   4.784232779
C    0.205608956   0.496248522   4.501588887
O    0.490237361   0.143887105   5.640126950
N   -0.166786314  -0.369468222   3.522347795
H   -0.327914214  -0.011477481   2.596279455
C   -0.203579187  -1.796347451   3.740434855
H   -0.125491617  -1.963254987   4.810431086
H   -1.138819723  -2.214698027   3.373696743
H    0.625547290  -2.300220215   3.243097423
units angstrom
no_reorient  #important for SAPT in psi4, default
symmetry c1  #important for SAPT in psi4, default
}

set {
basis aug-cc-pVDZ
scf_type DF
freeze_core True
}
energy('sapt2+')
--------------------------------------------------------------------------

  Memory set to   3.000 GiB by Python script.

  //>>>>>>>>>>>>>>>>>>>>>>>>>>>>>>>>>>>//
  //              Dimer HF             //
  //<<<<<<<<<<<<<<<<<<<<<<<<<<<<<<<<<<<//


  No DF_BASIS_SCF auxiliary basis selected, defaulting to aug-cc-pvdz-jkfit


*** tstart() called on node119.bme.utexas.edu
*** at Thu Sep 19 14:29:53 2013


         ---------------------------------------------------------
                                   SCF
            by Justin Turney, Rob Parrish, and Andy Simmonett
                              RHF Reference
                        4 Threads,   3000 MiB Core
         ---------------------------------------------------------

  ==> Geometry <==

    Molecular point group: c1
    Full point group: C1

    Geometry (in Angstrom), charge = 0, multiplicity = 1:

       Center              X                  Y                   Z       
    ------------   -----------------  -----------------  -----------------
           C          0.544662177833     1.070498807728    -1.899619521271
           H          1.147821035833     1.968019489728    -1.907077697271
           C          1.155050163833    -0.180295836272    -1.986102145271
           H          2.231453585833    -0.252359535272    -2.057964591271
           C          0.377604918833    -1.337408909272    -1.978465628271
           H          0.851098616833    -2.307114903272    -2.047083399271
           C         -1.010297423167    -1.244783777272    -1.881253598271
           H         -1.613299581167    -2.142452843272    -1.875745780271
           C         -1.621395521167     0.005513560728    -1.792203845271
           H         -2.697631491167     0.077717467728    -1.716116400271
           C         -0.843803739167     1.163680317728    -1.802871872271
           H         -1.318169134167     2.133474668728    -1.738019688271
           C          0.378337573833     1.968885424728     1.810724483729
           H          0.020192474833     2.134616267728     0.797431713729
           H          1.402921134833     2.325594990728     1.892165992729
           H         -0.225759299167     2.542521253728     2.509077202729
           C          0.341491239833     0.515722312728     2.226433310729
           O          0.626119644833     0.163360895728     3.364971373729
           N         -0.030904030167    -0.349994431272     1.247192218729
           H         -0.192031930167     0.007996309728     0.321123878729
           C         -0.067696903167    -1.776873660272     1.465279278729
           H          0.010390666833    -1.943781196272     2.535275509729
           H         -1.002937439167    -2.195224236272     1.098541166729
           H          0.761429573833    -2.280746424272     0.967941846729

  Running in c1 symmetry.

  Nuclear repulsion =  592.249289915350232

  Charge       = 0
  Multiplicity = 1
  Electrons    = 82
  Nalpha       = 41
  Nbeta        = 41

  ==> Algorithm <==

  SCF Algorithm Type is DF.
  DIIS enabled.
  MOM disabled.
  Fractional occupation disabled.
  Guess Type is CORE.
  Energy threshold   = 1.00e-08
  Density threshold  = 1.00e-08
  Integral threshold = 0.00e+00

  ==> Primary Basis <==

  Basis Set: AUG-CC-PVDZ
    Number of shells: 164
    Number of basis function: 370
    Number of Cartesian functions: 392
    Spherical Harmonics?: true
    Max angular momentum: 2

  ==> Pre-Iterations <==

   -------------------------------------------------------
    Irrep   Nso     Nmo     Nalpha   Nbeta   Ndocc  Nsocc
   -------------------------------------------------------
     A        370     370       0       0       0       0
   -------------------------------------------------------
    Total     370     370      41      41      41       0
   -------------------------------------------------------

 OEINTS: Wrapper to libmints.
   by Justin Turney

   Calculation information:
      Number of atoms:                  24
      Number of AO shells:             164
      Number of SO shells:             164
      Number of primitives:            366
      Number of atomic orbitals:       392
      Number of basis functions:       370

      Number of irreps:                  1
      Number of functions per irrep: [ 370 ]

      Overlap, kinetic, potential, dipole, and quadrupole integrals
        stored in file 35.

  ==> Integral Setup <==

  ==> DFJK: Density-Fitted J/K Matrices <==

    J tasked:                  Yes
    K tasked:                  Yes
    wK tasked:                  No
    OpenMP threads:              4
    Integrals threads:           4
    Memory (MB):              2145
    Algorithm:                Core
    Integral Cache:           SAVE
    Schwarz Cutoff:          0E+00
    Fitting Condition:       1E-12

   => Auxiliary Basis Set <=

  Basis Set: aug-cc-pvdz-jkfit
    Number of shells: 464
    Number of basis function: 1362
    Number of Cartesian functions: 1566
    Spherical Harmonics?: true
    Max angular momentum: 3

  Minimum eigenvalue in the overlap matrix is 2.1800591130E-06.
  Using Symmetric Orthogonalization.
  SCF Guess: Core (One-Electron) Hamiltonian.

  Guess energy:  -382.30276944458569

  ==> Iterations <==

                        Total Energy        Delta E     RMS |[F,P]|

   @RHF iter   1:  -380.82995084956940   -3.80830e+02   2.52741e-02 
   @RHF iter   2:  -274.80628981195832    1.06024e+02   2.60615e-02 DIIS
   @RHF iter   3:  -344.16580176534478   -6.93595e+01   2.21091e-02 DIIS
   @RHF iter   4:  -292.56358958056740    5.16022e+01   3.35964e-02 DIIS
   @RHF iter   5:  -462.44346441496498   -1.69880e+02   1.19606e-02 DIIS
   @RHF iter   6:  -476.06060196149531   -1.36171e+01   4.67777e-03 DIIS
   @RHF iter   7:  -477.51736537709633   -1.45676e+00   1.88997e-03 DIIS
   @RHF iter   8:  -477.74162527930400   -2.24260e-01   5.28592e-04 DIIS
   @RHF iter   9:  -477.76304499461787   -2.14197e-02   1.96256e-04 DIIS
   @RHF iter  10:  -477.76704278134991   -3.99779e-03   5.49896e-05 DIIS
   @RHF iter  11:  -477.76746653584939   -4.23754e-04   2.55794e-05 DIIS
   @RHF iter  12:  -477.76758359962480   -1.17064e-04   1.13011e-05 DIIS
   @RHF iter  13:  -477.76761360242256   -3.00028e-05   4.53955e-06 DIIS
   @RHF iter  14:  -477.76761788681199   -4.28439e-06   1.98886e-06 DIIS
   @RHF iter  15:  -477.76761894539925   -1.05859e-06   7.97724e-07 DIIS
   @RHF iter  16:  -477.76761917807687   -2.32678e-07   3.31505e-07 DIIS
   @RHF iter  17:  -477.76761921258765   -3.45108e-08   1.31078e-07 DIIS
   @RHF iter  18:  -477.76761921757964   -4.99199e-09   5.64495e-08 DIIS
   @RHF iter  19:  -477.76761921844525   -8.65612e-10   2.17742e-08 DIIS
   @RHF iter  20:  -477.76761921855507   -1.09821e-10   8.02279e-09 DIIS

  ==> Post-Iterations <==

	Orbital Energies (a.u.)
	-----------------------

	Doubly Occupied:                                                      

	   1A    -20.508559     2A    -15.575127     3A    -11.342499  
	   4A    -11.261974     5A    -11.261213     6A    -11.260832  
	   7A    -11.260077     8A    -11.259693     9A    -11.258916  
	  10A    -11.250832    11A    -11.230598    12A     -1.365252  
	  13A     -1.218989    14A     -1.173643    15A     -1.037519  
	  16A     -1.036860    17A     -1.008162    18A     -0.921180  
	  19A     -0.844770    20A     -0.844659    21A     -0.777872  
	  22A     -0.729391    23A     -0.679481    24A     -0.663135  
	  25A     -0.641067    26A     -0.638441    27A     -0.620646  
	  28A     -0.607623    29A     -0.607251    30A     -0.575558  
	  31A     -0.572248    32A     -0.543041    33A     -0.535122  
	  34A     -0.515574    35A     -0.513227    36A     -0.512989  
	  37A     -0.491975    38A     -0.407621    39A     -0.378467  
	  40A     -0.357387    41A     -0.354553  

	Virtual:                                                              

	  42A      0.027705    43A      0.035398    44A      0.036159  
	  45A      0.050758    46A      0.051184    47A      0.051864  
	  48A      0.059855    49A      0.066837    50A      0.071305  
	  51A      0.076310    52A      0.078986    53A      0.085993  
	  54A      0.090786    55A      0.097040    56A      0.107567  
	  57A      0.116947    58A      0.123187    59A      0.135269  
	  60A      0.138457    61A      0.140765    62A      0.141364  
	  63A      0.144279    64A      0.145012    65A      0.148219  
	  66A      0.156218    67A      0.158883    68A      0.161479  
	  69A      0.171096    70A      0.173713    71A      0.177613  
	  72A      0.179178    73A      0.182025    74A      0.183234  
	  75A      0.186244    76A      0.192225    77A      0.196618  
	  78A      0.198137    79A      0.203311    80A      0.210401  
	  81A      0.215975    82A      0.218079    83A      0.222289  
	  84A      0.229893    85A      0.231189    86A      0.242621  
	  87A      0.259415    88A      0.260626    89A      0.269113  
	  90A      0.278320    91A      0.293956    92A      0.296776  
	  93A      0.310425    94A      0.312424    95A      0.314374  
	  96A      0.324118    97A      0.326357    98A      0.333976  
	  99A      0.343754   100A      0.348309   101A      0.350093  
	 102A      0.353984   103A      0.361388   104A      0.364537  
	 105A      0.366549   106A      0.371124   107A      0.380584  
	 108A      0.388126   109A      0.390311   110A      0.397927  
	 111A      0.406101   112A      0.414858   113A      0.417376  
	 114A      0.422904   115A      0.423572   116A      0.429366  
	 117A      0.431073   118A      0.440474   119A      0.444330  
	 120A      0.447314   121A      0.457283   122A      0.461080  
	 123A      0.469090   124A      0.472438   125A      0.475906  
	 126A      0.480812   127A      0.485554   128A      0.490057  
	 129A      0.491063   130A      0.498309   131A      0.504674  
	 132A      0.521368   133A      0.535475   134A      0.542195  
	 135A      0.545494   136A      0.559478   137A      0.566814  
	 138A      0.567856   139A      0.574764   140A      0.582905  
	 141A      0.591869   142A      0.596235   143A      0.605837  
	 144A      0.608873   145A      0.611088   146A      0.617500  
	 147A      0.617683   148A      0.624580   149A      0.630052  
	 150A      0.635466   151A      0.637340   152A      0.649721  
	 153A      0.653687   154A      0.656488   155A      0.678024  
	 156A      0.679000   157A      0.682173   158A      0.685631  
	 159A      0.694029   160A      0.698588   161A      0.703212  
	 162A      0.715182   163A      0.718328   164A      0.723355  
	 165A      0.728997   166A      0.739144   167A      0.744101  
	 168A      0.749132   169A      0.754955   170A      0.759937  
	 171A      0.769145   172A      0.771702   173A      0.780008  
	 174A      0.791082   175A      0.796895   176A      0.803464  
	 177A      0.807538   178A      0.812301   179A      0.827252  
	 180A      0.830429   181A      0.840050   182A      0.842010  
	 183A      0.844176   184A      0.847183   185A      0.848831  
	 186A      0.858631   187A      0.864308   188A      0.886514  
	 189A      0.887813   190A      0.897284   191A      0.908065  
	 192A      0.913924   193A      0.925589   194A      0.936810  
	 195A      0.948580   196A      0.952374   197A      0.957723  
	 198A      0.964577   199A      0.980112   200A      0.982503  
	 201A      0.993969   202A      1.001448   203A      1.010036  
	 204A      1.026710   205A      1.028810   206A      1.030771  
	 207A      1.047319   208A      1.061451   209A      1.063697  
	 210A      1.083171   211A      1.097903   212A      1.104730  
	 213A      1.111246   214A      1.133829   215A      1.144599  
	 216A      1.160265   217A      1.167020   218A      1.171836  
	 219A      1.184113   220A      1.191923   221A      1.217618  
	 222A      1.223471   223A      1.234689   224A      1.275137  
	 225A      1.285248   226A      1.309566   227A      1.319407  
	 228A      1.341241   229A      1.350017   230A      1.352297  
	 231A      1.355984   232A      1.397347   233A      1.410144  
	 234A      1.429012   235A      1.452161   236A      1.456501  
	 237A      1.476012   238A      1.487057   239A      1.508630  
	 240A      1.519046   241A      1.525496   242A      1.539177  
	 243A      1.546235   244A      1.554773   245A      1.574866  
	 246A      1.581904   247A      1.604575   248A      1.624783  
	 249A      1.630804   250A      1.636369   251A      1.662723  
	 252A      1.665317   253A      1.671416   254A      1.688238  
	 255A      1.700985   256A      1.721588   257A      1.731614  
	 258A      1.742932   259A      1.747712   260A      1.761375  
	 261A      1.767773   262A      1.781630   263A      1.787519  
	 264A      1.810559   265A      1.815608   266A      1.822479  
	 267A      1.837132   268A      1.849003   269A      1.870254  
	 270A      1.897002   271A      1.909443   272A      1.915674  
	 273A      1.918983   274A      1.929150   275A      1.933439  
	 276A      1.955172   277A      1.964482   278A      1.966953  
	 279A      1.972867   280A      1.988352   281A      1.994484  
	 282A      2.013410   283A      2.036308   284A      2.047564  
	 285A      2.059234   286A      2.063487   287A      2.074004  
	 288A      2.111264   289A      2.118331   290A      2.135855  
	 291A      2.142345   292A      2.148612   293A      2.167200  
	 294A      2.176636   295A      2.181867   296A      2.203600  
	 297A      2.218811   298A      2.228603   299A      2.232213  
	 300A      2.240312   301A      2.249052   302A      2.253473  
	 303A      2.266960   304A      2.276749   305A      2.283660  
	 306A      2.290260   307A      2.293060   308A      2.311524  
	 309A      2.330930   310A      2.344362   311A      2.350827  
	 312A      2.367984   313A      2.375452   314A      2.378171  
	 315A      2.396813   316A      2.406527   317A      2.430976  
	 318A      2.444567   319A      2.455234   320A      2.469185  
	 321A      2.479314   322A      2.495844   323A      2.549580  
	 324A      2.582060   325A      2.603128   326A      2.609631  
	 327A      2.649261   328A      2.674435   329A      2.678106  
	 330A      2.698928   331A      2.738076   332A      2.772884  
	 333A      2.796613   334A      2.811419   335A      2.816345  
	 336A      2.834866   337A      2.859787   338A      2.878285  
	 339A      2.935330   340A      2.938732   341A      2.960205  
	 342A      2.968365   343A      2.976225   344A      2.983555  
	 345A      2.986578   346A      2.989006   347A      3.031605  
	 348A      3.080297   349A      3.112526   350A      3.142324  
	 351A      3.148435   352A      3.170470   353A      3.185358  
	 354A      3.206515   355A      3.218827   356A      3.283497  
	 357A      3.371177   358A      3.380636   359A      3.480214  
	 360A      3.563237   361A      3.594811   362A      3.646647  
	 363A      3.766352   364A      3.824672   365A      3.855570  
	 366A      3.882829   367A      3.958370   368A      4.062164  
	 369A      4.215589   370A      4.873173  

	Final Occupation by Irrep:
	          A 
	DOCC [    41 ]

  Energy converged.

  @RHF Final Energy:  -477.76761921855507

   => Energetics <=

    Nuclear Repulsion Energy =            592.2492899153502321
    One-Electron Energy =               -1822.7457711743832078
    Two-Electron Energy =                 752.7288620404771109
    DFT Exchange-Correlation Energy =       0.0000000000000000
    Empirical Dispersion Energy =           0.0000000000000000
    Total Energy =                       -477.7676192185557511



Properties will be evaluated at   0.000000,   0.000000,   0.000000 Bohr
  ==> Properties <==


Properties computed using the SCF density density matrix
  Nuclear Dipole Moment: (a.u.)
     X:    -0.5824      Y:     0.0658      Z:    -1.1316

  Electronic Dipole Moment: (a.u.)
     X:     0.1897      Y:     0.0468      Z:    -0.7783

  Dipole Moment: (a.u.)
     X:    -0.3927      Y:     0.1126      Z:    -1.9099     Total:     1.9531

  Dipole Moment: (Debye)
     X:    -0.9980      Y:     0.2862      Z:    -4.8545     Total:     4.9643


  Saving occupied orbitals to File 180.

  Saving SAPT 2-DIMER file.

*** tstop() called on node119.bme.utexas.edu at Thu Sep 19 14:31:40 2013
Module time:
	user time   =     392.82 seconds =       6.55 minutes
	system time =       3.33 seconds =       0.06 minutes
	total time  =        107 seconds =       1.78 minutes
Total time:
	user time   =     392.82 seconds =       6.55 minutes
	system time =       3.33 seconds =       0.06 minutes
	total time  =        107 seconds =       1.78 minutes

  //>>>>>>>>>>>>>>>>>>>>>>>>>>>>>>>>>>>//
  //            Monomer A HF           //
  //<<<<<<<<<<<<<<<<<<<<<<<<<<<<<<<<<<<//


  No DF_BASIS_SCF auxiliary basis selected, defaulting to aug-cc-pvdz-jkfit


*** tstart() called on node119.bme.utexas.edu
*** at Thu Sep 19 14:31:40 2013


         ---------------------------------------------------------
                                   SCF
            by Justin Turney, Rob Parrish, and Andy Simmonett
                              RHF Reference
                        4 Threads,   3000 MiB Core
         ---------------------------------------------------------

  ==> Geometry <==

    Molecular point group: c1
    Full point group: C1

    Geometry (in Angstrom), charge = 0, multiplicity = 1:

       Center              X                  Y                   Z       
    ------------   -----------------  -----------------  -----------------
           C          0.544662177833     1.070498807728    -1.899619521271
           H          1.147821035833     1.968019489728    -1.907077697271
           C          1.155050163833    -0.180295836272    -1.986102145271
           H          2.231453585833    -0.252359535272    -2.057964591271
           C          0.377604918833    -1.337408909272    -1.978465628271
           H          0.851098616833    -2.307114903272    -2.047083399271
           C         -1.010297423167    -1.244783777272    -1.881253598271
           H         -1.613299581167    -2.142452843272    -1.875745780271
           C         -1.621395521167     0.005513560728    -1.792203845271
           H         -2.697631491167     0.077717467728    -1.716116400271
           C         -0.843803739167     1.163680317728    -1.802871872271
           H         -1.318169134167     2.133474668728    -1.738019688271
           C(Gh)      0.378337573833     1.968885424728     1.810724483729
           H(Gh)      0.020192474833     2.134616267728     0.797431713729
           H(Gh)      1.402921134833     2.325594990728     1.892165992729
           H(Gh)     -0.225759299167     2.542521253728     2.509077202729
           C(Gh)      0.341491239833     0.515722312728     2.226433310729
           O(Gh)      0.626119644833     0.163360895728     3.364971373729
           N(Gh)     -0.030904030167    -0.349994431272     1.247192218729
           H(Gh)     -0.192031930167     0.007996309728     0.321123878729
           C(Gh)     -0.067696903167    -1.776873660272     1.465279278729
           H(Gh)      0.010390666833    -1.943781196272     2.535275509729
           H(Gh)     -1.002937439167    -2.195224236272     1.098541166729
           H(Gh)      0.761429573833    -2.280746424272     0.967941846729

  Running in c1 symmetry.

  Nuclear repulsion =  203.600601487613602

  Charge       = 0
  Multiplicity = 1
  Electrons    = 42
  Nalpha       = 21
  Nbeta        = 21

  ==> Algorithm <==

  SCF Algorithm Type is DF.
  DIIS enabled.
  MOM disabled.
  Fractional occupation disabled.
  Guess Type is CORE.
  Energy threshold   = 1.00e-08
  Density threshold  = 1.00e-08
  Integral threshold = 0.00e+00

  ==> Primary Basis <==

  Basis Set: AUG-CC-PVDZ
    Number of shells: 164
    Number of basis function: 370
    Number of Cartesian functions: 392
    Spherical Harmonics?: true
    Max angular momentum: 2

  ==> Pre-Iterations <==

   -------------------------------------------------------
    Irrep   Nso     Nmo     Nalpha   Nbeta   Ndocc  Nsocc
   -------------------------------------------------------
     A        370     370       0       0       0       0
   -------------------------------------------------------
    Total     370     370      21      21      21       0
   -------------------------------------------------------

 OEINTS: Wrapper to libmints.
   by Justin Turney

   Calculation information:
      Number of atoms:                  24
      Number of AO shells:             164
      Number of SO shells:             164
      Number of primitives:            366
      Number of atomic orbitals:       392
      Number of basis functions:       370

      Number of irreps:                  1
      Number of functions per irrep: [ 370 ]

      Overlap, kinetic, potential, dipole, and quadrupole integrals
        stored in file 35.

  ==> Integral Setup <==

  ==> DFJK: Density-Fitted J/K Matrices <==

    J tasked:                  Yes
    K tasked:                  Yes
    wK tasked:                  No
    OpenMP threads:              4
    Integrals threads:           4
    Memory (MB):              2145
    Algorithm:                Core
    Integral Cache:           LOAD
    Schwarz Cutoff:          0E+00
    Fitting Condition:       1E-12

   => Auxiliary Basis Set <=

  Basis Set: aug-cc-pvdz-jkfit
    Number of shells: 464
    Number of basis function: 1362
    Number of Cartesian functions: 1566
    Spherical Harmonics?: true
    Max angular momentum: 3

  Minimum eigenvalue in the overlap matrix is 2.1800591130E-06.
  Using Symmetric Orthogonalization.
  SCF Guess: Core (One-Electron) Hamiltonian.

  Guess energy:  -178.84357531298204

  ==> Iterations <==

                        Total Energy        Delta E     RMS |[F,P]|

   @RHF iter   1:  -193.25036748733035   -1.93250e+02   1.52543e-02 
   @RHF iter   2:  -172.40877412047050    2.08416e+01   1.24598e-02 DIIS
   @RHF iter   3:  -228.35240237211028   -5.59436e+01   5.12361e-03 DIIS
   @RHF iter   4:  -230.17979382998917   -1.82739e+00   2.46608e-03 DIIS
   @RHF iter   5:  -230.70159983955685   -5.21806e-01   5.07845e-04 DIIS
   @RHF iter   6:  -230.72835711361134   -2.67573e-02   1.05291e-04 DIIS
   @RHF iter   7:  -230.72947192604389   -1.11481e-03   2.80983e-05 DIIS
   @RHF iter   8:  -230.72955365126879   -8.17252e-05   8.23402e-06 DIIS
   @RHF iter   9:  -230.72955976986466   -6.11860e-06   2.84920e-06 DIIS
   @RHF iter  10:  -230.72956048769672   -7.17832e-07   7.37579e-07 DIIS
   @RHF iter  11:  -230.72956055417799   -6.64813e-08   1.54345e-07 DIIS
   @RHF iter  12:  -230.72956055751305   -3.33506e-09   4.72958e-08 DIIS
   @RHF iter  13:  -230.72956055815635   -6.43297e-10   2.41361e-08 DIIS
   @RHF iter  14:  -230.72956055840601   -2.49656e-10   6.95436e-09 DIIS

  ==> Post-Iterations <==

	Orbital Energies (a.u.)
	-----------------------

	Doubly Occupied:                                                      

	   1A    -11.242583     2A    -11.242016     3A    -11.241971  
	   4A    -11.240823     5A    -11.240756     6A    -11.240171  
	   7A     -1.152338     8A     -1.016732     9A     -1.016626  
	  10A     -0.825390    11A     -0.825344    12A     -0.709922  
	  13A     -0.644829    14A     -0.619058    15A     -0.588204  
	  16A     -0.588080    17A     -0.501451    18A     -0.494455  
	  19A     -0.494354    20A     -0.336082    21A     -0.336046  

	Virtual:                                                              

	  22A      0.026206    23A      0.037853    24A      0.040059  
	  25A      0.042664    26A      0.055003    27A      0.055583  
	  28A      0.056771    29A      0.063018    30A      0.069861  
	  31A      0.075760    32A      0.080064    33A      0.084311  
	  34A      0.088513    35A      0.103552    36A      0.112453  
	  37A      0.113522    38A      0.124093    39A      0.127176  
	  40A      0.130640    41A      0.132119    42A      0.143736  
	  43A      0.145946    44A      0.148977    45A      0.149498  
	  46A      0.150747    47A      0.152576    48A      0.157516  
	  49A      0.165053    50A      0.169813    51A      0.174292  
	  52A      0.175541    53A      0.178922    54A      0.183020  
	  55A      0.184614    56A      0.188217    57A      0.190525  
	  58A      0.194498    59A      0.200899    60A      0.206269  
	  61A      0.213617    62A      0.216108    63A      0.219626  
	  64A      0.229591    65A      0.241148    66A      0.244288  
	  67A      0.263980    68A      0.266374    69A      0.270303  
	  70A      0.280761    71A      0.283044    72A      0.291511  
	  73A      0.293720    74A      0.314981    75A      0.318371  
	  76A      0.319975    77A      0.324046    78A      0.331107  
	  79A      0.341876    80A      0.344477    81A      0.351673  
	  82A      0.359590    83A      0.362654    84A      0.363884  
	  85A      0.379892    86A      0.384796    87A      0.385183  
	  88A      0.387643    89A      0.396581    90A      0.401013  
	  91A      0.406858    92A      0.415942    93A      0.423499  
	  94A      0.428742    95A      0.436665    96A      0.439587  
	  97A      0.441583    98A      0.447365    99A      0.451931  
	 100A      0.455798   101A      0.464046   102A      0.478262  
	 103A      0.489760   104A      0.495664   105A      0.499939  
	 106A      0.506174   107A      0.507978   108A      0.511818  
	 109A      0.517974   110A      0.534871   111A      0.538005  
	 112A      0.549405   113A      0.555127   114A      0.560935  
	 115A      0.564621   116A      0.573475   117A      0.578882  
	 118A      0.583605   119A      0.594431   120A      0.599182  
	 121A      0.602417   122A      0.609533   123A      0.612405  
	 124A      0.617722   125A      0.621690   126A      0.626194  
	 127A      0.632281   128A      0.642201   129A      0.645433  
	 130A      0.650705   131A      0.653745   132A      0.665369  
	 133A      0.669013   134A      0.686502   135A      0.690709  
	 136A      0.703257   137A      0.709831   138A      0.713082  
	 139A      0.714479   140A      0.721179   141A      0.725287  
	 142A      0.731540   143A      0.746190   144A      0.757042  
	 145A      0.758032   146A      0.759121   147A      0.775307  
	 148A      0.779891   149A      0.786888   150A      0.798602  
	 151A      0.799041   152A      0.803011   153A      0.817093  
	 154A      0.821239   155A      0.828787   156A      0.840664  
	 157A      0.843039   158A      0.845952   159A      0.857375  
	 160A      0.858820   161A      0.860054   162A      0.861829  
	 163A      0.865691   164A      0.870632   165A      0.878947  
	 166A      0.886189   167A      0.893496   168A      0.905977  
	 169A      0.912242   170A      0.923542   171A      0.938039  
	 172A      0.945564   173A      0.949537   174A      0.953389  
	 175A      0.957334   176A      0.970263   177A      0.984159  
	 178A      0.989816   179A      0.994471   180A      1.000811  
	 181A      1.004391   182A      1.013519   183A      1.019809  
	 184A      1.027246   185A      1.039989   186A      1.043799  
	 187A      1.060409   188A      1.070274   189A      1.076517  
	 190A      1.087759   191A      1.100917   192A      1.105752  
	 193A      1.114891   194A      1.126948   195A      1.140306  
	 196A      1.151950   197A      1.158977   198A      1.199253  
	 199A      1.208731   200A      1.239807   201A      1.247690  
	 202A      1.273648   203A      1.289435   204A      1.298022  
	 205A      1.323131   206A      1.346563   207A      1.356476  
	 208A      1.365082   209A      1.375468   210A      1.403386  
	 211A      1.410417   212A      1.419262   213A      1.441537  
	 214A      1.457657   215A      1.473814   216A      1.498326  
	 217A      1.511218   218A      1.527793   219A      1.538795  
	 220A      1.540999   221A      1.565941   222A      1.573113  
	 223A      1.578389   224A      1.594429   225A      1.608743  
	 226A      1.611268   227A      1.626649   228A      1.667834  
	 229A      1.672150   230A      1.675638   231A      1.687419  
	 232A      1.701288   233A      1.720390   234A      1.727027  
	 235A      1.753946   236A      1.757082   237A      1.779189  
	 238A      1.781667   239A      1.785678   240A      1.799069  
	 241A      1.823428   242A      1.846938   243A      1.848314  
	 244A      1.887892   245A      1.904261   246A      1.932610  
	 247A      1.953637   248A      1.962905   249A      1.971528  
	 250A      1.980523   251A      1.992837   252A      1.999000  
	 253A      2.008434   254A      2.027164   255A      2.037466  
	 256A      2.043514   257A      2.084114   258A      2.093229  
	 259A      2.142666   260A      2.154053   261A      2.163652  
	 262A      2.170742   263A      2.174508   264A      2.207602  
	 265A      2.226966   266A      2.241555   267A      2.246622  
	 268A      2.250719   269A      2.269666   270A      2.283965  
	 271A      2.287698   272A      2.295416   273A      2.301857  
	 274A      2.314897   275A      2.325091   276A      2.337426  
	 277A      2.342618   278A      2.369061   279A      2.382654  
	 280A      2.390522   281A      2.403237   282A      2.407956  
	 283A      2.418914   284A      2.419039   285A      2.435085  
	 286A      2.444595   287A      2.460722   288A      2.475689  
	 289A      2.491896   290A      2.494982   291A      2.524238  
	 292A      2.554042   293A      2.578870   294A      2.603428  
	 295A      2.623979   296A      2.629342   297A      2.629512  
	 298A      2.670845   299A      2.703086   300A      2.712900  
	 301A      2.772899   302A      2.812258   303A      2.816478  
	 304A      2.838100   305A      2.842871   306A      2.850378  
	 307A      2.868922   308A      2.899896   309A      2.912158  
	 310A      2.939469   311A      2.977176   312A      2.991775  
	 313A      2.993876   314A      2.998219   315A      3.050202  
	 316A      3.058315   317A      3.065865   318A      3.140129  
	 319A      3.161836   320A      3.180478   321A      3.185458  
	 322A      3.209616   323A      3.226138   324A      3.238275  
	 325A      3.274478   326A      3.337673   327A      3.373608  
	 328A      3.389153   329A      3.404228   330A      3.455375  
	 331A      3.469262   332A      3.516310   333A      3.587143  
	 334A      3.618512   335A      3.652311   336A      3.692208  
	 337A      3.862776   338A      3.891674   339A      3.904068  
	 340A      3.947695   341A      3.990145   342A      4.047239  
	 343A      4.155173   344A      4.237298   345A      4.570516  
	 346A      4.628070   347A      4.835995   348A      4.844480  
	 349A      4.896471   350A      5.016290   351A      5.035574  
	 352A      5.080523   353A      5.104911   354A      5.137044  
	 355A      5.145748   356A      5.161454   357A      5.203860  
	 358A      5.220444   359A      5.330643   360A      5.908878  
	 361A      5.987973   362A      6.053266   363A      6.164116  
	 364A      6.465705   365A      7.042676   366A     18.409369  
	 367A     18.565445   368A     19.067451   369A     25.454385  
	 370A     33.543754  

	Final Occupation by Irrep:
	          A 
	DOCC [    21 ]

  Energy converged.

  @RHF Final Energy:  -230.72956055840601

   => Energetics <=

    Nuclear Repulsion Energy =            203.6006014876136021
    One-Electron Energy =                -713.4658678024924257
    Two-Electron Energy =                 279.1357057564713386
    DFT Exchange-Correlation Energy =       0.0000000000000000
    Empirical Dispersion Energy =           0.0000000000000000
    Total Energy =                       -230.7295605584074565



Properties will be evaluated at   0.000000,   0.000000,   0.000000 Bohr
  ==> Properties <==


Properties computed using the SCF density density matrix
  Nuclear Dipole Moment: (a.u.)
     X:   -18.4963      Y:    -6.9154      Z:  -150.0161

  Electronic Dipole Moment: (a.u.)
     X:    18.4964      Y:     6.9157      Z:   150.0166

  Dipole Moment: (a.u.)
     X:     0.0001      Y:     0.0002      Z:     0.0005     Total:     0.0005

  Dipole Moment: (Debye)
     X:     0.0003      Y:     0.0006      Z:     0.0012     Total:     0.0014


  Saving occupied orbitals to File 180.

  Saving SAPT 2-MONOMER_A file.

*** tstop() called on node119.bme.utexas.edu at Thu Sep 19 14:32:35 2013
Module time:
	user time   =     204.34 seconds =       3.41 minutes
	system time =       1.66 seconds =       0.03 minutes
	total time  =         55 seconds =       0.92 minutes
Total time:
	user time   =     597.18 seconds =       9.95 minutes
	system time =       4.99 seconds =       0.08 minutes
	total time  =        162 seconds =       2.70 minutes

  //>>>>>>>>>>>>>>>>>>>>>>>>>>>>>>>>>>>//
  //            Monomer B HF           //
  //<<<<<<<<<<<<<<<<<<<<<<<<<<<<<<<<<<<//


  No DF_BASIS_SCF auxiliary basis selected, defaulting to aug-cc-pvdz-jkfit


*** tstart() called on node119.bme.utexas.edu
*** at Thu Sep 19 14:32:35 2013


         ---------------------------------------------------------
                                   SCF
            by Justin Turney, Rob Parrish, and Andy Simmonett
                              RHF Reference
                        4 Threads,   3000 MiB Core
         ---------------------------------------------------------

  ==> Geometry <==

    Molecular point group: c1
    Full point group: C1

    Geometry (in Angstrom), charge = 0, multiplicity = 1:

       Center              X                  Y                   Z       
    ------------   -----------------  -----------------  -----------------
           C(Gh)      0.544662177833     1.070498807728    -1.899619521271
           H(Gh)      1.147821035833     1.968019489728    -1.907077697271
           C(Gh)      1.155050163833    -0.180295836272    -1.986102145271
           H(Gh)      2.231453585833    -0.252359535272    -2.057964591271
           C(Gh)      0.377604918833    -1.337408909272    -1.978465628271
           H(Gh)      0.851098616833    -2.307114903272    -2.047083399271
           C(Gh)     -1.010297423167    -1.244783777272    -1.881253598271
           H(Gh)     -1.613299581167    -2.142452843272    -1.875745780271
           C(Gh)     -1.621395521167     0.005513560728    -1.792203845271
           H(Gh)     -2.697631491167     0.077717467728    -1.716116400271
           C(Gh)     -0.843803739167     1.163680317728    -1.802871872271
           H(Gh)     -1.318169134167     2.133474668728    -1.738019688271
           C          0.378337573833     1.968885424728     1.810724483729
           H          0.020192474833     2.134616267728     0.797431713729
           H          1.402921134833     2.325594990728     1.892165992729
           H         -0.225759299167     2.542521253728     2.509077202729
           C          0.341491239833     0.515722312728     2.226433310729
           O          0.626119644833     0.163360895728     3.364971373729
           N         -0.030904030167    -0.349994431272     1.247192218729
           H         -0.192031930167     0.007996309728     0.321123878729
           C         -0.067696903167    -1.776873660272     1.465279278729
           H          0.010390666833    -1.943781196272     2.535275509729
           H         -1.002937439167    -2.195224236272     1.098541166729
           H          0.761429573833    -2.280746424272     0.967941846729

  Running in c1 symmetry.

  Nuclear repulsion =  180.551809775156357

  Charge       = 0
  Multiplicity = 1
  Electrons    = 40
  Nalpha       = 20
  Nbeta        = 20

  ==> Algorithm <==

  SCF Algorithm Type is DF.
  DIIS enabled.
  MOM disabled.
  Fractional occupation disabled.
  Guess Type is CORE.
  Energy threshold   = 1.00e-08
  Density threshold  = 1.00e-08
  Integral threshold = 0.00e+00

  ==> Primary Basis <==

  Basis Set: AUG-CC-PVDZ
    Number of shells: 164
    Number of basis function: 370
    Number of Cartesian functions: 392
    Spherical Harmonics?: true
    Max angular momentum: 2

  ==> Pre-Iterations <==

   -------------------------------------------------------
    Irrep   Nso     Nmo     Nalpha   Nbeta   Ndocc  Nsocc
   -------------------------------------------------------
     A        370     370       0       0       0       0
   -------------------------------------------------------
    Total     370     370      20      20      20       0
   -------------------------------------------------------

 OEINTS: Wrapper to libmints.
   by Justin Turney

   Calculation information:
      Number of atoms:                  24
      Number of AO shells:             164
      Number of SO shells:             164
      Number of primitives:            366
      Number of atomic orbitals:       392
      Number of basis functions:       370

      Number of irreps:                  1
      Number of functions per irrep: [ 370 ]

      Overlap, kinetic, potential, dipole, and quadrupole integrals
        stored in file 35.

  ==> Integral Setup <==

  ==> DFJK: Density-Fitted J/K Matrices <==

    J tasked:                  Yes
    K tasked:                  Yes
    wK tasked:                  No
    OpenMP threads:              4
    Integrals threads:           4
    Memory (MB):              2145
    Algorithm:                Core
    Integral Cache:           LOAD
    Schwarz Cutoff:          0E+00
    Fitting Condition:       1E-12

   => Auxiliary Basis Set <=

  Basis Set: aug-cc-pvdz-jkfit
    Number of shells: 464
    Number of basis function: 1362
    Number of Cartesian functions: 1566
    Spherical Harmonics?: true
    Max angular momentum: 3

  Minimum eigenvalue in the overlap matrix is 2.1800591130E-06.
  Using Symmetric Orthogonalization.
  SCF Guess: Core (One-Electron) Hamiltonian.

  Guess energy:  -199.86232665806585

  ==> Iterations <==

                        Total Energy        Delta E     RMS |[F,P]|

   @RHF iter   1:  -192.65900479377513   -1.92659e+02   1.88527e-02 
   @RHF iter   2:  -189.70122847346272    2.95778e+00   1.34452e-02 DIIS
   @RHF iter   3:  -227.56585890406166   -3.78646e+01   1.42451e-02 DIIS
   @RHF iter   4:  -236.65148668274730   -9.08563e+00   1.08183e-02 DIIS
   @RHF iter   5:  -242.69410074364669   -6.04261e+00   6.43977e-03 DIIS
   @RHF iter   6:  -245.09734310283625   -2.40324e+00   4.60775e-03 DIIS
   @RHF iter   7:  -246.83019189171785   -1.73285e+00   1.53184e-03 DIIS
   @RHF iter   8:  -247.01106142504000   -1.80870e-01   5.99236e-04 DIIS
   @RHF iter   9:  -247.03905283577978   -2.79914e-02   1.79642e-04 DIIS
   @RHF iter  10:  -247.04185248390769   -2.79965e-03   5.37761e-05 DIIS
   @RHF iter  11:  -247.04216242424764   -3.09940e-04   2.76524e-05 DIIS
   @RHF iter  12:  -247.04222793626383   -6.55120e-05   8.12836e-06 DIIS
   @RHF iter  13:  -247.04224222028267   -1.42840e-05   3.60829e-06 DIIS
   @RHF iter  14:  -247.04224497324435   -2.75296e-06   9.82591e-07 DIIS
   @RHF iter  15:  -247.04224519931068   -2.26066e-07   2.71155e-07 DIIS
   @RHF iter  16:  -247.04224521064572   -1.13350e-08   5.61420e-08 DIIS
   @RHF iter  17:  -247.04224521122597   -5.80258e-10   1.27124e-08 DIIS
   @RHF iter  18:  -247.04224521125445   -2.84786e-11   3.06461e-09 DIIS

  ==> Post-Iterations <==

	Orbital Energies (a.u.)
	-----------------------

	Doubly Occupied:                                                      

	   1A    -20.521221     2A    -15.594314     3A    -11.355571  
	   4A    -11.262870     5A    -11.241617     6A     -1.377752  
	   7A     -1.234368     8A     -1.019971     9A     -0.933362  
	  10A     -0.792068    11A     -0.690813    12A     -0.653249  
	  13A     -0.633016    14A     -0.586123    15A     -0.580604  
	  16A     -0.554484    17A     -0.544875    18A     -0.503134  
	  19A     -0.419383    20A     -0.390478  

	Virtual:                                                              

	  21A      0.014782    22A      0.031407    23A      0.031531  
	  24A      0.045846    25A      0.051442    26A      0.052120  
	  27A      0.057277    28A      0.064077    29A      0.070602  
	  30A      0.072355    31A      0.073119    32A      0.081087  
	  33A      0.088358    34A      0.100415    35A      0.104825  
	  36A      0.105784    37A      0.113308    38A      0.123161  
	  39A      0.126411    40A      0.135493    41A      0.137900  
	  42A      0.142515    43A      0.146543    44A      0.148521  
	  45A      0.155746    46A      0.161652    47A      0.165194  
	  48A      0.169483    49A      0.174577    50A      0.176150  
	  51A      0.176687    52A      0.179500    53A      0.183058  
	  54A      0.187009    55A      0.189527    56A      0.195991  
	  57A      0.198937    58A      0.207094    59A      0.207443  
	  60A      0.210397    61A      0.215349    62A      0.217873  
	  63A      0.226485    64A      0.228450    65A      0.233098  
	  66A      0.249561    67A      0.259877    68A      0.264241  
	  69A      0.273533    70A      0.275199    71A      0.293594  
	  72A      0.297105    73A      0.301283    74A      0.308772  
	  75A      0.312035    76A      0.321021    77A      0.323110  
	  78A      0.339563    79A      0.343001    80A      0.346136  
	  81A      0.352931    82A      0.356432    83A      0.366261  
	  84A      0.381879    85A      0.387288    86A      0.397038  
	  87A      0.407369    88A      0.412472    89A      0.415615  
	  90A      0.417063    91A      0.424840    92A      0.425940  
	  93A      0.428951    94A      0.435146    95A      0.437259  
	  96A      0.444383    97A      0.448256    98A      0.452126  
	  99A      0.457221   100A      0.467193   101A      0.470750  
	 102A      0.475901   103A      0.481504   104A      0.482465  
	 105A      0.490469   106A      0.498437   107A      0.499784  
	 108A      0.510314   109A      0.511101   110A      0.521814  
	 111A      0.529096   112A      0.536039   113A      0.538390  
	 114A      0.542822   115A      0.548615   116A      0.556923  
	 117A      0.565517   118A      0.567933   119A      0.591341  
	 120A      0.599208   121A      0.603689   122A      0.605854  
	 123A      0.612737   124A      0.619000   125A      0.623813  
	 126A      0.626905   127A      0.627966   128A      0.640579  
	 129A      0.647090   130A      0.660011   131A      0.661375  
	 132A      0.673160   133A      0.676395   134A      0.683973  
	 135A      0.692086   136A      0.698876   137A      0.704529  
	 138A      0.710257   139A      0.719572   140A      0.721271  
	 141A      0.725133   142A      0.742206   143A      0.745427  
	 144A      0.754588   145A      0.761354   146A      0.772539  
	 147A      0.775143   148A      0.783820   149A      0.792664  
	 150A      0.797248   151A      0.809758   152A      0.813332  
	 153A      0.821443   154A      0.826215   155A      0.828136  
	 156A      0.836467   157A      0.850350   158A      0.859255  
	 159A      0.866190   160A      0.869181   161A      0.876939  
	 162A      0.878893   163A      0.880988   164A      0.888651  
	 165A      0.895165   166A      0.897074   167A      0.900529  
	 168A      0.911086   169A      0.918004   170A      0.921670  
	 171A      0.942105   172A      0.947172   173A      0.958833  
	 174A      0.959866   175A      0.972650   176A      0.982766  
	 177A      0.996671   178A      1.007640   179A      1.017622  
	 180A      1.025457   181A      1.036405   182A      1.039794  
	 183A      1.045047   184A      1.047128   185A      1.058955  
	 186A      1.068531   187A      1.084285   188A      1.089202  
	 189A      1.093991   190A      1.108212   191A      1.110202  
	 192A      1.116409   193A      1.125226   194A      1.143949  
	 195A      1.158012   196A      1.166287   197A      1.197978  
	 198A      1.203066   199A      1.209300   200A      1.219409  
	 201A      1.225642   202A      1.229063   203A      1.246139  
	 204A      1.257801   205A      1.263509   206A      1.272985  
	 207A      1.289662   208A      1.320671   209A      1.332080  
	 210A      1.372060   211A      1.378791   212A      1.392437  
	 213A      1.395456   214A      1.403518   215A      1.425608  
	 216A      1.472774   217A      1.481904   218A      1.490045  
	 219A      1.491077   220A      1.499869   221A      1.517830  
	 222A      1.530993   223A      1.555712   224A      1.603608  
	 225A      1.639079   226A      1.659950   227A      1.732415  
	 228A      1.743032   229A      1.762603   230A      1.779738  
	 231A      1.797544   232A      1.803223   233A      1.809702  
	 234A      1.861027   235A      1.897089   236A      1.919852  
	 237A      1.929391   238A      1.958131   239A      1.996249  
	 240A      2.000088   241A      2.010513   242A      2.062094  
	 243A      2.079910   244A      2.089765   245A      2.099472  
	 246A      2.115156   247A      2.138796   248A      2.144664  
	 249A      2.165011   250A      2.175893   251A      2.176786  
	 252A      2.199823   253A      2.207809   254A      2.226696  
	 255A      2.248450   256A      2.255338   257A      2.256905  
	 258A      2.259808   259A      2.274273   260A      2.283822  
	 261A      2.290922   262A      2.297394   263A      2.315153  
	 264A      2.330265   265A      2.335200   266A      2.338072  
	 267A      2.353368   268A      2.358646   269A      2.364007  
	 270A      2.383837   271A      2.397057   272A      2.412503  
	 273A      2.415856   274A      2.439892   275A      2.457514  
	 276A      2.466327   277A      2.471428   278A      2.490859  
	 279A      2.511727   280A      2.518970   281A      2.535141  
	 282A      2.540907   283A      2.558863   284A      2.564502  
	 285A      2.581055   286A      2.599264   287A      2.607168  
	 288A      2.619363   289A      2.631595   290A      2.644610  
	 291A      2.649088   292A      2.655240   293A      2.663393  
	 294A      2.668060   295A      2.688667   296A      2.700363  
	 297A      2.720768   298A      2.727455   299A      2.738775  
	 300A      2.748225   301A      2.783287   302A      2.792063  
	 303A      2.822193   304A      2.854458   305A      2.857667  
	 306A      2.870279   307A      2.876083   308A      2.885569  
	 309A      2.910893   310A      2.924709   311A      2.940263  
	 312A      2.949874   313A      2.951040   314A      2.971855  
	 315A      2.989949   316A      2.994191   317A      3.032721  
	 318A      3.047909   319A      3.069723   320A      3.103619  
	 321A      3.132494   322A      3.192601   323A      3.214546  
	 324A      3.225816   325A      3.247567   326A      3.322192  
	 327A      3.334561   328A      3.413815   329A      3.423950  
	 330A      3.441333   331A      3.463060   332A      3.482856  
	 333A      3.486126   334A      3.514680   335A      3.525790  
	 336A      3.558963   337A      3.598939   338A      3.620459  
	 339A      3.698842   340A      3.721207   341A      3.779286  
	 342A      3.813397   343A      3.842867   344A      3.899371  
	 345A      3.950469   346A      3.968287   347A      3.986209  
	 348A      4.048288   349A      4.068819   350A      4.080114  
	 351A      4.095180   352A      4.205766   353A      4.398825  
	 354A      4.478424   355A      4.676227   356A      4.857362  
	 357A      4.894378   358A      5.322562   359A      5.437490  
	 360A      5.442108   361A      5.454691   362A      5.456544  
	 363A      5.625111   364A      6.107111   365A     18.002041  
	 366A     18.398064   367A     18.408499   368A     18.995946  
	 369A     19.042226   370A     20.709154  

	Final Occupation by Irrep:
	          A 
	DOCC [    20 ]

  Energy converged.

  @RHF Final Energy:  -247.04224521125445

   => Energetics <=

    Nuclear Repulsion Energy =            180.5518097751563573
    One-Electron Energy =                -693.4095679629001552
    Two-Electron Energy =                 265.8155129764904245
    DFT Exchange-Correlation Energy =       0.0000000000000000
    Empirical Dispersion Energy =           0.0000000000000000
    Total Energy =                       -247.0422452112533733



Properties will be evaluated at   0.000000,   0.000000,   0.000000 Bohr
  ==> Properties <==


Properties computed using the SCF density density matrix
  Nuclear Dipole Moment: (a.u.)
     X:    17.9139      Y:     6.9812      Z:   148.8845

  Electronic Dipole Moment: (a.u.)
     X:   -18.2926      Y:    -6.8232      Z:  -150.4737

  Dipole Moment: (a.u.)
     X:    -0.3787      Y:     0.1580      Z:    -1.5892     Total:     1.6413

  Dipole Moment: (Debye)
     X:    -0.9626      Y:     0.4017      Z:    -4.0392     Total:     4.1717


  Saving occupied orbitals to File 180.

  Saving SAPT 2-MONOMER_B file.

*** tstop() called on node119.bme.utexas.edu at Thu Sep 19 14:33:43 2013
Module time:
	user time   =     259.92 seconds =       4.33 minutes
	system time =       1.83 seconds =       0.03 minutes
	total time  =         68 seconds =       1.13 minutes
Total time:
	user time   =     857.12 seconds =      14.29 minutes
	system time =       6.82 seconds =       0.11 minutes
	total time  =        230 seconds =       3.83 minutes
  No DF_BASIS_SAPT auxiliary basis selected, defaulting to aug-cc-pvdz-ri

  //>>>>>>>>>>>>>>>>>>>>>>>>>>>>>>>>>>>//
  //               SAPT2+              //
  //<<<<<<<<<<<<<<<<<<<<<<<<<<<<<<<<<<<//


*** tstart() called on node119.bme.utexas.edu
*** at Thu Sep 19 14:33:43 2013

        SAPT2+  
    Ed Hohenstein
     6 June 2009

      Orbital Information
  --------------------------
    NSO        =       370
    NMO        =       370
    NRI        =      1091
    NOCC A     =        21
    NOCC B     =        20
    FOCC A     =         6
    FOCC B     =         5
    NVIR A     =       349
    NVIR B     =       350

    Estimated memory usage: 2365.7 MB

    Elst10,r            =    -0.008980879474 H
    Exch10 (S^2)        =     0.016351564199 H
    Exch10              =     0.016425487523 H
    Ind20,r (A<-B)      =    -0.004300720807 H
    Ind20,r (B<-A)      =    -0.001467025403 H
    Ind20,r             =    -0.005767746210 H
    Exch-Ind20,r (A<-B) =     0.002878667361 H
    Exch-Ind20,r (B<-A) =     0.001251308952 H
    Exch-Ind20,r        =     0.004129976313 H
    Disp20              =    -0.015547459045 H
    Exch-Disp20         =     0.001853913992 H
    Elst12,r            =     0.000035679013 H
    Exch11              =     0.000353651864 H
    Exch12              =     0.001146985715 H
    Ind22               =    -0.000453183390 H
    Disp21              =     0.003219306193 H
    Disp22 (SDQ)        =     0.000123572000 H

    (i =   1 of  15)       1344 seconds
    (i =   2 of  15)       2685 seconds
    (i =   3 of  15)       4024 seconds
    (i =   4 of  15)       5363 seconds
    (i =   5 of  15)       6702 seconds
    (i =   6 of  15)       8041 seconds
    (i =   7 of  15)       9382 seconds
    (i =   8 of  15)      10725 seconds
    (i =   9 of  15)      12066 seconds
    (i =  10 of  15)      13410 seconds
    (i =  11 of  15)      14750 seconds
    (i =  12 of  15)      16093 seconds
    (i =  13 of  15)      17434 seconds
    (i =  14 of  15)      18777 seconds
    (i =  15 of  15)      20119 seconds

    Disp220 (T)         =    -0.001467386699 H

    (i =   1 of  15)       1331 seconds
    (i =   2 of  15)       2660 seconds
    (i =   3 of  15)       3991 seconds
    (i =   4 of  15)       5322 seconds
    (i =   5 of  15)       6653 seconds
    (i =   6 of  15)       7985 seconds
    (i =   7 of  15)       9316 seconds
    (i =   8 of  15)      10648 seconds
    (i =   9 of  15)      11980 seconds
    (i =  10 of  15)      13312 seconds
    (i =  11 of  15)      14644 seconds
    (i =  12 of  15)      15976 seconds
    (i =  13 of  15)      17309 seconds
    (i =  14 of  15)      18641 seconds
    (i =  15 of  15)      19972 seconds

    Disp202 (T)         =    -0.001352288925 H

    Disp22 (T)          =    -0.002819675624 H

    SAPT Results  
  -----------------------------------------------------------------------
    Electrostatics          -8.94520046 mH      -5.61319827 kcal mol^-1
      Elst10,r              -8.98087947 mH      -5.63558719 kcal mol^-1
      Elst12,r               0.03567901 mH       0.02238892 kcal mol^-1

    Exchange                17.92612510 mH      11.24881380 kcal mol^-1
      Exch10                16.42548752 mH      10.30714946 kcal mol^-1
      Exch10(S^2)           16.35156420 mH      10.26076187 kcal mol^-1
      Exch11(S^2)            0.35365186 mH       0.22191990 kcal mol^-1
      Exch12(S^2)            1.14698572 mH       0.71974443 kcal mol^-1

    Induction               -3.38673981 mH      -2.12521140 kcal mol^-1
      Ind20,r               -5.76774621 mH      -3.61931554 kcal mol^-1
      Ind22                 -0.45318339 mH      -0.28437688 kcal mol^-1
      Exch-Ind20,r           4.12997631 mH       2.59159937 kcal mol^-1
      Exch-Ind22             0.32450052 mH       0.20362716 kcal mol^-1
      delta HF,r (2)        -1.62028705 mH      -1.01674551 kcal mol^-1

    Dispersion             -13.17034248 mH      -8.26451503 kcal mol^-1
      Disp20               -15.54745904 mH      -9.75617825 kcal mol^-1
      Disp21                 3.21930619 mH       2.02014522 kcal mol^-1
      Disp22 (SDQ)           0.12357200 mH       0.07754260 kcal mol^-1
      Disp22 (T)            -2.81967562 mH      -1.76937324 kcal mol^-1
      Exch-Disp20            1.85391399 mH       1.16334864 kcal mol^-1

    Total HF                 4.18655111 mH       2.62710059 kcal mol^-1
    Total SAPT0             -9.50699395 mH      -5.96572902 kcal mol^-1
    Total SAPT2             -8.09936022 mH      -5.08242548 kcal mol^-1
    Total SAPT2+            -7.57615765 mH      -4.75411090 kcal mol^-1

*** tstop() called on node119.bme.utexas.edu at Fri Sep 20 02:36:41 2013
Module time:
	user time   =  152288.02 seconds =    2538.13 minutes
	system time =     272.90 seconds =       4.55 minutes
	total time  =      43378 seconds =     722.97 minutes
Total time:
	user time   =  153145.14 seconds =    2552.42 minutes
	system time =     279.72 seconds =       4.66 minutes
	total time  =      43608 seconds =     726.80 minutes

*** PSI4 exiting successfully. Buy a developer a beer!
