    -----------------------------------------------------------------------
          PSI4: An Open-Source Ab Initio Electronic Structure Package
                              PSI 4.0.0-beta4 Driver

    J. M. Turney, A. C. Simmonett, R. M. Parrish, E. G. Hohenstein,
    F. A. Evangelista, J. T. Fermann, B. J. Mintz, L. A. Burns, J. J. Wilke,
    M. L. Abrams, N. J. Russ, M. L. Leininger, C. L. Janssen, E. T. Seidl,
    W. D. Allen, H. F. Schaefer, R. A. King, E. F. Valeev, C. D. Sherrill,
    and T. D. Crawford, WIREs Comput. Mol. Sci., (2011) (doi: 10.1002/wcms.93)

                         Additional Contributions by
    A. E. DePrince, M. Saitow, U. Bozkaya, A. Yu. Sokolov
    -----------------------------------------------------------------------

    Process ID:   6465
    PSI4DATADIR: /home/xzhu216/psi4/psi4-install/share/psi

    Using LocalCommunicator (Number of processes = 1)

    Memory level set to 256.000 MB

  ==> Input File <==

--------------------------------------------------------------------------
#psi4
#
memory 20 gb

molecule Pentane_AcOH {
0 1
    C    -2.275344982    -0.135074939     0.831333870
    H    -2.490717763    -0.727926686    -0.057566351
    H    -2.226323818    -0.818446408     1.678823407
    H    -3.112025664     0.544943419     0.987400079
    C    -0.961698124     0.619277891     0.669399201
    H    -0.788699202     1.250431809     1.544702661
    H    -1.026176875     1.295445240    -0.186458382
    C     0.226502174    -0.314710314     0.479985794
    H     0.309444388    -0.975139115     1.348037935
    H     0.039150560    -0.965998753    -0.378789833
    C     1.543001678     0.421174521     0.268999505
    H     1.711638628     1.107771769     1.102446539
    H     1.466094657     1.043743312    -0.625293582
    C     2.727576325    -0.526860908     0.137459311
    H     2.588741553    -1.203213913    -0.705757340
    H     3.661501004     0.011693084    -0.015968628
    H     2.835194072    -1.137409942     1.034075121
--
0 1
    C    -0.359116202    -0.255580887     3.483980919
    O    -0.781730142    -1.370761134     3.286834340
    O    -1.172808560     0.803384631     3.716570399
    H    -2.073570669     0.449004093     3.676034659
    C     1.081150861     0.154085194     3.501186302
    H     1.706973926    -0.716095751     3.343031143
    H     1.257188275     0.888358828     2.718061722
    H     1.318462108     0.623386148     4.452988693
units angstrom
no_reorient  #important for SAPT in psi4, default
symmetry c1  #important for SAPT in psi4, default
}

set {
basis aug-cc-pVDZ
scf_type DF
freeze_core True
}
energy('sapt2+')
--------------------------------------------------------------------------

  Memory set to  20.000 GiB by Python script.

  //>>>>>>>>>>>>>>>>>>>>>>>>>>>>>>>>>>>//
  //              Dimer HF             //
  //<<<<<<<<<<<<<<<<<<<<<<<<<<<<<<<<<<<//


  No DF_BASIS_SCF auxiliary basis selected, defaulting to aug-cc-pvdz-jkfit


*** tstart() called on node114.bme.utexas.edu
*** at Mon Feb 24 19:34:34 2014


         ---------------------------------------------------------
                                   SCF
            by Justin Turney, Rob Parrish, and Andy Simmonett
                              RHF Reference
                        4 Threads,  20000 MiB Core
         ---------------------------------------------------------

  ==> Geometry <==

    Molecular point group: c1
    Full point group: C1

    Geometry (in Angstrom), charge = 0, multiplicity = 1:

       Center              X                  Y                   Z       
    ------------   -----------------  -----------------  -----------------
           C         -2.258235388118    -0.068075613818    -1.019769743981
           H         -2.473608169118    -0.660927360818    -1.908669964981
           H         -2.209214224118    -0.751447082818    -0.172280206981
           H         -3.094916070118     0.611942744182    -0.863703534981
           C         -0.944588530118     0.686277216182    -1.181704412981
           H         -0.771589608118     1.317431134182    -0.306400952981
           H         -1.009067281118     1.362444565182    -2.037561995981
           C          0.243611767882    -0.247710988818    -1.371117819981
           H          0.326553981882    -0.908139789818    -0.503065678981
           H          0.056260153882    -0.898999427818    -2.229893446981
           C          1.560111271882     0.488173846182    -1.582104108981
           H          1.728748221882     1.174771094182    -0.748657074981
           H          1.483204250882     1.110742637182    -2.476397195981
           C          2.744685918882    -0.459861582818    -1.713644302981
           H          2.605851146882    -1.136214587818    -2.556860953981
           H          3.678610597882     0.078692409182    -1.867072241981
           H          2.852303665882    -1.070410616818    -0.817028492981
           C         -0.342006608118    -0.188581561818     1.632877305019
           O         -0.764620548118    -1.303761808818     1.435730726019
           O         -1.155698966118     0.870383956182     1.865466785019
           H         -2.056461075118     0.516003418182     1.824931045019
           C          1.098260454882     0.221084519182     1.650082688019
           H          1.724083519882    -0.649096425818     1.491927529019
           H          1.274297868882     0.955358153182     0.866958108019
           H          1.335571701882     0.690385473182     2.601885079019

  Running in c1 symmetry.

  Nuclear repulsion =  501.108765287879748

  Charge       = 0
  Multiplicity = 1
  Electrons    = 74
  Nalpha       = 37
  Nbeta        = 37

  ==> Algorithm <==

  SCF Algorithm Type is DF.
  DIIS enabled.
  MOM disabled.
  Fractional occupation disabled.
  Guess Type is CORE.
  Energy threshold   = 1.00e-08
  Density threshold  = 1.00e-08
  Integral threshold = 0.00e+00

  ==> Primary Basis <==

  Basis Set: AUG-CC-PVDZ
    Number of shells: 161
    Number of basis function: 351
    Number of Cartesian functions: 369
    Spherical Harmonics?: true
    Max angular momentum: 2

  ==> Pre-Iterations <==

   -------------------------------------------------------
    Irrep   Nso     Nmo     Nalpha   Nbeta   Ndocc  Nsocc
   -------------------------------------------------------
     A        351     351       0       0       0       0
   -------------------------------------------------------
    Total     351     351      37      37      37       0
   -------------------------------------------------------

 OEINTS: Wrapper to libmints.
   by Justin Turney

   Calculation information:
      Number of atoms:                  25
      Number of AO shells:             161
      Number of SO shells:             161
      Number of primitives:            337
      Number of atomic orbitals:       369
      Number of basis functions:       351

      Number of irreps:                  1
      Number of functions per irrep: [ 351 ]

      Overlap, kinetic, potential, dipole, and quadrupole integrals
        stored in file 35.

  ==> Integral Setup <==

  ==> DFJK: Density-Fitted J/K Matrices <==

    J tasked:                  Yes
    K tasked:                  Yes
    wK tasked:                  No
    OpenMP threads:              4
    Integrals threads:           4
    Memory (MB):             14305
    Algorithm:                Core
    Integral Cache:           SAVE
    Schwarz Cutoff:          0E+00
    Fitting Condition:       1E-12

   => Auxiliary Basis Set <=

  Basis Set: aug-cc-pvdz-jkfit
    Number of shells: 444
    Number of basis function: 1286
    Number of Cartesian functions: 1469
    Spherical Harmonics?: true
    Max angular momentum: 3

  Minimum eigenvalue in the overlap matrix is 8.3966691010E-06.
  Using Symmetric Orthogonalization.
  SCF Guess: Core (One-Electron) Hamiltonian.

  Guess energy:  -350.00875153499936

  ==> Iterations <==

                        Total Energy        Delta E     RMS |[F,P]|

   @RHF iter   1:  -314.73146614811486   -3.14731e+02   2.93675e-02 
   @RHF iter   2:  -178.06027992161358    1.36671e+02   3.72433e-02 DIIS
   @RHF iter   3:  -361.12283738299385   -1.83063e+02   2.02325e-02 DIIS
   @RHF iter   4:  -279.18931534044310    8.19335e+01   3.41345e-02 DIIS
   @RHF iter   5:  -414.21978061325962   -1.35030e+02   1.04526e-02 DIIS
   @RHF iter   6:  -423.91540970975751   -9.69563e+00   1.82135e-03 DIIS
   @RHF iter   7:  -424.15077755311341   -2.35368e-01   6.04049e-04 DIIS
   @RHF iter   8:  -424.17346370432034   -2.26862e-02   1.86999e-04 DIIS
   @RHF iter   9:  -424.17649977677780   -3.03607e-03   8.15706e-05 DIIS
   @RHF iter  10:  -424.17709491918043   -5.95142e-04   2.45875e-05 DIIS
   @RHF iter  11:  -424.17719707355269   -1.02154e-04   1.06547e-05 DIIS
   @RHF iter  12:  -424.17721402205103   -1.69485e-05   4.02708e-06 DIIS
   @RHF iter  13:  -424.17721720255776   -3.18051e-06   1.87451e-06 DIIS
   @RHF iter  14:  -424.17721764818890   -4.45631e-07   5.77892e-07 DIIS
   @RHF iter  15:  -424.17721770710779   -5.89189e-08   1.75606e-07 DIIS
   @RHF iter  16:  -424.17721771258499   -5.47720e-09   6.06868e-08 DIIS
   @RHF iter  17:  -424.17721771337807   -7.93079e-10   2.59481e-08 DIIS
   @RHF iter  18:  -424.17721771357850   -2.00430e-10   1.06516e-08 DIIS
   @RHF iter  19:  -424.17721771361136   -3.28555e-11   3.95126e-09 DIIS

  ==> Post-Iterations <==

	Orbital Energies (a.u.)
	-----------------------

	Doubly Occupied:                                                      

	   1A    -20.624647     2A    -20.563349     3A    -11.401389  
	   4A    -11.249486     5A    -11.220878     6A    -11.217129  
	   7A    -11.214409     8A    -11.210865     9A    -11.207507  
	  10A     -1.474043    11A     -1.370386    12A     -1.085024  
	  13A     -1.033620    14A     -1.017339    15A     -0.920064  
	  16A     -0.829425    17A     -0.819643    18A     -0.787367  
	  19A     -0.712941    20A     -0.688357    21A     -0.684448  
	  22A     -0.624260    23A     -0.600772    24A     -0.598603  
	  25A     -0.587955    26A     -0.576509    27A     -0.558051  
	  28A     -0.551755    29A     -0.547092    30A     -0.523355  
	  31A     -0.501939    32A     -0.494407    33A     -0.474396  
	  34A     -0.459566    35A     -0.454792    36A     -0.445689  
	  37A     -0.441989  

	Virtual:                                                              

	  38A      0.033959    39A      0.040470    40A      0.042022  
	  41A      0.048071    42A      0.055919    43A      0.060920  
	  44A      0.064201    45A      0.067402    46A      0.074065  
	  47A      0.083727    48A      0.085934    49A      0.090658  
	  50A      0.095560    51A      0.101487    52A      0.102664  
	  53A      0.111187    54A      0.122955    55A      0.141372  
	  56A      0.146516    57A      0.149543    58A      0.153684  
	  59A      0.156080    60A      0.160377    61A      0.161338  
	  62A      0.164092    63A      0.168668    64A      0.172967  
	  65A      0.179411    66A      0.183223    67A      0.187316  
	  68A      0.188392    69A      0.194826    70A      0.198132  
	  71A      0.204273    72A      0.210511    73A      0.213185  
	  74A      0.219957    75A      0.228169    76A      0.229659  
	  77A      0.243616    78A      0.253475    79A      0.256433  
	  80A      0.261539    81A      0.265106    82A      0.274183  
	  83A      0.283941    84A      0.293469    85A      0.297764  
	  86A      0.312160    87A      0.317856    88A      0.329838  
	  89A      0.333741    90A      0.338932    91A      0.348263  
	  92A      0.352964    93A      0.356522    94A      0.357064  
	  95A      0.373328    96A      0.381327    97A      0.387195  
	  98A      0.391493    99A      0.396642   100A      0.405248  
	 101A      0.406087   102A      0.413066   103A      0.419105  
	 104A      0.425310   105A      0.433218   106A      0.444372  
	 107A      0.450638   108A      0.454018   109A      0.456716  
	 110A      0.465697   111A      0.469712   112A      0.475032  
	 113A      0.477336   114A      0.482957   115A      0.490788  
	 116A      0.498127   117A      0.505530   118A      0.509044  
	 119A      0.513541   120A      0.520454   121A      0.523235  
	 122A      0.532679   123A      0.534779   124A      0.540368  
	 125A      0.551897   126A      0.557519   127A      0.565502  
	 128A      0.570014   129A      0.574352   130A      0.579281  
	 131A      0.586745   132A      0.595103   133A      0.601906  
	 134A      0.608240   135A      0.615577   136A      0.621126  
	 137A      0.627524   138A      0.638160   139A      0.643030  
	 140A      0.650837   141A      0.653404   142A      0.666517  
	 143A      0.667367   144A      0.669825   145A      0.683254  
	 146A      0.688560   147A      0.695257   148A      0.700115  
	 149A      0.709841   150A      0.717971   151A      0.721615  
	 152A      0.732309   153A      0.736242   154A      0.745676  
	 155A      0.749845   156A      0.752308   157A      0.763397  
	 158A      0.772169   159A      0.780702   160A      0.784134  
	 161A      0.796298   162A      0.805372   163A      0.807305  
	 164A      0.810718   165A      0.819411   166A      0.826486  
	 167A      0.829920   168A      0.845585   169A      0.847580  
	 170A      0.862786   171A      0.865567   172A      0.877082  
	 173A      0.888242   174A      0.894143   175A      0.901724  
	 176A      0.907182   177A      0.913171   178A      0.924527  
	 179A      0.927168   180A      0.939545   181A      0.948644  
	 182A      0.953545   183A      0.965200   184A      0.968289  
	 185A      0.983958   186A      0.987080   187A      0.993967  
	 188A      1.001948   189A      1.009428   190A      1.023258  
	 191A      1.037931   192A      1.050060   193A      1.052760  
	 194A      1.075303   195A      1.084859   196A      1.095437  
	 197A      1.102378   198A      1.132746   199A      1.151358  
	 200A      1.155901   201A      1.174966   202A      1.190206  
	 203A      1.198230   204A      1.212909   205A      1.234547  
	 206A      1.243467   207A      1.260257   208A      1.275296  
	 209A      1.281596   210A      1.284851   211A      1.309218  
	 212A      1.325775   213A      1.332051   214A      1.349376  
	 215A      1.366715   216A      1.387122   217A      1.398548  
	 218A      1.409156   219A      1.436616   220A      1.453307  
	 221A      1.457254   222A      1.468636   223A      1.484531  
	 224A      1.493977   225A      1.521224   226A      1.527823  
	 227A      1.550571   228A      1.555180   229A      1.592651  
	 230A      1.613714   231A      1.623093   232A      1.628338  
	 233A      1.640351   234A      1.657487   235A      1.664911  
	 236A      1.693738   237A      1.734860   238A      1.744780  
	 239A      1.753425   240A      1.776946   241A      1.790525  
	 242A      1.806026   243A      1.820250   244A      1.843866  
	 245A      1.852856   246A      1.868668   247A      1.884791  
	 248A      1.891241   249A      1.910232   250A      1.917838  
	 251A      1.949924   252A      1.957331   253A      1.967269  
	 254A      1.981152   255A      1.992565   256A      1.996731  
	 257A      2.021237   258A      2.044470   259A      2.059655  
	 260A      2.079226   261A      2.098657   262A      2.108685  
	 263A      2.121785   264A      2.133185   265A      2.135439  
	 266A      2.146424   267A      2.154116   268A      2.163359  
	 269A      2.175345   270A      2.186330   271A      2.196720  
	 272A      2.207809   273A      2.214647   274A      2.220742  
	 275A      2.240144   276A      2.256346   277A      2.266085  
	 278A      2.281626   279A      2.283911   280A      2.298373  
	 281A      2.307702   282A      2.317010   283A      2.327441  
	 284A      2.338117   285A      2.366683   286A      2.376812  
	 287A      2.390093   288A      2.398534   289A      2.422412  
	 290A      2.441111   291A      2.454258   292A      2.459039  
	 293A      2.482138   294A      2.485897   295A      2.507366  
	 296A      2.514003   297A      2.517033   298A      2.527501  
	 299A      2.548753   300A      2.557380   301A      2.577841  
	 302A      2.603133   303A      2.631468   304A      2.644227  
	 305A      2.669461   306A      2.698440   307A      2.717287  
	 308A      2.728596   309A      2.742613   310A      2.755391  
	 311A      2.764361   312A      2.794497   313A      2.804364  
	 314A      2.810393   315A      2.837927   316A      2.852220  
	 317A      2.880847   318A      2.908807   319A      2.919532  
	 320A      2.940438   321A      2.965274   322A      2.995462  
	 323A      3.026437   324A      3.036845   325A      3.057818  
	 326A      3.104363   327A      3.123797   328A      3.126577  
	 329A      3.146550   330A      3.180392   331A      3.202402  
	 332A      3.231118   333A      3.257292   334A      3.280120  
	 335A      3.307036   336A      3.411403   337A      3.449061  
	 338A      3.531575   339A      3.554370   340A      3.670186  
	 341A      3.750367   342A      3.823992   343A      3.841973  
	 344A      3.881791   345A      3.899218   346A      3.936386  
	 347A      3.950885   348A      3.982795   349A      4.112046  
	 350A      4.273201   351A      4.428955  

	Final Occupation by Irrep:
	          A 
	DOCC [    37 ]

  Energy converged.

  @RHF Final Energy:  -424.17721771361136

   => Energetics <=

    Nuclear Repulsion Energy =            501.1087652878797485
    One-Electron Energy =               -1571.0250789414276369
    Two-Electron Energy =                 645.7390959399367603
    DFT Exchange-Correlation Energy =       0.0000000000000000
    Empirical Dispersion Energy =           0.0000000000000000
    Total Energy =                       -424.1772177136110713



Properties will be evaluated at   0.000000,   0.000000,   0.000000 Bohr
  ==> Properties <==


Properties computed using the SCF density density matrix
  Nuclear Dipole Moment: (a.u.)
     X:     5.1006      Y:     1.6315      Z:    -9.0794

  Electronic Dipole Moment: (a.u.)
     X:    -4.8112      Y:    -1.0036      Z:     9.2027

  Dipole Moment: (a.u.)
     X:     0.2894      Y:     0.6279      Z:     0.1234     Total:     0.7023

  Dipole Moment: (Debye)
     X:     0.7356      Y:     1.5960      Z:     0.3136     Total:     1.7851


  Saving occupied orbitals to File 180.

  Saving SAPT 2-DIMER file.

*** tstop() called on node114.bme.utexas.edu at Mon Feb 24 19:35:44 2014
Module time:
	user time   =     260.50 seconds =       4.34 minutes
	system time =       2.05 seconds =       0.03 minutes
	total time  =         70 seconds =       1.17 minutes
Total time:
	user time   =     260.50 seconds =       4.34 minutes
	system time =       2.05 seconds =       0.03 minutes
	total time  =         70 seconds =       1.17 minutes

  //>>>>>>>>>>>>>>>>>>>>>>>>>>>>>>>>>>>//
  //            Monomer A HF           //
  //<<<<<<<<<<<<<<<<<<<<<<<<<<<<<<<<<<<//


  No DF_BASIS_SCF auxiliary basis selected, defaulting to aug-cc-pvdz-jkfit


*** tstart() called on node114.bme.utexas.edu
*** at Mon Feb 24 19:35:44 2014


         ---------------------------------------------------------
                                   SCF
            by Justin Turney, Rob Parrish, and Andy Simmonett
                              RHF Reference
                        4 Threads,  20000 MiB Core
         ---------------------------------------------------------

  ==> Geometry <==

    Molecular point group: c1
    Full point group: C1

    Geometry (in Angstrom), charge = 0, multiplicity = 1:

       Center              X                  Y                   Z       
    ------------   -----------------  -----------------  -----------------
           C         -2.258235388118    -0.068075613818    -1.019769743981
           H         -2.473608169118    -0.660927360818    -1.908669964981
           H         -2.209214224118    -0.751447082818    -0.172280206981
           H         -3.094916070118     0.611942744182    -0.863703534981
           C         -0.944588530118     0.686277216182    -1.181704412981
           H         -0.771589608118     1.317431134182    -0.306400952981
           H         -1.009067281118     1.362444565182    -2.037561995981
           C          0.243611767882    -0.247710988818    -1.371117819981
           H          0.326553981882    -0.908139789818    -0.503065678981
           H          0.056260153882    -0.898999427818    -2.229893446981
           C          1.560111271882     0.488173846182    -1.582104108981
           H          1.728748221882     1.174771094182    -0.748657074981
           H          1.483204250882     1.110742637182    -2.476397195981
           C          2.744685918882    -0.459861582818    -1.713644302981
           H          2.605851146882    -1.136214587818    -2.556860953981
           H          3.678610597882     0.078692409182    -1.867072241981
           H          2.852303665882    -1.070410616818    -0.817028492981
           C(Gh)     -0.342006608118    -0.188581561818     1.632877305019
           O(Gh)     -0.764620548118    -1.303761808818     1.435730726019
           O(Gh)     -1.155698966118     0.870383956182     1.865466785019
           H(Gh)     -2.056461075118     0.516003418182     1.824931045019
           C(Gh)      1.098260454882     0.221084519182     1.650082688019
           H(Gh)      1.724083519882    -0.649096425818     1.491927529019
           H(Gh)      1.274297868882     0.955358153182     0.866958108019
           H(Gh)      1.335571701882     0.690385473182     2.601885079019

  Running in c1 symmetry.

  Nuclear repulsion =  185.624925999332106

  Charge       = 0
  Multiplicity = 1
  Electrons    = 42
  Nalpha       = 21
  Nbeta        = 21

  ==> Algorithm <==

  SCF Algorithm Type is DF.
  DIIS enabled.
  MOM disabled.
  Fractional occupation disabled.
  Guess Type is CORE.
  Energy threshold   = 1.00e-08
  Density threshold  = 1.00e-08
  Integral threshold = 0.00e+00

  ==> Primary Basis <==

  Basis Set: AUG-CC-PVDZ
    Number of shells: 161
    Number of basis function: 351
    Number of Cartesian functions: 369
    Spherical Harmonics?: true
    Max angular momentum: 2

  ==> Pre-Iterations <==

   -------------------------------------------------------
    Irrep   Nso     Nmo     Nalpha   Nbeta   Ndocc  Nsocc
   -------------------------------------------------------
     A        351     351       0       0       0       0
   -------------------------------------------------------
    Total     351     351      21      21      21       0
   -------------------------------------------------------

 OEINTS: Wrapper to libmints.
   by Justin Turney

   Calculation information:
      Number of atoms:                  25
      Number of AO shells:             161
      Number of SO shells:             161
      Number of primitives:            337
      Number of atomic orbitals:       369
      Number of basis functions:       351

      Number of irreps:                  1
      Number of functions per irrep: [ 351 ]

      Overlap, kinetic, potential, dipole, and quadrupole integrals
        stored in file 35.

  ==> Integral Setup <==

  ==> DFJK: Density-Fitted J/K Matrices <==

    J tasked:                  Yes
    K tasked:                  Yes
    wK tasked:                  No
    OpenMP threads:              4
    Integrals threads:           4
    Memory (MB):             14305
    Algorithm:                Core
    Integral Cache:           LOAD
    Schwarz Cutoff:          0E+00
    Fitting Condition:       1E-12

   => Auxiliary Basis Set <=

  Basis Set: aug-cc-pvdz-jkfit
    Number of shells: 444
    Number of basis function: 1286
    Number of Cartesian functions: 1469
    Spherical Harmonics?: true
    Max angular momentum: 3

  Minimum eigenvalue in the overlap matrix is 8.3966691011E-06.
  Using Symmetric Orthogonalization.
  SCF Guess: Core (One-Electron) Hamiltonian.

  Guess energy:  -160.05905887585220

  ==> Iterations <==

                        Total Energy        Delta E     RMS |[F,P]|

   @RHF iter   1:  -150.45611614525689   -1.50456e+02   1.80562e-02 
   @RHF iter   2:  -138.91185966819137    1.15443e+01   1.21229e-02 DIIS
   @RHF iter   3:  -177.85459063160664   -3.89427e+01   1.49094e-02 DIIS
   @RHF iter   4:  -188.09927209542752   -1.02447e+01   1.04473e-02 DIIS
   @RHF iter   5:  -191.83531093413410   -3.73604e+00   7.95148e-03 DIIS
   @RHF iter   6:  -195.57920376119625   -3.74389e+00   3.02281e-03 DIIS
   @RHF iter   7:  -196.15037771923255   -5.71174e-01   1.55149e-03 DIIS
   @RHF iter   8:  -196.34562627667549   -1.95249e-01   2.88093e-04 DIIS
   @RHF iter   9:  -196.35413448310601   -8.50821e-03   6.16199e-05 DIIS
   @RHF iter  10:  -196.35445176253023   -3.17279e-04   2.32600e-05 DIIS
   @RHF iter  11:  -196.35451768292091   -6.59204e-05   5.07821e-06 DIIS
   @RHF iter  12:  -196.35452083100887   -3.14809e-06   1.48499e-06 DIIS
   @RHF iter  13:  -196.35452107821106   -2.47202e-07   4.47092e-07 DIIS
   @RHF iter  14:  -196.35452110110327   -2.28922e-08   6.75620e-08 DIIS
   @RHF iter  15:  -196.35452110178085   -6.77574e-10   2.01345e-08 DIIS
   @RHF iter  16:  -196.35452110182990   -4.90559e-11   4.92115e-09 DIIS

  ==> Post-Iterations <==

	Orbital Energies (a.u.)
	-----------------------

	Doubly Occupied:                                                      

	   1A    -11.218229     2A    -11.218157     3A    -11.215626  
	   4A    -11.213852     5A    -11.213844     6A     -1.082405  
	   7A     -1.016554     8A     -0.919856     9A     -0.820436  
	  10A     -0.785706    11A     -0.646402    12A     -0.598329  
	  13A     -0.592169    14A     -0.553337    15A     -0.546986  
	  16A     -0.524673    17A     -0.493898    18A     -0.474630  
	  19A     -0.461563    20A     -0.457721    21A     -0.445924  

	Virtual:                                                              

	  22A      0.029531    23A      0.040695    24A      0.041069  
	  25A      0.043594    26A      0.057524    27A      0.060347  
	  28A      0.062387    29A      0.063251    30A      0.073264  
	  31A      0.083645    32A      0.084541    33A      0.089750  
	  34A      0.093951    35A      0.096229    36A      0.098739  
	  37A      0.101583    38A      0.119658    39A      0.125374  
	  40A      0.139236    41A      0.141216    42A      0.145334  
	  43A      0.153182    44A      0.158721    45A      0.162838  
	  46A      0.164725    47A      0.168277    48A      0.173679  
	  49A      0.175749    50A      0.178359    51A      0.183531  
	  52A      0.186842    53A      0.189150    54A      0.194171  
	  55A      0.203019    56A      0.208986    57A      0.217258  
	  58A      0.220621    59A      0.227091    60A      0.232636  
	  61A      0.240754    62A      0.244286    63A      0.250682  
	  64A      0.257564    65A      0.266466    66A      0.266811  
	  67A      0.288612    68A      0.291039    69A      0.299480  
	  70A      0.306758    71A      0.316962    72A      0.318362  
	  73A      0.322866    74A      0.331333    75A      0.332165  
	  76A      0.343319    77A      0.353417    78A      0.362939  
	  79A      0.367329    80A      0.369826    81A      0.391742  
	  82A      0.399425    83A      0.403018    84A      0.405864  
	  85A      0.406149    86A      0.420855    87A      0.426974  
	  88A      0.432657    89A      0.442252    90A      0.447505  
	  91A      0.453004    92A      0.456019    93A      0.463219  
	  94A      0.470314    95A      0.473909    96A      0.480896  
	  97A      0.488239    98A      0.495634    99A      0.499160  
	 100A      0.501812   101A      0.503973   102A      0.510836  
	 103A      0.519273   104A      0.520192   105A      0.526532  
	 106A      0.530291   107A      0.537731   108A      0.541535  
	 109A      0.561565   110A      0.564415   111A      0.567484  
	 112A      0.581223   113A      0.588673   114A      0.594959  
	 115A      0.598983   116A      0.604638   117A      0.615014  
	 118A      0.620690   119A      0.627789   120A      0.636674  
	 121A      0.646742   122A      0.651091   123A      0.657395  
	 124A      0.663411   125A      0.671490   126A      0.673307  
	 127A      0.677366   128A      0.685545   129A      0.690549  
	 130A      0.700654   131A      0.707245   132A      0.717303  
	 133A      0.720479   134A      0.724702   135A      0.729934  
	 136A      0.739309   137A      0.746953   138A      0.756465  
	 139A      0.759626   140A      0.771063   141A      0.777258  
	 142A      0.784219   143A      0.800878   144A      0.805374  
	 145A      0.813528   146A      0.820160   147A      0.825185  
	 148A      0.829214   149A      0.843252   150A      0.847464  
	 151A      0.854833   152A      0.862734   153A      0.873675  
	 154A      0.877064   155A      0.891813   156A      0.902007  
	 157A      0.904575   158A      0.906760   159A      0.918531  
	 160A      0.923353   161A      0.939796   162A      0.947063  
	 163A      0.951252   164A      0.961437   165A      0.969405  
	 166A      0.978215   167A      0.983988   168A      0.987892  
	 169A      0.997198   170A      0.998727   171A      1.004263  
	 172A      1.013010   173A      1.019330   174A      1.041560  
	 175A      1.043493   176A      1.056681   177A      1.074463  
	 178A      1.078365   179A      1.088164   180A      1.098456  
	 181A      1.120150   182A      1.133759   183A      1.147080  
	 184A      1.166587   185A      1.183562   186A      1.202816  
	 187A      1.212729   188A      1.219807   189A      1.223963  
	 190A      1.242589   191A      1.255100   192A      1.272631  
	 193A      1.278984   194A      1.299062   195A      1.318842  
	 196A      1.325760   197A      1.340617   198A      1.367994  
	 199A      1.375045   200A      1.408243   201A      1.425544  
	 202A      1.432155   203A      1.444933   204A      1.471889  
	 205A      1.484129   206A      1.491275   207A      1.516662  
	 208A      1.520319   209A      1.530875   210A      1.550167  
	 211A      1.563927   212A      1.577758   213A      1.614451  
	 214A      1.638035   215A      1.652237   216A      1.660147  
	 217A      1.665982   218A      1.676531   219A      1.724237  
	 220A      1.734370   221A      1.758057   222A      1.762768  
	 223A      1.798453   224A      1.804090   225A      1.810520  
	 226A      1.825370   227A      1.835774   228A      1.874325  
	 229A      1.884250   230A      1.902795   231A      1.928604  
	 232A      1.937905   233A      1.942155   234A      1.968235  
	 235A      1.990170   236A      1.997449   237A      2.024472  
	 238A      2.048517   239A      2.063696   240A      2.077931  
	 241A      2.120870   242A      2.124931   243A      2.134394  
	 244A      2.136388   245A      2.155253   246A      2.168739  
	 247A      2.173862   248A      2.185822   249A      2.199917  
	 250A      2.204559   251A      2.233763   252A      2.247061  
	 253A      2.252255   254A      2.261266   255A      2.285564  
	 256A      2.298682   257A      2.309254   258A      2.323883  
	 259A      2.327442   260A      2.351415   261A      2.371326  
	 262A      2.377730   263A      2.389787   264A      2.394694  
	 265A      2.399670   266A      2.429189   267A      2.440494  
	 268A      2.460142   269A      2.465655   270A      2.475189  
	 271A      2.483001   272A      2.503882   273A      2.526613  
	 274A      2.533404   275A      2.552375   276A      2.554752  
	 277A      2.580986   278A      2.596605   279A      2.615455  
	 280A      2.632400   281A      2.673912   282A      2.681613  
	 283A      2.699966   284A      2.706449   285A      2.727610  
	 286A      2.736863   287A      2.759631   288A      2.776290  
	 289A      2.784548   290A      2.791916   291A      2.817427  
	 292A      2.829497   293A      2.835652   294A      2.868683  
	 295A      2.895732   296A      2.911035   297A      2.924811  
	 298A      2.937541   299A      2.947884   300A      2.969048  
	 301A      2.981216   302A      3.023744   303A      3.043723  
	 304A      3.061831   305A      3.103775   306A      3.132834  
	 307A      3.138974   308A      3.179843   309A      3.184651  
	 310A      3.221770   311A      3.245859   312A      3.255596  
	 313A      3.301987   314A      3.363952   315A      3.369347  
	 316A      3.451174   317A      3.496055   318A      3.546603  
	 319A      3.569248   320A      3.652095   321A      3.710560  
	 322A      3.924859   323A      4.081206   324A      4.211818  
	 325A      4.284828   326A      4.310652   327A      4.661684  
	 328A      4.726903   329A      4.822484   330A      5.055762  
	 331A      5.096316   332A      5.108948   333A      5.123093  
	 334A      5.135915   335A      5.154783   336A      5.197619  
	 337A      5.237669   338A      5.283013   339A      5.654433  
	 340A      5.709947   341A      6.033949   342A      6.238796  
	 343A      6.327149   344A      6.535308   345A      6.650533  
	 346A      6.986933   347A      7.132426   348A     18.418559  
	 349A     19.174728   350A     33.533957   351A     33.576790  

	Final Occupation by Irrep:
	          A 
	DOCC [    21 ]

  Energy converged.

  @RHF Final Energy:  -196.35452110182990

   => Energetics <=

    Nuclear Repulsion Energy =            185.6249259993321061
    One-Electron Energy =                -630.9582990867351100
    Two-Electron Energy =                 248.9788519855737263
    DFT Exchange-Correlation Energy =       0.0000000000000000
    Empirical Dispersion Energy =           0.0000000000000000
    Total Energy =                       -196.3545211018292775



Properties will be evaluated at   0.000000,   0.000000,   0.000000 Bohr
  ==> Properties <==


Properties computed using the SCF density density matrix
  Nuclear Dipole Moment: (a.u.)
     X:    21.2531      Y:     4.9562      Z:  -109.0327

  Electronic Dipole Moment: (a.u.)
     X:   -21.2506      Y:    -4.9226      Z:   109.0297

  Dipole Moment: (a.u.)
     X:     0.0025      Y:     0.0336      Z:    -0.0030     Total:     0.0338

  Dipole Moment: (Debye)
     X:     0.0063      Y:     0.0854      Z:    -0.0076     Total:     0.0859


  Saving occupied orbitals to File 180.

  Saving SAPT 2-MONOMER_A file.

*** tstop() called on node114.bme.utexas.edu at Mon Feb 24 19:36:25 2014
Module time:
	user time   =     155.85 seconds =       2.60 minutes
	system time =       1.09 seconds =       0.02 minutes
	total time  =         41 seconds =       0.68 minutes
Total time:
	user time   =     416.36 seconds =       6.94 minutes
	system time =       3.14 seconds =       0.05 minutes
	total time  =        111 seconds =       1.85 minutes

  //>>>>>>>>>>>>>>>>>>>>>>>>>>>>>>>>>>>//
  //            Monomer B HF           //
  //<<<<<<<<<<<<<<<<<<<<<<<<<<<<<<<<<<<//


  No DF_BASIS_SCF auxiliary basis selected, defaulting to aug-cc-pvdz-jkfit


*** tstart() called on node114.bme.utexas.edu
*** at Mon Feb 24 19:36:25 2014


         ---------------------------------------------------------
                                   SCF
            by Justin Turney, Rob Parrish, and Andy Simmonett
                              RHF Reference
                        4 Threads,  20000 MiB Core
         ---------------------------------------------------------

  ==> Geometry <==

    Molecular point group: c1
    Full point group: C1

    Geometry (in Angstrom), charge = 0, multiplicity = 1:

       Center              X                  Y                   Z       
    ------------   -----------------  -----------------  -----------------
           C(Gh)     -2.258235388118    -0.068075613818    -1.019769743981
           H(Gh)     -2.473608169118    -0.660927360818    -1.908669964981
           H(Gh)     -2.209214224118    -0.751447082818    -0.172280206981
           H(Gh)     -3.094916070118     0.611942744182    -0.863703534981
           C(Gh)     -0.944588530118     0.686277216182    -1.181704412981
           H(Gh)     -0.771589608118     1.317431134182    -0.306400952981
           H(Gh)     -1.009067281118     1.362444565182    -2.037561995981
           C(Gh)      0.243611767882    -0.247710988818    -1.371117819981
           H(Gh)      0.326553981882    -0.908139789818    -0.503065678981
           H(Gh)      0.056260153882    -0.898999427818    -2.229893446981
           C(Gh)      1.560111271882     0.488173846182    -1.582104108981
           H(Gh)      1.728748221882     1.174771094182    -0.748657074981
           H(Gh)      1.483204250882     1.110742637182    -2.476397195981
           C(Gh)      2.744685918882    -0.459861582818    -1.713644302981
           H(Gh)      2.605851146882    -1.136214587818    -2.556860953981
           H(Gh)      3.678610597882     0.078692409182    -1.867072241981
           H(Gh)      2.852303665882    -1.070410616818    -0.817028492981
           C         -0.342006608118    -0.188581561818     1.632877305019
           O         -0.764620548118    -1.303761808818     1.435730726019
           O         -1.155698966118     0.870383956182     1.865466785019
           H         -2.056461075118     0.516003418182     1.824931045019
           C          1.098260454882     0.221084519182     1.650082688019
           H          1.724083519882    -0.649096425818     1.491927529019
           H          1.274297868882     0.955358153182     0.866958108019
           H          1.335571701882     0.690385473182     2.601885079019

  Running in c1 symmetry.

  Nuclear repulsion =  121.239726579920486

  Charge       = 0
  Multiplicity = 1
  Electrons    = 32
  Nalpha       = 16
  Nbeta        = 16

  ==> Algorithm <==

  SCF Algorithm Type is DF.
  DIIS enabled.
  MOM disabled.
  Fractional occupation disabled.
  Guess Type is CORE.
  Energy threshold   = 1.00e-08
  Density threshold  = 1.00e-08
  Integral threshold = 0.00e+00

  ==> Primary Basis <==

  Basis Set: AUG-CC-PVDZ
    Number of shells: 161
    Number of basis function: 351
    Number of Cartesian functions: 369
    Spherical Harmonics?: true
    Max angular momentum: 2

  ==> Pre-Iterations <==

   -------------------------------------------------------
    Irrep   Nso     Nmo     Nalpha   Nbeta   Ndocc  Nsocc
   -------------------------------------------------------
     A        351     351       0       0       0       0
   -------------------------------------------------------
    Total     351     351      16      16      16       0
   -------------------------------------------------------

 OEINTS: Wrapper to libmints.
   by Justin Turney

   Calculation information:
      Number of atoms:                  25
      Number of AO shells:             161
      Number of SO shells:             161
      Number of primitives:            337
      Number of atomic orbitals:       369
      Number of basis functions:       351

      Number of irreps:                  1
      Number of functions per irrep: [ 351 ]

      Overlap, kinetic, potential, dipole, and quadrupole integrals
        stored in file 35.

  ==> Integral Setup <==

  ==> DFJK: Density-Fitted J/K Matrices <==

    J tasked:                  Yes
    K tasked:                  Yes
    wK tasked:                  No
    OpenMP threads:              4
    Integrals threads:           4
    Memory (MB):             14305
    Algorithm:                Core
    Integral Cache:           LOAD
    Schwarz Cutoff:          0E+00
    Fitting Condition:       1E-12

   => Auxiliary Basis Set <=

  Basis Set: aug-cc-pvdz-jkfit
    Number of shells: 444
    Number of basis function: 1286
    Number of Cartesian functions: 1469
    Spherical Harmonics?: true
    Max angular momentum: 3

  Minimum eigenvalue in the overlap matrix is 8.3966691011E-06.
  Using Symmetric Orthogonalization.
  SCF Guess: Core (One-Electron) Hamiltonian.

  Guess energy:  -179.15034457176256

  ==> Iterations <==

                        Total Energy        Delta E     RMS |[F,P]|

   @RHF iter   1:  -189.34456019062299   -1.89345e+02   1.81821e-02 
   @RHF iter   2:  -149.06380849465194    4.02808e+01   1.77927e-02 DIIS
   @RHF iter   3:  -210.01280210929963   -6.09490e+01   1.12785e-02 DIIS
   @RHF iter   4:  -226.20442280022030   -1.61916e+01   5.17407e-03 DIIS
   @RHF iter   5:  -227.69523669116484   -1.49081e+00   1.70847e-03 DIIS
   @RHF iter   6:  -227.82554144634679   -1.30305e-01   6.16119e-04 DIIS
   @RHF iter   7:  -227.84684741072186   -2.13060e-02   1.90838e-04 DIIS
   @RHF iter   8:  -227.84983291781117   -2.98551e-03   7.15190e-05 DIIS
   @RHF iter   9:  -227.85040386339409   -5.70946e-04   2.38927e-05 DIIS
   @RHF iter  10:  -227.85049540510221   -9.15417e-05   7.79869e-06 DIIS
   @RHF iter  11:  -227.85050711589230   -1.17108e-05   2.67264e-06 DIIS
   @RHF iter  12:  -227.85050824309633   -1.12720e-06   8.49256e-07 DIIS
   @RHF iter  13:  -227.85050837270848   -1.29612e-07   1.82511e-07 DIIS
   @RHF iter  14:  -227.85050837927275   -6.56428e-09   4.01390e-08 DIIS
   @RHF iter  15:  -227.85050837955635   -2.83592e-10   9.21054e-09 DIIS

  ==> Post-Iterations <==

	Orbital Energies (a.u.)
	-----------------------

	Doubly Occupied:                                                      

	   1A    -20.625350     2A    -20.564017     3A    -11.400208  
	   4A    -11.252943     5A     -1.471449     6A     -1.367395  
	   7A     -1.032572     8A     -0.825264     9A     -0.710057  
	  10A     -0.683042    11A     -0.652617    12A     -0.587273  
	  13A     -0.575412    14A     -0.562847    15A     -0.485028  
	  16A     -0.456477  

	Virtual:                                                              

	  17A      0.022209    18A      0.033026    19A      0.038100  
	  20A      0.044868    21A      0.053126    22A      0.058399  
	  23A      0.061810    24A      0.066796    25A      0.068608  
	  26A      0.082249    27A      0.085566    28A      0.089486  
	  29A      0.091363    30A      0.095808    31A      0.098546  
	  32A      0.104167    33A      0.111926    34A      0.114698  
	  35A      0.123675    36A      0.130455    37A      0.137959  
	  38A      0.148029    39A      0.149742    40A      0.154157  
	  41A      0.159052    42A      0.166024    43A      0.166180  
	  44A      0.169801    45A      0.173433    46A      0.178042  
	  47A      0.179077    48A      0.184855    49A      0.191431  
	  50A      0.197978    51A      0.206081    52A      0.207125  
	  53A      0.210637    54A      0.212772    55A      0.220123  
	  56A      0.224949    57A      0.229534    58A      0.240247  
	  59A      0.252483    60A      0.261546    61A      0.264046  
	  62A      0.269306    63A      0.284851    64A      0.296030  
	  65A      0.306683    66A      0.308439    67A      0.312302  
	  68A      0.329285    69A      0.331321    70A      0.340948  
	  71A      0.352683    72A      0.360580    73A      0.363749  
	  74A      0.376537    75A      0.377929    76A      0.382379  
	  77A      0.384379    78A      0.399918    79A      0.403706  
	  80A      0.411279    81A      0.417305    82A      0.420938  
	  83A      0.425490    84A      0.430315    85A      0.445532  
	  86A      0.447481    87A      0.449158    88A      0.454208  
	  89A      0.460830    90A      0.471126    91A      0.474689  
	  92A      0.480094    93A      0.487901    94A      0.490142  
	  95A      0.491563    96A      0.506157    97A      0.514871  
	  98A      0.521322    99A      0.530525   100A      0.539964  
	 101A      0.545884   102A      0.550671   103A      0.557964  
	 104A      0.558783   105A      0.572755   106A      0.582804  
	 107A      0.586570   108A      0.590102   109A      0.597341  
	 110A      0.599887   111A      0.615856   112A      0.620571  
	 113A      0.622786   114A      0.625949   115A      0.639958  
	 116A      0.644204   117A      0.651677   118A      0.659469  
	 119A      0.676220   120A      0.679450   121A      0.686010  
	 122A      0.688805   123A      0.701901   124A      0.710767  
	 125A      0.718177   126A      0.727535   127A      0.731098  
	 128A      0.736932   129A      0.745889   130A      0.757687  
	 131A      0.770997   132A      0.774323   133A      0.776614  
	 134A      0.781334   135A      0.790977   136A      0.801510  
	 137A      0.805346   138A      0.814931   139A      0.820799  
	 140A      0.828105   141A      0.833139   142A      0.835772  
	 143A      0.839968   144A      0.841032   145A      0.859424  
	 146A      0.869284   147A      0.876542   148A      0.881596  
	 149A      0.885483   150A      0.892375   151A      0.898141  
	 152A      0.904965   153A      0.915576   154A      0.917711  
	 155A      0.928785   156A      0.936314   157A      0.955333  
	 158A      0.957879   159A      0.962338   160A      0.971161  
	 161A      0.973219   162A      0.978930   163A      0.982311  
	 164A      0.989501   165A      0.993947   166A      0.998825  
	 167A      1.023050   168A      1.031941   169A      1.040665  
	 170A      1.045523   171A      1.067096   172A      1.076372  
	 173A      1.077442   174A      1.091075   175A      1.099726  
	 176A      1.110335   177A      1.124463   178A      1.129949  
	 179A      1.142973   180A      1.149155   181A      1.162380  
	 182A      1.167414   183A      1.198738   184A      1.204140  
	 185A      1.218207   186A      1.227260   187A      1.244642  
	 188A      1.261246   189A      1.267028   190A      1.281026  
	 191A      1.296696   192A      1.301671   193A      1.305552  
	 194A      1.319076   195A      1.339194   196A      1.356964  
	 197A      1.372876   198A      1.401391   199A      1.431098  
	 200A      1.451868   201A      1.465605   202A      1.491087  
	 203A      1.504070   204A      1.524566   205A      1.542651  
	 206A      1.553231   207A      1.591596   208A      1.619489  
	 209A      1.635047   210A      1.714974   211A      1.754116  
	 212A      1.798679   213A      1.836978   214A      1.860963  
	 215A      1.870473   216A      1.933893   217A      1.946664  
	 218A      1.992426   219A      2.009716   220A      2.017190  
	 221A      2.040089   222A      2.050358   223A      2.087023  
	 224A      2.111638   225A      2.116836   226A      2.135542  
	 227A      2.150034   228A      2.150481   229A      2.174356  
	 230A      2.195814   231A      2.214145   232A      2.246604  
	 233A      2.250770   234A      2.267014   235A      2.274076  
	 236A      2.286040   237A      2.296445   238A      2.301804  
	 239A      2.312321   240A      2.333423   241A      2.347916  
	 242A      2.352077   243A      2.377628   244A      2.381903  
	 245A      2.390281   246A      2.409806   247A      2.417573  
	 248A      2.421744   249A      2.423701   250A      2.430827  
	 251A      2.435042   252A      2.443031   253A      2.454483  
	 254A      2.460435   255A      2.464620   256A      2.475228  
	 257A      2.485736   258A      2.495317   259A      2.501802  
	 260A      2.510772   261A      2.516518   262A      2.535546  
	 263A      2.555009   264A      2.573452   265A      2.575391  
	 266A      2.590515   267A      2.601069   268A      2.606191  
	 269A      2.623216   270A      2.636049   271A      2.644262  
	 272A      2.666195   273A      2.683951   274A      2.690395  
	 275A      2.710078   276A      2.732258   277A      2.744561  
	 278A      2.768628   279A      2.782479   280A      2.795874  
	 281A      2.838514   282A      2.847089   283A      2.880894  
	 284A      2.890565   285A      2.915534   286A      2.932140  
	 287A      2.956669   288A      2.983856   289A      3.021053  
	 290A      3.028805   291A      3.064751   292A      3.085780  
	 293A      3.095596   294A      3.127155   295A      3.162287  
	 296A      3.176659   297A      3.183920   298A      3.214020  
	 299A      3.232027   300A      3.257026   301A      3.290329  
	 302A      3.311720   303A      3.366619   304A      3.386807  
	 305A      3.447098   306A      3.465564   307A      3.482928  
	 308A      3.500345   309A      3.512294   310A      3.556785  
	 311A      3.585123   312A      3.595220   313A      3.627658  
	 314A      3.692302   315A      3.722220   316A      3.757171  
	 317A      3.806856   318A      3.834251   319A      3.838754  
	 320A      3.869756   321A      3.896888   322A      3.914461  
	 323A      3.940380   324A      3.949600   325A      3.969469  
	 326A      4.011505   327A      4.039414   328A      4.111896  
	 329A      4.210962   330A      4.331747   331A      4.408547  
	 332A      4.458615   333A      4.524778   334A      4.592332  
	 335A      4.656234   336A      4.834778   337A      4.877453  
	 338A      4.904759   339A      4.949283   340A      5.020557  
	 341A      5.040574   342A      5.145683   343A      5.191049  
	 344A      5.270384   345A      5.297020   346A      5.393265  
	 347A     18.318403   348A     18.481566   349A     18.726893  
	 350A     19.061895   351A     19.253328  

	Final Occupation by Irrep:
	          A 
	DOCC [    16 ]

  Energy converged.

  @RHF Final Energy:  -227.85050837955635

   => Energetics <=

    Nuclear Repulsion Energy =            121.2397265799204860
    One-Electron Energy =                -551.6765610251422913
    Two-Electron Energy =                 202.5863260656656735
    DFT Exchange-Correlation Energy =       0.0000000000000000
    Empirical Dispersion Energy =           0.0000000000000000
    Total Energy =                       -227.8505083795561177



Properties will be evaluated at   0.000000,   0.000000,   0.000000 Bohr
  ==> Properties <==


Properties computed using the SCF density density matrix
  Nuclear Dipole Moment: (a.u.)
     X:   -16.1525      Y:    -3.3247      Z:    99.9534

  Electronic Dipole Moment: (a.u.)
     X:    16.4634      Y:     4.0396      Z:   -99.8345

  Dipole Moment: (a.u.)
     X:     0.3109      Y:     0.7149      Z:     0.1189     Total:     0.7886

  Dipole Moment: (Debye)
     X:     0.7902      Y:     1.8170      Z:     0.3022     Total:     2.0043


  Saving occupied orbitals to File 180.

  Saving SAPT 2-MONOMER_B file.

*** tstop() called on node114.bme.utexas.edu at Mon Feb 24 19:37:25 2014
Module time:
	user time   =     180.99 seconds =       3.02 minutes
	system time =       1.68 seconds =       0.03 minutes
	total time  =         60 seconds =       1.00 minutes
Total time:
	user time   =     597.37 seconds =       9.96 minutes
	system time =       4.82 seconds =       0.08 minutes
	total time  =        171 seconds =       2.85 minutes
  No DF_BASIS_SAPT auxiliary basis selected, defaulting to aug-cc-pvdz-ri

  //>>>>>>>>>>>>>>>>>>>>>>>>>>>>>>>>>>>//
  //               SAPT2+              //
  //<<<<<<<<<<<<<<<<<<<<<<<<<<<<<<<<<<<//


*** tstart() called on node114.bme.utexas.edu
*** at Mon Feb 24 19:37:25 2014

        SAPT2+  
    Ed Hohenstein
     6 June 2009

      Orbital Information
  --------------------------
    NSO        =       351
    NMO        =       351
    NRI        =      1016
    NOCC A     =        21
    NOCC B     =        16
    FOCC A     =         5
    FOCC B     =         4
    NVIR A     =       330
    NVIR B     =       335

    Estimated memory usage: 2100.0 MB

    Elst10,r            =    -0.017362517392 H
    Exch10 (S^2)        =     0.050199669163 H
    Exch10              =     0.050575594378 H
    Ind20,r (A<-B)      =    -0.010557319231 H
    Ind20,r (B<-A)      =    -0.003937178872 H
    Ind20,r             =    -0.014494498103 H
    Exch-Ind20,r (A<-B) =     0.008935233240 H
    Exch-Ind20,r (B<-A) =     0.003281870789 H
    Exch-Ind20,r        =     0.012217104029 H
    Disp20              =    -0.025587665265 H
    Exch-Disp20         =     0.004029957090 H
    Elst12,r            =    -0.002317415140 H
    Exch11              =     0.000502917972 H
    Exch12              =     0.004887314513 H
    Ind22               =    -0.001843149768 H
    Disp21              =     0.003021450687 H
    Disp22 (SDQ)        =    -0.000351677979 H

    (i =   1 of  12)       1216 seconds
    (i =   2 of  12)       2408 seconds
    (i =   3 of  12)       3623 seconds
    (i =   4 of  12)       4838 seconds
    (i =   5 of  12)       6042 seconds
    (i =   6 of  12)       7260 seconds
    (i =   7 of  12)       8475 seconds
    (i =   8 of  12)       9687 seconds
    (i =   9 of  12)      10892 seconds
    (i =  10 of  12)      12108 seconds
    (i =  11 of  12)      13319 seconds
    (i =  12 of  12)      14541 seconds

    Disp220 (T)         =    -0.001605649932 H

    (i =   1 of  16)        684 seconds
    (i =   2 of  16)       1368 seconds
    (i =   3 of  16)       2058 seconds
    (i =   4 of  16)       2742 seconds
    (i =   5 of  16)       3421 seconds
    (i =   6 of  16)       4106 seconds
    (i =   7 of  16)       4786 seconds
    (i =   8 of  16)       5477 seconds
    (i =   9 of  16)       6162 seconds
    (i =  10 of  16)       6848 seconds
    (i =  11 of  16)       7535 seconds
    (i =  12 of  16)       8224 seconds
    (i =  13 of  16)       8913 seconds
    (i =  14 of  16)       9614 seconds
    (i =  15 of  16)      10314 seconds
    (i =  16 of  16)      11016 seconds

    Disp202 (T)         =    -0.002187168697 H

    Disp22 (T)          =    -0.003792818629 H

    SAPT Results  
  -----------------------------------------------------------------------
    Electrostatics         -19.67993253 mH     -12.34934462 kcal mol^-1
      Elst10,r             -17.36251739 mH     -10.89514461 kcal mol^-1
      Elst12,r              -2.31741514 mH      -1.45420002 kcal mol^-1

    Exchange                55.96582686 mH      35.11908803 kcal mol^-1
      Exch10                50.57559438 mH      31.73666594 kcal mol^-1
      Exch10(S^2)           50.19966916 mH      31.50076930 kcal mol^-1
      Exch11(S^2)            0.50291797 mH       0.31558581 kcal mol^-1
      Exch12(S^2)            4.88731451 mH       3.06683629 kcal mol^-1

    Induction               -5.69090726 mH      -3.57109837 kcal mol^-1
      Ind20,r              -14.49449810 mH      -9.09543526 kcal mol^-1
      Ind22                 -1.84314977 mH      -1.15659399 kcal mol^-1
      Exch-Ind20,r          12.21710403 mH       7.66634884 kcal mol^-1
      Exch-Ind22             1.55355172 mH       0.97486846 kcal mol^-1
      delta HF,r (2)        -3.12391514 mH      -1.96028643 kcal mol^-1

    Dispersion             -22.68075409 mH     -14.23238866 kcal mol^-1
      Disp20               -25.58766526 mH     -16.05650304 kcal mol^-1
      Disp21                 3.02145069 mH       1.89598901 kcal mol^-1
      Disp22 (SDQ)          -0.35167798 mH      -0.22068127 kcal mol^-1
      Disp22 (T)            -3.79281863 mH      -2.38002972 kcal mol^-1
      Exch-Disp20            4.02995709 mH       2.52883636 kcal mol^-1

    Total HF                27.81176777 mH      17.45214849 kcal mol^-1
    Total SAPT0              6.25405960 mH       3.92448181 kcal mol^-1
    Total SAPT2              9.03727890 mH       5.67097836 kcal mol^-1
    Total SAPT2+             7.91423298 mH       4.96625638 kcal mol^-1

*** tstop() called on node114.bme.utexas.edu at Tue Feb 25 03:30:29 2014
Module time:
	user time   =  105543.80 seconds =    1759.06 minutes
	system time =     274.86 seconds =       4.58 minutes
	total time  =      28384 seconds =     473.07 minutes
Total time:
	user time   =  106141.18 seconds =    1769.02 minutes
	system time =     279.68 seconds =       4.66 minutes
	total time  =      28555 seconds =     475.92 minutes

*** PSI4 exiting successfully. Buy a developer a beer!
