
    -----------------------------------------------------------------------
          Psi4: An Open-Source Ab Initio Electronic Structure Package
                               Psi4 1.4a2.dev224 

                         Git: Rev {master} e453b16 


    R. M. Parrish, L. A. Burns, D. G. A. Smith, A. C. Simmonett,
    A. E. DePrince III, E. G. Hohenstein, U. Bozkaya, A. Yu. Sokolov,
    R. Di Remigio, R. M. Richard, J. F. Gonthier, A. M. James,
    H. R. McAlexander, A. Kumar, M. Saitow, X. Wang, B. P. Pritchard,
    P. Verma, H. F. Schaefer III, K. Patkowski, R. A. King, E. F. Valeev,
    F. A. Evangelista, J. M. Turney, T. D. Crawford, and C. D. Sherrill,
    J. Chem. Theory Comput. 13(7) pp 3185--3197 (2017).
    (doi: 10.1021/acs.jctc.7b00174)


                         Additional Contributions by
    P. Kraus, H. Kruse, M. H. Lechner, M. C. Schieber, R. A. Shaw,
    A. Alenaizan, R. Galvelis, Z. L. Glick, S. Lehtola, and J. P. Misiewicz

    -----------------------------------------------------------------------


    Psi4 started on: Thursday, 23 April 2020 05:22PM

    Process ID: 101829
    Host:       node98.bme.utexas.edu
    PSIDATADIR: /home/liuchw/anaconda3/envs/psi4env/share/psi4
    Memory:     500.0 MiB
    Threads:    8
    
  ==> Input File <==

--------------------------------------------------------------------------
#Generated by lconvert.py for sapt job

memory 20 GB

molecule  {
0 1
  N      -0.541060    0.029580   -0.208990
  H       0.055550   -0.786120   -0.130290
  H      -1.469670   -0.274710    0.053140
  C      -0.078800    1.042390    0.738460
  H      -0.720150    1.919410    0.671980
  H      -0.050760    0.723820    1.785510
  H       0.926430    1.356600    0.462000
--
0 1
  N       3.049670   -1.402520    0.079820
  C       3.388100   -0.590180   -0.931890
  H       2.845440   -0.734710   -1.857270
  C       4.359430    0.401960   -0.831520
  H       4.584280    1.026300   -1.684370
  C       5.020270    0.571500    0.380740
  H       5.778130    1.333740    0.497130
  C       4.680140   -0.263460    1.439870
  H       5.162730   -0.173000    2.402570
  C       3.696360   -1.228250    1.240680
  H       3.410270   -1.892000    2.047290
units angstrom
no_reorient
symmetry c1
}

set {
scf_type DF
basis aug-cc-pvdz
freeze_core True
guess SAD
}
energy('sapt2+')
--------------------------------------------------------------------------

  Memory set to  18.626 GiB by Python driver.

Scratch directory: /scratch/liuchw/

  //>>>>>>>>>>>>>>>>>>>>>>>>>>>>>>>>>>>//
  //              Dimer HF             //
  //<<<<<<<<<<<<<<<<<<<<<<<<<<<<<<<<<<<//


*** tstart() called on node98.bme.utexas.edu
*** at Thu Apr 23 17:22:58 2020

   => Loading Basis Set <=

    Name: AUG-CC-PVDZ
    Role: ORBITAL
    Keyword: BASIS
    atoms 1, 8                         entry N          line   218 file /home/liuchw/anaconda3/envs/psi4env/share/psi4/basis/aug-cc-pvdz.gbs 
    atoms 2-3, 5-7, 10, 12, 14, 16, 18 entry H          line    40 file /home/liuchw/anaconda3/envs/psi4env/share/psi4/basis/aug-cc-pvdz.gbs 
    atoms 4, 9, 11, 13, 15, 17         entry C          line   182 file /home/liuchw/anaconda3/envs/psi4env/share/psi4/basis/aug-cc-pvdz.gbs 


         ---------------------------------------------------------
                                   SCF
               by Justin Turney, Rob Parrish, Andy Simmonett
                          and Daniel G. A. Smith
                              RHF Reference
                        8 Threads,  19073 MiB Core
         ---------------------------------------------------------

  ==> Geometry <==

    Molecular point group: c1
    Full point group: C1

    Geometry (in Angstrom), charge = 0, multiplicity = 1:

       Center              X                  Y                   Z               Mass       
    ------------   -----------------  -----------------  -----------------  -----------------
         N           -3.344337243862     0.188539610545    -0.453422741151    14.003074004430
         H           -2.747727243862    -0.627160389455    -0.374722741151     1.007825032230
         H           -4.272947243862    -0.115750389455    -0.191292741151     1.007825032230
         C           -2.882077243862     1.201349610545     0.494027258849    12.000000000000
         H           -3.523427243862     2.078369610545     0.427547258849     1.007825032230
         H           -2.854037243862     0.882779610545     1.541077258849     1.007825032230
         H           -1.876847243862     1.515559610545     0.217567258849     1.007825032230
         N            0.246392756138    -1.243560389455    -0.164612741151    14.003074004430
         C            0.584822756138    -0.431220389455    -1.176322741151    12.000000000000
         H            0.042162756138    -0.575750389455    -2.101702741151     1.007825032230
         C            1.556152756138     0.560919610545    -1.075952741151    12.000000000000
         H            1.781002756138     1.185259610545    -1.928802741151     1.007825032230
         C            2.216992756138     0.730459610545     0.136307258849    12.000000000000
         H            2.974852756138     1.492699610545     0.252697258849     1.007825032230
         C            1.876862756138    -0.104500389455     1.195437258849    12.000000000000
         H            2.359452756138    -0.014040389455     2.158137258849     1.007825032230
         C            0.893082756138    -1.069290389455     0.996247258849    12.000000000000
         H            0.606992756138    -1.733040389455     1.802857258849     1.007825032230

  Running in c1 symmetry.

  Rotational constants: A =      0.10573  B =      0.03071  C =      0.03000 [cm^-1]
  Rotational constants: A =   3169.65470  B =    920.74607  C =    899.32949 [MHz]
  Nuclear repulsion =  334.371614810602466

  Charge       = 0
  Multiplicity = 1
  Electrons    = 60
  Nalpha       = 30
  Nbeta        = 30

  ==> Algorithm <==

  SCF Algorithm Type is DF.
  DIIS enabled.
  MOM disabled.
  Fractional occupation disabled.
  Guess Type is SAD.
  Energy threshold   = 1.00e-08
  Density threshold  = 1.00e-08
  Integral threshold = 0.00e+00

  ==> Primary Basis <==

  Basis Set: AUG-CC-PVDZ
    Blend: AUG-CC-PVDZ
    Number of shells: 122
    Number of basis function: 274
    Number of Cartesian functions: 290
    Spherical Harmonics?: true
    Max angular momentum: 2

   => Loading Basis Set <=

    Name: (AUG-CC-PVDZ AUX)
    Role: JKFIT
    Keyword: DF_BASIS_SCF
    atoms 1, 8                         entry N          line   212 file /home/liuchw/anaconda3/envs/psi4env/share/psi4/basis/aug-cc-pvdz-jkfit.gbs 
    atoms 2-3, 5-7, 10, 12, 14, 16, 18 entry H          line    70 file /home/liuchw/anaconda3/envs/psi4env/share/psi4/basis/aug-cc-pvdz-jkfit.gbs 
    atoms 4, 9, 11, 13, 15, 17         entry C          line   154 file /home/liuchw/anaconda3/envs/psi4env/share/psi4/basis/aug-cc-pvdz-jkfit.gbs 

  ==> Pre-Iterations <==

   -------------------------------------------------------
    Irrep   Nso     Nmo     Nalpha   Nbeta   Ndocc  Nsocc
   -------------------------------------------------------
     A        274     274       0       0       0       0
   -------------------------------------------------------
    Total     274     274      30      30      30       0
   -------------------------------------------------------

  ==> Integral Setup <==

  ==> DiskDFJK: Density-Fitted J/K Matrices <==

    J tasked:                  Yes
    K tasked:                  Yes
    wK tasked:                  No
    OpenMP threads:              8
    Integrals threads:           8
    Memory [MiB]:            14305
    Algorithm:                Core
    Integral Cache:           SAVE
    Schwarz Cutoff:          1E-12
    Fitting Condition:       1E-10

   => Auxiliary Basis Set <=

  Basis Set: (AUG-CC-PVDZ AUX)
    Blend: AUG-CC-PVDZ-JKFIT
    Number of shells: 344
    Number of basis function: 1008
    Number of Cartesian functions: 1158
    Spherical Harmonics?: true
    Max angular momentum: 3

  Minimum eigenvalue in the overlap matrix is 8.8640105072E-06.
  Using Symmetric Orthogonalization.

  SCF Guess: Superposition of Atomic Densities via on-the-fly atomic UHF.

  ==> Iterations <==

                           Total Energy        Delta E     RMS |[F,P]|

   @DF-RHF iter SAD:  -340.76853673241783   -3.40769e+02   0.00000e+00 
   @DF-RHF iter   1:  -341.70084556131019   -9.32309e-01   2.37879e-03 DIIS
   @DF-RHF iter   2:  -341.90558987538111   -2.04744e-01   1.16345e-03 DIIS
   @DF-RHF iter   3:  -341.95367833798070   -4.80885e-02   2.00934e-04 DIIS
   @DF-RHF iter   4:  -341.95616753568731   -2.48920e-03   5.94820e-05 DIIS
   @DF-RHF iter   5:  -341.95632080449059   -1.53269e-04   1.65461e-05 DIIS
   @DF-RHF iter   6:  -341.95633608037315   -1.52759e-05   5.70124e-06 DIIS
   @DF-RHF iter   7:  -341.95633779399367   -1.71362e-06   1.63424e-06 DIIS
   @DF-RHF iter   8:  -341.95633801222584   -2.18232e-07   4.90864e-07 DIIS
   @DF-RHF iter   9:  -341.95633803814900   -2.59232e-08   1.64542e-07 DIIS
   @DF-RHF iter  10:  -341.95633804131040   -3.16140e-09   8.14625e-08 DIIS
   @DF-RHF iter  11:  -341.95633804233495   -1.02455e-09   3.45873e-08 DIIS
   @DF-RHF iter  12:  -341.95633804253509   -2.00146e-10   1.69363e-08 DIIS
   @DF-RHF iter  13:  -341.95633804258574   -5.06475e-11   5.71594e-09 DIIS
  Energy and wave function converged.


  ==> Post-Iterations <==

    Orbital Energies [Eh]
    ---------------------

    Doubly Occupied:                                                      

       1A    -15.578622     2A    -15.538012     3A    -11.284838  
       4A    -11.283763     5A    -11.268956     6A    -11.250993  
       7A    -11.250374     8A    -11.238454     9A     -1.262858  
      10A     -1.163053    11A     -1.095075    12A     -1.038955  
      13A     -0.886985    14A     -0.863618    15A     -0.860492  
      16A     -0.725290    17A     -0.664008    18A     -0.657220  
      19A     -0.652446    20A     -0.601398    21A     -0.594200  
      22A     -0.580156    23A     -0.546425    24A     -0.542452  
      25A     -0.522371    26A     -0.505989    27A     -0.422662  
      28A     -0.386536    29A     -0.382784    30A     -0.350020  

    Virtual:                                                              

      31A      0.031006    32A      0.039686    33A      0.042709  
      34A      0.050642    35A      0.057293    36A      0.058655  
      37A      0.069152    38A      0.070561    39A      0.082417  
      40A      0.088162    41A      0.103017    42A      0.103515  
      43A      0.115494    44A      0.124522    45A      0.128663  
      46A      0.133737    47A      0.142600    48A      0.144948  
      49A      0.145822    50A      0.154763    51A      0.159466  
      52A      0.163537    53A      0.166831    54A      0.172905  
      55A      0.181082    56A      0.183391    57A      0.185529  
      58A      0.188076    59A      0.191078    60A      0.194150  
      61A      0.207767    62A      0.215495    63A      0.219578  
      64A      0.221881    65A      0.248517    66A      0.266020  
      67A      0.273607    68A      0.277300    69A      0.292672  
      70A      0.300845    71A      0.306198    72A      0.320379  
      73A      0.326947    74A      0.329243    75A      0.339073  
      76A      0.344717    77A      0.348670    78A      0.361076  
      79A      0.367992    80A      0.374120    81A      0.379714  
      82A      0.383383    83A      0.386112    84A      0.392616  
      85A      0.406218    86A      0.412914    87A      0.425242  
      88A      0.427933    89A      0.430303    90A      0.437274  
      91A      0.442827    92A      0.451950    93A      0.462400  
      94A      0.470366    95A      0.480698    96A      0.486639  
      97A      0.506535    98A      0.516117    99A      0.522070  
     100A      0.526462   101A      0.549542   102A      0.552022  
     103A      0.555884   104A      0.562942   105A      0.571105  
     106A      0.575849   107A      0.583890   108A      0.589858  
     109A      0.593430   110A      0.594374   111A      0.605161  
     112A      0.617035   113A      0.634156   114A      0.637866  
     115A      0.648105   116A      0.654452   117A      0.661578  
     118A      0.667625   119A      0.671193   120A      0.685613  
     121A      0.688685   122A      0.691103   123A      0.699284  
     124A      0.700246   125A      0.706392   126A      0.709456  
     127A      0.712698   128A      0.723812   129A      0.726921  
     130A      0.734648   131A      0.744310   132A      0.749311  
     133A      0.763511   134A      0.777754   135A      0.787222  
     136A      0.805554   137A      0.812747   138A      0.827272  
     139A      0.836842   140A      0.852722   141A      0.853565  
     142A      0.865111   143A      0.876521   144A      0.884528  
     145A      0.899652   146A      0.908947   147A      0.913983  
     148A      0.923502   149A      0.940317   150A      0.949880  
     151A      0.961895   152A      0.978849   153A      0.986811  
     154A      0.993959   155A      1.000587   156A      1.003203  
     157A      1.034054   158A      1.049224   159A      1.081819  
     160A      1.093852   161A      1.111221   162A      1.124139  
     163A      1.132120   164A      1.142822   165A      1.158336  
     166A      1.173262   167A      1.186822   168A      1.199919  
     169A      1.203815   170A      1.265885   171A      1.270737  
     172A      1.288003   173A      1.316444   174A      1.371001  
     175A      1.375430   176A      1.406298   177A      1.423336  
     178A      1.447564   179A      1.479928   180A      1.495321  
     181A      1.545745   182A      1.566905   183A      1.570865  
     184A      1.576568   185A      1.596758   186A      1.605596  
     187A      1.621601   188A      1.635747   189A      1.646882  
     190A      1.665911   191A      1.675851   192A      1.686422  
     193A      1.702055   194A      1.706722   195A      1.739383  
     196A      1.752705   197A      1.764197   198A      1.792439  
     199A      1.799503   200A      1.824559   201A      1.828024  
     202A      1.834483   203A      1.859840   204A      1.918522  
     205A      1.930775   206A      1.939202   207A      1.942786  
     208A      1.949204   209A      1.960447   210A      1.972494  
     211A      1.979344   212A      2.002098   213A      2.056105  
     214A      2.073686   215A      2.080628   216A      2.104653  
     217A      2.110977   218A      2.120519   219A      2.139529  
     220A      2.146388   221A      2.166363   222A      2.176376  
     223A      2.197322   224A      2.206980   225A      2.225704  
     226A      2.227336   227A      2.249429   228A      2.278009  
     229A      2.288465   230A      2.303039   231A      2.347707  
     232A      2.357325   233A      2.362629   234A      2.365682  
     235A      2.416647   236A      2.423195   237A      2.442697  
     238A      2.467575   239A      2.498222   240A      2.512823  
     241A      2.527055   242A      2.560276   243A      2.582575  
     244A      2.614406   245A      2.634794   246A      2.681473  
     247A      2.691992   248A      2.717483   249A      2.745109  
     250A      2.775036   251A      2.832843   252A      2.844492  
     253A      2.854387   254A      2.894977   255A      2.905122  
     256A      2.924933   257A      2.970618   258A      2.974078  
     259A      3.004900   260A      3.032142   261A      3.065248  
     262A      3.108659   263A      3.119415   264A      3.125233  
     265A      3.142342   266A      3.157421   267A      3.277929  
     268A      3.390067   269A      3.416764   270A      3.423281  
     271A      3.642858   272A      3.675010   273A      3.726793  
     274A      4.316833  

    Final Occupation by Irrep:
              A 
    DOCC [    30 ]

  @DF-RHF Final Energy:  -341.95633804258574

   => Energetics <=

    Nuclear Repulsion Energy =            334.3716148106024662
    One-Electron Energy =               -1124.6578954230496947
    Two-Electron Energy =                 448.3299425698614300
    Total Energy =                       -341.9563380425857417

Computation Completed


Properties will be evaluated at   0.000000,   0.000000,   0.000000 [a0]

Properties computed using the SCF density matrix

  Nuclear Dipole Moment: [e a0]
     X:    -7.0319      Y:     3.8363      Z:     1.6924

  Electronic Dipole Moment: [e a0]
     X:     7.7432      Y:    -3.4297      Z:    -1.0997

  Dipole Moment: [e a0]
     X:     0.7113      Y:     0.4066      Z:     0.5927     Total:     1.0112

  Dipole Moment: [D]
     X:     1.8080      Y:     1.0334      Z:     1.5065     Total:     2.5703


*** tstop() called on node98.bme.utexas.edu at Thu Apr 23 17:23:07 2020
Module time:
	user time   =      57.21 seconds =       0.95 minutes
	system time =       1.24 seconds =       0.02 minutes
	total time  =          9 seconds =       0.15 minutes
Total time:
	user time   =      57.21 seconds =       0.95 minutes
	system time =       1.24 seconds =       0.02 minutes
	total time  =          9 seconds =       0.15 minutes

  //>>>>>>>>>>>>>>>>>>>>>>>>>>>>>>>>>>>//
  //            Monomer A HF           //
  //<<<<<<<<<<<<<<<<<<<<<<<<<<<<<<<<<<<//


*** tstart() called on node98.bme.utexas.edu
*** at Thu Apr 23 17:23:07 2020

   => Loading Basis Set <=

    Name: AUG-CC-PVDZ
    Role: ORBITAL
    Keyword: BASIS
    atoms 1, 8                         entry N          line   218 file /home/liuchw/anaconda3/envs/psi4env/share/psi4/basis/aug-cc-pvdz.gbs 
    atoms 2-3, 5-7, 10, 12, 14, 16, 18 entry H          line    40 file /home/liuchw/anaconda3/envs/psi4env/share/psi4/basis/aug-cc-pvdz.gbs 
    atoms 4, 9, 11, 13, 15, 17         entry C          line   182 file /home/liuchw/anaconda3/envs/psi4env/share/psi4/basis/aug-cc-pvdz.gbs 


         ---------------------------------------------------------
                                   SCF
               by Justin Turney, Rob Parrish, Andy Simmonett
                          and Daniel G. A. Smith
                              RHF Reference
                        8 Threads,  19073 MiB Core
         ---------------------------------------------------------

  ==> Geometry <==

    Molecular point group: c1
    Full point group: C1

    Geometry (in Angstrom), charge = 0, multiplicity = 1:

       Center              X                  Y                   Z               Mass       
    ------------   -----------------  -----------------  -----------------  -----------------
         N           -3.344337243862     0.188539610545    -0.453422741151    14.003074004430
         H           -2.747727243862    -0.627160389455    -0.374722741151     1.007825032230
         H           -4.272947243862    -0.115750389455    -0.191292741151     1.007825032230
         C           -2.882077243862     1.201349610545     0.494027258849    12.000000000000
         H           -3.523427243862     2.078369610545     0.427547258849     1.007825032230
         H           -2.854037243862     0.882779610545     1.541077258849     1.007825032230
         H           -1.876847243862     1.515559610545     0.217567258849     1.007825032230
      Gh(N)           0.246392756138    -1.243560389455    -0.164612741151    14.003074004430
      Gh(C)           0.584822756138    -0.431220389455    -1.176322741151    12.000000000000
      Gh(H)           0.042162756138    -0.575750389455    -2.101702741151     1.007825032230
      Gh(C)           1.556152756138     0.560919610545    -1.075952741151    12.000000000000
      Gh(H)           1.781002756138     1.185259610545    -1.928802741151     1.007825032230
      Gh(C)           2.216992756138     0.730459610545     0.136307258849    12.000000000000
      Gh(H)           2.974852756138     1.492699610545     0.252697258849     1.007825032230
      Gh(C)           1.876862756138    -0.104500389455     1.195437258849    12.000000000000
      Gh(H)           2.359452756138    -0.014040389455     2.158137258849     1.007825032230
      Gh(C)           0.893082756138    -1.069290389455     0.996247258849    12.000000000000
      Gh(H)           0.606992756138    -1.733040389455     1.802857258849     1.007825032230

  Running in c1 symmetry.

  Rotational constants: A =      0.10573  B =      0.03071  C =      0.03000 [cm^-1]
  Rotational constants: A =   3169.65470  B =    920.74607  C =    899.32949 [MHz]
  Nuclear repulsion =   42.093865215623154

  Charge       = 0
  Multiplicity = 1
  Electrons    = 18
  Nalpha       = 9
  Nbeta        = 9

  ==> Algorithm <==

  SCF Algorithm Type is DF.
  DIIS enabled.
  MOM disabled.
  Fractional occupation disabled.
  Guess Type is SAD.
  Energy threshold   = 1.00e-08
  Density threshold  = 1.00e-08
  Integral threshold = 0.00e+00

  ==> Primary Basis <==

  Basis Set: AUG-CC-PVDZ
    Blend: AUG-CC-PVDZ
    Number of shells: 122
    Number of basis function: 274
    Number of Cartesian functions: 290
    Spherical Harmonics?: true
    Max angular momentum: 2

   => Loading Basis Set <=

    Name: (AUG-CC-PVDZ AUX)
    Role: JKFIT
    Keyword: DF_BASIS_SCF
    atoms 1, 8                         entry N          line   212 file /home/liuchw/anaconda3/envs/psi4env/share/psi4/basis/aug-cc-pvdz-jkfit.gbs 
    atoms 2-3, 5-7, 10, 12, 14, 16, 18 entry H          line    70 file /home/liuchw/anaconda3/envs/psi4env/share/psi4/basis/aug-cc-pvdz-jkfit.gbs 
    atoms 4, 9, 11, 13, 15, 17         entry C          line   154 file /home/liuchw/anaconda3/envs/psi4env/share/psi4/basis/aug-cc-pvdz-jkfit.gbs 

  ==> Pre-Iterations <==

   -------------------------------------------------------
    Irrep   Nso     Nmo     Nalpha   Nbeta   Ndocc  Nsocc
   -------------------------------------------------------
     A        274     274       0       0       0       0
   -------------------------------------------------------
    Total     274     274       9       9       9       0
   -------------------------------------------------------

  ==> Integral Setup <==

  ==> DiskDFJK: Density-Fitted J/K Matrices <==

    J tasked:                  Yes
    K tasked:                  Yes
    wK tasked:                  No
    OpenMP threads:              8
    Integrals threads:           8
    Memory [MiB]:            14305
    Algorithm:                Core
    Integral Cache:           LOAD
    Schwarz Cutoff:          1E-12
    Fitting Condition:       1E-10

   => Auxiliary Basis Set <=

  Basis Set: (AUG-CC-PVDZ AUX)
    Blend: AUG-CC-PVDZ-JKFIT
    Number of shells: 344
    Number of basis function: 1008
    Number of Cartesian functions: 1158
    Spherical Harmonics?: true
    Max angular momentum: 3

  Minimum eigenvalue in the overlap matrix is 8.8640105072E-06.
  Using Symmetric Orthogonalization.

  SCF Guess: Superposition of Atomic Densities via on-the-fly atomic UHF.

  ==> Iterations <==

                           Total Energy        Delta E     RMS |[F,P]|

   @DF-RHF iter SAD:   -94.61243752612792   -9.46124e+01   0.00000e+00 
   @DF-RHF iter   1:   -95.11453492666570   -5.02097e-01   1.67809e-03 DIIS
   @DF-RHF iter   2:   -95.20285295587192   -8.83180e-02   8.86291e-04 DIIS
   @DF-RHF iter   3:   -95.22945397173257   -2.66010e-02   1.28666e-04 DIIS
   @DF-RHF iter   4:   -95.23061804154295   -1.16407e-03   3.60438e-05 DIIS
   @DF-RHF iter   5:   -95.23068846413796   -7.04226e-05   8.46594e-06 DIIS
   @DF-RHF iter   6:   -95.23069396816123   -5.50402e-06   1.65645e-06 DIIS
   @DF-RHF iter   7:   -95.23069429635007   -3.28189e-07   3.69888e-07 DIIS
   @DF-RHF iter   8:   -95.23069431523430   -1.88842e-08   8.79686e-08 DIIS
   @DF-RHF iter   9:   -95.23069431648840   -1.25409e-09   2.17147e-08 DIIS
   @DF-RHF iter  10:   -95.23069431656658   -7.81881e-11   5.14184e-09 DIIS
  Energy and wave function converged.


  ==> Post-Iterations <==

    Orbital Energies [Eh]
    ---------------------

    Doubly Occupied:                                                      

       1A    -15.549157     2A    -11.247623     3A     -1.173810  
       4A     -0.896527     5A     -0.663108     6A     -0.603829  
       7A     -0.554713     8A     -0.515915     9A     -0.392959  

    Virtual:                                                              

      10A      0.021529    11A      0.035990    12A      0.039199  
      13A      0.044403    14A      0.055664    15A      0.058544  
      16A      0.066099    17A      0.067238    18A      0.074426  
      19A      0.085759    20A      0.095679    21A      0.105804  
      22A      0.111145    23A      0.114868    24A      0.119789  
      25A      0.130495    26A      0.135943    27A      0.141625  
      28A      0.148338    29A      0.154937    30A      0.156942  
      31A      0.157792    32A      0.164860    33A      0.169901  
      34A      0.182023    35A      0.186270    36A      0.186979  
      37A      0.188382    38A      0.199109    39A      0.205163  
      40A      0.206213    41A      0.212365    42A      0.222239  
      43A      0.232028    44A      0.240023    45A      0.245465  
      46A      0.254777    47A      0.262646    48A      0.279564  
      49A      0.290788    50A      0.309875    51A      0.313123  
      52A      0.324291    53A      0.329979    54A      0.348991  
      55A      0.355023    56A      0.361262    57A      0.370229  
      58A      0.374808    59A      0.383729    60A      0.396321  
      61A      0.400427    62A      0.416047    63A      0.426346  
      64A      0.426926    65A      0.434322    66A      0.441032  
      67A      0.446839    68A      0.456909    69A      0.459725  
      70A      0.462798    71A      0.467833    72A      0.472587  
      73A      0.482556    74A      0.493253    75A      0.501105  
      76A      0.511145    77A      0.516896    78A      0.521543  
      79A      0.527988    80A      0.535845    81A      0.546916  
      82A      0.551763    83A      0.560001    84A      0.570024  
      85A      0.575543    86A      0.581075    87A      0.586246  
      88A      0.597247    89A      0.604412    90A      0.607475  
      91A      0.616434    92A      0.627477    93A      0.642203  
      94A      0.655903    95A      0.661070    96A      0.663299  
      97A      0.670223    98A      0.678781    99A      0.692582  
     100A      0.694286   101A      0.697803   102A      0.700104  
     103A      0.721024   104A      0.733464   105A      0.741911  
     106A      0.761248   107A      0.775995   108A      0.785408  
     109A      0.792880   110A      0.799434   111A      0.807079  
     112A      0.812570   113A      0.831831   114A      0.838573  
     115A      0.843482   116A      0.856899   117A      0.860101  
     118A      0.873640   119A      0.878763   120A      0.884734  
     121A      0.893619   122A      0.897671   123A      0.902193  
     124A      0.912727   125A      0.917468   126A      0.944890  
     127A      0.950272   128A      0.965623   129A      0.980806  
     130A      1.011572   131A      1.019325   132A      1.046479  
     133A      1.053834   134A      1.058112   135A      1.074143  
     136A      1.088119   137A      1.109385   138A      1.112787  
     139A      1.132182   140A      1.140862   141A      1.148696  
     142A      1.159239   143A      1.162623   144A      1.170305  
     145A      1.175462   146A      1.205573   147A      1.218951  
     148A      1.288330   149A      1.317325   150A      1.323666  
     151A      1.337628   152A      1.341327   153A      1.366495  
     154A      1.389220   155A      1.407637   156A      1.423843  
     157A      1.443506   158A      1.468885   159A      1.496261  
     160A      1.510741   161A      1.516407   162A      1.583271  
     163A      1.630647   164A      1.640571   165A      1.653556  
     166A      1.750703   167A      1.778749   168A      1.914024  
     169A      1.939262   170A      1.947013   171A      1.969038  
     172A      2.078438   173A      2.099278   174A      2.105990  
     175A      2.131184   176A      2.145147   177A      2.150968  
     178A      2.153214   179A      2.157312   180A      2.169417  
     181A      2.194554   182A      2.198007   183A      2.205687  
     184A      2.223172   185A      2.227530   186A      2.229189  
     187A      2.241516   188A      2.287170   189A      2.311322  
     190A      2.323087   191A      2.328607   192A      2.340019  
     193A      2.361551   194A      2.365644   195A      2.396848  
     196A      2.400040   197A      2.415970   198A      2.428876  
     199A      2.435917   200A      2.461433   201A      2.491765  
     202A      2.503375   203A      2.520270   204A      2.532610  
     205A      2.551514   206A      2.561912   207A      2.585119  
     208A      2.591793   209A      2.620733   210A      2.622751  
     211A      2.650534   212A      2.661931   213A      2.679466  
     214A      2.681892   215A      2.730507   216A      2.733831  
     217A      2.735930   218A      2.764046   219A      2.835609  
     220A      2.858589   221A      2.867929   222A      2.888726  
     223A      2.898103   224A      2.916752   225A      2.938028  
     226A      2.951381   227A      3.002976   228A      3.049363  
     229A      3.062216   230A      3.066574   231A      3.099579  
     232A      3.106000   233A      3.155886   234A      3.192437  
     235A      3.244450   236A      3.279974   237A      3.360965  
     238A      3.380313   239A      3.390129   240A      3.400889  
     241A      3.429542   242A      3.442908   243A      3.476895  
     244A      3.510140   245A      3.538521   246A      3.624066  
     247A      3.652769   248A      3.749496   249A      3.878588  
     250A      3.890435   251A      3.905640   252A      4.019377  
     253A      4.075073   254A      4.191742   255A      4.439307  
     256A      4.525319   257A      4.604602   258A      4.666192  
     259A      4.831149   260A      4.937089   261A      5.164066  
     262A      5.404150   263A      5.488106   264A      5.554856  
     265A      5.602025   266A      5.617311   267A      5.787992  
     268A      6.146217   269A     18.062505   270A     18.354492  
     271A     18.704841   272A     19.049350   273A     19.910497  
     274A     25.329313  

    Final Occupation by Irrep:
              A 
    DOCC [     9 ]

  @DF-RHF Final Energy:   -95.23069431656658

   => Energetics <=

    Nuclear Repulsion Energy =             42.0938652156231541
    One-Electron Energy =                -211.4538385314727122
    Two-Electron Energy =                  74.1292789992829881
    Total Energy =                        -95.2306943165665842

Computation Completed


Properties will be evaluated at   0.000000,   0.000000,   0.000000 [a0]

Properties computed using the SCF density matrix

  Nuclear Dipole Moment: [e a0]
     X:  -105.7827      Y:    23.1712      Z:     2.6652

  Electronic Dipole Moment: [e a0]
     X:   105.7727      Y:   -23.3963      Z:    -2.1379

  Dipole Moment: [e a0]
     X:    -0.0100      Y:    -0.2251      Z:     0.5273     Total:     0.5734

  Dipole Moment: [D]
     X:    -0.0254      Y:    -0.5722      Z:     1.3402     Total:     1.4575


*** tstop() called on node98.bme.utexas.edu at Thu Apr 23 17:23:11 2020
Module time:
	user time   =      23.06 seconds =       0.38 minutes
	system time =       0.66 seconds =       0.01 minutes
	total time  =          4 seconds =       0.07 minutes
Total time:
	user time   =      80.32 seconds =       1.34 minutes
	system time =       1.90 seconds =       0.03 minutes
	total time  =         13 seconds =       0.22 minutes

  //>>>>>>>>>>>>>>>>>>>>>>>>>>>>>>>>>>>//
  //            Monomer B HF           //
  //<<<<<<<<<<<<<<<<<<<<<<<<<<<<<<<<<<<//


*** tstart() called on node98.bme.utexas.edu
*** at Thu Apr 23 17:23:11 2020

   => Loading Basis Set <=

    Name: AUG-CC-PVDZ
    Role: ORBITAL
    Keyword: BASIS
    atoms 1, 8                         entry N          line   218 file /home/liuchw/anaconda3/envs/psi4env/share/psi4/basis/aug-cc-pvdz.gbs 
    atoms 2-3, 5-7, 10, 12, 14, 16, 18 entry H          line    40 file /home/liuchw/anaconda3/envs/psi4env/share/psi4/basis/aug-cc-pvdz.gbs 
    atoms 4, 9, 11, 13, 15, 17         entry C          line   182 file /home/liuchw/anaconda3/envs/psi4env/share/psi4/basis/aug-cc-pvdz.gbs 


         ---------------------------------------------------------
                                   SCF
               by Justin Turney, Rob Parrish, Andy Simmonett
                          and Daniel G. A. Smith
                              RHF Reference
                        8 Threads,  19073 MiB Core
         ---------------------------------------------------------

  ==> Geometry <==

    Molecular point group: c1
    Full point group: C1

    Geometry (in Angstrom), charge = 0, multiplicity = 1:

       Center              X                  Y                   Z               Mass       
    ------------   -----------------  -----------------  -----------------  -----------------
      Gh(N)          -3.344337243862     0.188539610545    -0.453422741151    14.003074004430
      Gh(H)          -2.747727243862    -0.627160389455    -0.374722741151     1.007825032230
      Gh(H)          -4.272947243862    -0.115750389455    -0.191292741151     1.007825032230
      Gh(C)          -2.882077243862     1.201349610545     0.494027258849    12.000000000000
      Gh(H)          -3.523427243862     2.078369610545     0.427547258849     1.007825032230
      Gh(H)          -2.854037243862     0.882779610545     1.541077258849     1.007825032230
      Gh(H)          -1.876847243862     1.515559610545     0.217567258849     1.007825032230
         N            0.246392756138    -1.243560389455    -0.164612741151    14.003074004430
         C            0.584822756138    -0.431220389455    -1.176322741151    12.000000000000
         H            0.042162756138    -0.575750389455    -2.101702741151     1.007825032230
         C            1.556152756138     0.560919610545    -1.075952741151    12.000000000000
         H            1.781002756138     1.185259610545    -1.928802741151     1.007825032230
         C            2.216992756138     0.730459610545     0.136307258849    12.000000000000
         H            2.974852756138     1.492699610545     0.252697258849     1.007825032230
         C            1.876862756138    -0.104500389455     1.195437258849    12.000000000000
         H            2.359452756138    -0.014040389455     2.158137258849     1.007825032230
         C            0.893082756138    -1.069290389455     0.996247258849    12.000000000000
         H            0.606992756138    -1.733040389455     1.802857258849     1.007825032230

  Running in c1 symmetry.

  Rotational constants: A =      0.10573  B =      0.03071  C =      0.03000 [cm^-1]
  Rotational constants: A =   3169.65470  B =    920.74607  C =    899.32949 [MHz]
  Nuclear repulsion =  206.234919719580489

  Charge       = 0
  Multiplicity = 1
  Electrons    = 42
  Nalpha       = 21
  Nbeta        = 21

  ==> Algorithm <==

  SCF Algorithm Type is DF.
  DIIS enabled.
  MOM disabled.
  Fractional occupation disabled.
  Guess Type is SAD.
  Energy threshold   = 1.00e-08
  Density threshold  = 1.00e-08
  Integral threshold = 0.00e+00

  ==> Primary Basis <==

  Basis Set: AUG-CC-PVDZ
    Blend: AUG-CC-PVDZ
    Number of shells: 122
    Number of basis function: 274
    Number of Cartesian functions: 290
    Spherical Harmonics?: true
    Max angular momentum: 2

   => Loading Basis Set <=

    Name: (AUG-CC-PVDZ AUX)
    Role: JKFIT
    Keyword: DF_BASIS_SCF
    atoms 1, 8                         entry N          line   212 file /home/liuchw/anaconda3/envs/psi4env/share/psi4/basis/aug-cc-pvdz-jkfit.gbs 
    atoms 2-3, 5-7, 10, 12, 14, 16, 18 entry H          line    70 file /home/liuchw/anaconda3/envs/psi4env/share/psi4/basis/aug-cc-pvdz-jkfit.gbs 
    atoms 4, 9, 11, 13, 15, 17         entry C          line   154 file /home/liuchw/anaconda3/envs/psi4env/share/psi4/basis/aug-cc-pvdz-jkfit.gbs 

  ==> Pre-Iterations <==

   -------------------------------------------------------
    Irrep   Nso     Nmo     Nalpha   Nbeta   Ndocc  Nsocc
   -------------------------------------------------------
     A        274     274       0       0       0       0
   -------------------------------------------------------
    Total     274     274      21      21      21       0
   -------------------------------------------------------

  ==> Integral Setup <==

  ==> DiskDFJK: Density-Fitted J/K Matrices <==

    J tasked:                  Yes
    K tasked:                  Yes
    wK tasked:                  No
    OpenMP threads:              8
    Integrals threads:           8
    Memory [MiB]:            14305
    Algorithm:                Core
    Integral Cache:           LOAD
    Schwarz Cutoff:          1E-12
    Fitting Condition:       1E-10

   => Auxiliary Basis Set <=

  Basis Set: (AUG-CC-PVDZ AUX)
    Blend: AUG-CC-PVDZ-JKFIT
    Number of shells: 344
    Number of basis function: 1008
    Number of Cartesian functions: 1158
    Spherical Harmonics?: true
    Max angular momentum: 3

  Minimum eigenvalue in the overlap matrix is 8.8640105072E-06.
  Using Symmetric Orthogonalization.

  SCF Guess: Superposition of Atomic Densities via on-the-fly atomic UHF.

  ==> Iterations <==

                           Total Energy        Delta E     RMS |[F,P]|

   @DF-RHF iter SAD:  -246.11048676262490   -2.46110e+02   0.00000e+00 
   @DF-RHF iter   1:  -246.58244984790912   -4.71963e-01   1.70384e-03 DIIS
   @DF-RHF iter   2:  -246.70037796513489   -1.17928e-01   7.71200e-04 DIIS
   @DF-RHF iter   3:  -246.72274245157041   -2.23645e-02   1.50762e-04 DIIS
   @DF-RHF iter   4:  -246.72404609800000   -1.30365e-03   4.66894e-05 DIIS
   @DF-RHF iter   5:  -246.72412765975452   -8.15618e-05   1.31339e-05 DIIS
   @DF-RHF iter   6:  -246.72413650620143   -8.84645e-06   3.24407e-06 DIIS
   @DF-RHF iter   7:  -246.72413719942062   -6.93219e-07   1.24901e-06 DIIS
   @DF-RHF iter   8:  -246.72413730786150   -1.08441e-07   5.05879e-07 DIIS
   @DF-RHF iter   9:  -246.72413734148765   -3.36262e-08   1.52779e-07 DIIS
   @DF-RHF iter  10:  -246.72413734572277   -4.23512e-09   5.56182e-08 DIIS
   @DF-RHF iter  11:  -246.72413734648183   -7.59059e-10   3.17928e-08 DIIS
   @DF-RHF iter  12:  -246.72413734664053   -1.58707e-10   7.92308e-09 DIIS
  Energy and wave function converged.


  ==> Post-Iterations <==

    Orbital Energies [Eh]
    ---------------------

    Doubly Occupied:                                                      

       1A    -15.575707     2A    -11.281939     3A    -11.281918  
       4A    -11.266712     5A    -11.248785     6A    -11.248719  
       7A     -1.259938     8A     -1.092763     9A     -1.036742  
      10A     -0.861494    11A     -0.858112    12A     -0.723066  
      13A     -0.661636    14A     -0.655373    15A     -0.599429  
      16A     -0.577787    17A     -0.540983    18A     -0.520396  
      19A     -0.419193    20A     -0.383605    21A     -0.347929  

    Virtual:                                                              

      22A      0.028664    23A      0.037133    24A      0.039743  
      25A      0.048299    26A      0.056265    27A      0.057647  
      28A      0.068538    29A      0.069425    30A      0.077808  
      31A      0.089574    32A      0.103853    33A      0.104695  
      34A      0.111942    35A      0.114309    36A      0.126920  
      37A      0.131913    38A      0.136556    39A      0.142666  
      40A      0.146407    41A      0.146557    42A      0.153808  
      43A      0.158288    44A      0.163877    45A      0.166303  
      46A      0.172123    47A      0.173812    48A      0.180488  
      49A      0.184324    50A      0.187276    51A      0.191431  
      52A      0.197704    53A      0.199295    54A      0.210906  
      55A      0.213046    56A      0.237073    57A      0.256090  
      58A      0.272237    59A      0.287150    60A      0.299498  
      61A      0.301324    62A      0.304966    63A      0.309115  
      64A      0.331230    65A      0.336171    66A      0.339497  
      67A      0.342889    68A      0.349397    69A      0.354932  
      70A      0.367793    71A      0.369902    72A      0.380741  
      73A      0.386897    74A      0.392261    75A      0.408675  
      76A      0.419506    77A      0.424695    78A      0.429092  
      79A      0.432468    80A      0.434791    81A      0.445041  
      82A      0.452057    83A      0.453675    84A      0.465493  
      85A      0.471411    86A      0.481321    87A      0.486105  
      88A      0.493611    89A      0.508819    90A      0.516891  
      91A      0.530172    92A      0.542923    93A      0.545729  
      94A      0.554345    95A      0.562872    96A      0.566052  
      97A      0.577415    98A      0.581743    99A      0.587740  
     100A      0.595467   101A      0.598624   102A      0.609638  
     103A      0.622308   104A      0.635497   105A      0.644077  
     106A      0.651954   107A      0.655727   108A      0.667626  
     109A      0.670646   110A      0.676668   111A      0.681366  
     112A      0.694624   113A      0.700574   114A      0.701437  
     115A      0.710473   116A      0.716741   117A      0.730618  
     118A      0.736007   119A      0.740970   120A      0.746480  
     121A      0.758620   122A      0.773147   123A      0.783603  
     124A      0.790020   125A      0.802627   126A      0.824804  
     127A      0.833123   128A      0.849335   129A      0.853146  
     130A      0.855192   131A      0.862528   132A      0.864892  
     133A      0.871957   134A      0.879203   135A      0.890808  
     136A      0.901038   137A      0.916542   138A      0.922074  
     139A      0.933879   140A      0.947774   141A      0.954287  
     142A      0.962538   143A      0.984141   144A      0.992687  
     145A      0.995281   146A      0.997730   147A      1.008955  
     148A      1.029022   149A      1.045077   150A      1.062739  
     151A      1.086801   152A      1.098588   153A      1.110483  
     154A      1.116943   155A      1.136258   156A      1.145358  
     157A      1.153362   158A      1.181518   159A      1.188008  
     160A      1.204274   161A      1.235218   162A      1.255542  
     163A      1.288703   164A      1.308406   165A      1.323921  
     166A      1.359657   167A      1.377708   168A      1.395369  
     169A      1.419618   170A      1.443269   171A      1.472524  
     172A      1.547613   173A      1.570010   174A      1.573741  
     175A      1.589848   176A      1.598332   177A      1.608888  
     178A      1.626791   179A      1.641733   180A      1.678506  
     181A      1.688152   182A      1.704991   183A      1.709343  
     184A      1.733839   185A      1.754870   186A      1.794332  
     187A      1.814413   188A      1.833634   189A      1.835718  
     190A      1.860003   191A      1.909660   192A      1.923849  
     193A      1.933044   194A      1.951749   195A      1.959337  
     196A      1.976498   197A      2.008804   198A      2.041563  
     199A      2.056888   200A      2.071562   201A      2.082783  
     202A      2.104055   203A      2.118449   204A      2.126704  
     205A      2.143300   206A      2.177229   207A      2.205753  
     208A      2.220023   209A      2.238680   210A      2.243266  
     211A      2.265773   212A      2.275930   213A      2.295264  
     214A      2.304013   215A      2.312815   216A      2.340500  
     217A      2.363238   218A      2.366484   219A      2.373765  
     220A      2.378770   221A      2.433766   222A      2.441317  
     223A      2.460202   224A      2.491243   225A      2.510023  
     226A      2.521274   227A      2.569716   228A      2.600892  
     229A      2.625966   230A      2.646834   231A      2.662442  
     232A      2.678607   233A      2.706820   234A      2.731941  
     235A      2.747369   236A      2.815656   237A      2.834911  
     238A      2.847974   239A      2.858900   240A      2.868509  
     241A      2.900909   242A      2.971570   243A      3.003042  
     244A      3.009862   245A      3.030865   246A      3.032029  
     247A      3.119073   248A      3.133728   249A      3.138561  
     250A      3.155155   251A      3.278319   252A      3.308620  
     253A      3.314508   254A      3.382181   255A      3.393991  
     256A      3.416757   257A      3.426742   258A      3.563333  
     259A      3.648778   260A      3.678475   261A      3.744721  
     262A      3.868194   263A      3.886687   264A      4.049018  
     265A      4.311041   266A      4.380073   267A      4.951891  
     268A      5.024067   269A      5.139670   270A      5.144949  
     271A      5.769498   272A      6.089502   273A     18.530707  
     274A     25.403371  

    Final Occupation by Irrep:
              A 
    DOCC [    21 ]

  @DF-RHF Final Energy:  -246.72413734664053

   => Energetics <=

    Nuclear Repulsion Energy =            206.2349197195804891
    One-Electron Energy =                -741.0336649374050921
    Two-Electron Energy =                 288.0746078711840710
    Total Energy =                       -246.7241373466405321

Computation Completed


Properties will be evaluated at   0.000000,   0.000000,   0.000000 [a0]

Properties computed using the SCF density matrix

  Nuclear Dipole Moment: [e a0]
     X:    98.7508      Y:   -19.3349      Z:    -0.9728

  Electronic Dipole Moment: [e a0]
     X:   -98.1081      Y:    19.9859      Z:     1.0730

  Dipole Moment: [e a0]
     X:     0.6427      Y:     0.6510      Z:     0.1001     Total:     0.9203

  Dipole Moment: [D]
     X:     1.6337      Y:     1.6548      Z:     0.2545     Total:     2.3392


*** tstop() called on node98.bme.utexas.edu at Thu Apr 23 17:23:15 2020
Module time:
	user time   =      28.92 seconds =       0.48 minutes
	system time =       0.88 seconds =       0.01 minutes
	total time  =          4 seconds =       0.07 minutes
Total time:
	user time   =     109.29 seconds =       1.82 minutes
	system time =       2.78 seconds =       0.05 minutes
	total time  =         17 seconds =       0.28 minutes
  Constructing Basis Sets for SAPT...

   => Loading Basis Set <=

    Name: (AUG-CC-PVDZ AUX)
    Role: RIFIT
    Keyword: DF_BASIS_SAPT
    atoms 1, 8                         entry N          line   158 file /home/liuchw/anaconda3/envs/psi4env/share/psi4/basis/aug-cc-pvdz-ri.gbs 
    atoms 2-3, 5-7, 10, 12, 14, 16, 18 entry H          line    30 file /home/liuchw/anaconda3/envs/psi4env/share/psi4/basis/aug-cc-pvdz-ri.gbs 
    atoms 4, 9, 11, 13, 15, 17         entry C          line   112 file /home/liuchw/anaconda3/envs/psi4env/share/psi4/basis/aug-cc-pvdz-ri.gbs 


  //>>>>>>>>>>>>>>>>>>>>>>>>>>>>>>>>>>>//
  //               SAPT2+              //
  //<<<<<<<<<<<<<<<<<<<<<<<<<<<<<<<<<<<//


*** tstart() called on node98.bme.utexas.edu
*** at Thu Apr 23 17:23:15 2020

        SAPT2+  
    Ed Hohenstein
     6 June 2009

      Orbital Information
  --------------------------
    NSO        =       274
    NMO        =       274
    NRI        =       806
    NOCC A     =         9
    NOCC B     =        21
    FOCC A     =         2
    FOCC B     =         6
    NVIR A     =       265
    NVIR B     =       253

    Estimated memory usage: 1196.1 MB

    Natural Orbital Cutoff:   1.000E-06
    Disp(T3) Truncation:            Yes
    CCD (vv|vv) Truncation:         Yes
    MBPT T2 Truncation:             Yes

    Monomer A: 186 virtual orbitals dropped
    Monomer B: 95 virtual orbitals dropped

    Elst10,r            =    -0.002174690442 [Eh]
    Exch10 (S^2)        =     0.000954527906 [Eh]
    Exch10              =     0.000955083820 [Eh]
    Ind20,r (A<-B)      =    -0.000152487627 [Eh]
    Ind20,r (B<-A)      =    -0.000233061159 [Eh]
    Ind20,r             =    -0.000385548786 [Eh]
    Exch-Ind20,r (A<-B) =     0.000040633555 [Eh]
    Exch-Ind20,r (B<-A) =     0.000145391364 [Eh]
    Exch-Ind20,r        =     0.000186024919 [Eh]
    Disp20              =    -0.002816045209 [Eh]
    Disp20 (NO)         =    -0.002656963117 [Eh]
    Exch-Disp20         =     0.000133580003 [Eh]
    Elst12,r            =     0.000063461541 [Eh]
    Exch11              =     0.000005720635 [Eh]
    Exch12              =     0.000155316459 [Eh]
    Ind22               =    -0.000033932109 [Eh]
    Disp21              =     0.000538967950 [Eh]
    Disp22 (SDQ)        =     0.000025272836 [Eh]

    (i =   1 of  15)          1 seconds
    (i =   2 of  15)          2 seconds
    (i =   3 of  15)          4 seconds
    (i =   4 of  15)          5 seconds
    (i =   5 of  15)          6 seconds
    (i =   6 of  15)          8 seconds
    (i =   7 of  15)          9 seconds
    (i =   8 of  15)         10 seconds
    (i =   9 of  15)         12 seconds
    (i =  10 of  15)         13 seconds
    (i =  11 of  15)         14 seconds
    (i =  12 of  15)         16 seconds
    (i =  13 of  15)         17 seconds
    (i =  14 of  15)         18 seconds
    (i =  15 of  15)         20 seconds

    Disp220 (T)         =    -0.000196027021 [Eh]

    (i =   1 of   7)          9 seconds
    (i =   2 of   7)         18 seconds
    (i =   3 of   7)         27 seconds
    (i =   4 of   7)         37 seconds
    (i =   5 of   7)         46 seconds
    (i =   6 of   7)         55 seconds
    (i =   7 of   7)         64 seconds

    Disp202 (T)         =    -0.000282597279 [Eh]

    Disp22 (T)          =    -0.000478624301 [Eh]

    Est. Disp220 (T)    =    -0.000207763876 [Eh]
    Est. Disp202 (T)    =    -0.000299517411 [Eh]

    Est. Disp22 (T)     =    -0.000507281287 [Eh]

    SAPT Results 
  --------------------------------------------------------------------------------------------------------
    Electrostatics                 -2.11122890 [mEh]      -1.32481614 [kcal/mol]      -5.54303072 [kJ/mol]
      Elst10,r                     -2.17469044 [mEh]      -1.36463885 [kcal/mol]      -5.70964897 [kJ/mol]
      Elst12,r                      0.06346154 [mEh]       0.03982272 [kcal/mol]       0.16661825 [kJ/mol]

    Exchange                        1.11612091 [mEh]       0.70037645 [kcal/mol]       2.93037506 [kJ/mol]
      Exch10                        0.95508382 [mEh]       0.59932415 [kcal/mol]       2.50757222 [kJ/mol]
      Exch10(S^2)                   0.95452791 [mEh]       0.59897530 [kcal/mol]       2.50611267 [kJ/mol]
      Exch11(S^2)                   0.00572063 [mEh]       0.00358975 [kcal/mol]       0.01501952 [kJ/mol]
      Exch12(S^2)                   0.15531646 [mEh]       0.09746255 [kcal/mol]       0.40778331 [kJ/mol]

    Induction                      -0.30433283 [mEh]      -0.19097174 [kcal/mol]      -0.79902574 [kJ/mol]
      Ind20,r                      -0.38554879 [mEh]      -0.24193552 [kcal/mol]      -1.01225820 [kJ/mol]
      Ind22                        -0.03393211 [mEh]      -0.02129272 [kcal/mol]      -0.08908874 [kJ/mol]
      Exch-Ind20,r                  0.18602492 [mEh]       0.11673240 [kcal/mol]       0.48840836 [kJ/mol]
      Exch-Ind22                    0.01637203 [mEh]       0.01027361 [kcal/mol]       0.04298477 [kJ/mol]
      delta HF,r (2)               -0.08724889 [mEh]      -0.05474950 [kcal/mol]      -0.22907193 [kJ/mol]

    Dispersion                     -2.62550571 [mEh]      -1.64752970 [kcal/mol]      -6.89326428 [kJ/mol]
      Disp20                       -2.81604521 [mEh]      -1.76709505 [kcal/mol]      -7.39352568 [kJ/mol]
      Disp21                        0.53896795 [mEh]       0.33820749 [kcal/mol]       1.41506016 [kJ/mol]
      Disp22 (SDQ)                  0.02527284 [mEh]       0.01585894 [kcal/mol]       0.06635382 [kJ/mol]
      Disp22 (T)                   -0.47862430 [mEh]      -0.30034128 [kcal/mol]      -1.25662793 [kJ/mol]
      Est. Disp22 (T)              -0.50728129 [mEh]      -0.31832381 [kcal/mol]      -1.33186683 [kJ/mol]
      Exch-Disp20                   0.13358000 [mEh]       0.08382272 [kcal/mol]       0.35071425 [kJ/mol]

  Total HF                         -1.50637938 [mEh]      -0.94526733 [kcal/mol]      -3.95499851 [kJ/mol]
  Total SAPT0                      -4.18884458 [mEh]      -2.62853966 [kcal/mol]     -10.99780994 [kJ/mol]
  Total SAPT2                      -3.98190602 [mEh]      -2.49868375 [kcal/mol]     -10.45449283 [kJ/mol]
  Total SAPT2+                     -3.92494653 [mEh]      -2.46294113 [kcal/mol]     -10.30494568 [kJ/mol]

  Special recipe for scaled SAPT0 (see Manual):
    Electrostatics sSAPT0          -2.17469044 [mEh]      -1.36463885 [kcal/mol]      -5.70964897 [kJ/mol]
    Exchange sSAPT0                 0.95508382 [mEh]       0.59932415 [kcal/mol]       2.50757222 [kJ/mol]
    Induction sSAPT0               -0.28644755 [mEh]      -0.17974855 [kcal/mol]      -0.75206793 [kJ/mol]
    Dispersion sSAPT0              -2.68223168 [mEh]      -1.68312579 [kcal/mol]      -7.04219830 [kJ/mol]
  Total sSAPT0                     -4.18828585 [mEh]      -2.62818905 [kcal/mol]     -10.99634298 [kJ/mol]
  --------------------------------------------------------------------------------------------------------

*** tstop() called on node98.bme.utexas.edu at Thu Apr 23 17:25:43 2020
Module time:
	user time   =    1128.60 seconds =      18.81 minutes
	system time =      26.81 seconds =       0.45 minutes
	total time  =        148 seconds =       2.47 minutes
Total time:
	user time   =    1239.00 seconds =      20.65 minutes
	system time =      29.62 seconds =       0.49 minutes
	total time  =        165 seconds =       2.75 minutes

    Psi4 stopped on: Thursday, 23 April 2020 05:25PM
    Psi4 wall time for execution: 0:02:44.94

*** Psi4 exiting successfully. Buy a developer a beer!
