
    -----------------------------------------------------------------------
          Psi4: An Open-Source Ab Initio Electronic Structure Package
                               Psi4 1.4a2.dev224 

                         Git: Rev {master} e453b16 


    R. M. Parrish, L. A. Burns, D. G. A. Smith, A. C. Simmonett,
    A. E. DePrince III, E. G. Hohenstein, U. Bozkaya, A. Yu. Sokolov,
    R. Di Remigio, R. M. Richard, J. F. Gonthier, A. M. James,
    H. R. McAlexander, A. Kumar, M. Saitow, X. Wang, B. P. Pritchard,
    P. Verma, H. F. Schaefer III, K. Patkowski, R. A. King, E. F. Valeev,
    F. A. Evangelista, J. M. Turney, T. D. Crawford, and C. D. Sherrill,
    J. Chem. Theory Comput. 13(7) pp 3185--3197 (2017).
    (doi: 10.1021/acs.jctc.7b00174)


                         Additional Contributions by
    P. Kraus, H. Kruse, M. H. Lechner, M. C. Schieber, R. A. Shaw,
    A. Alenaizan, R. Galvelis, Z. L. Glick, S. Lehtola, and J. P. Misiewicz

    -----------------------------------------------------------------------


    Psi4 started on: Thursday, 23 April 2020 05:23PM

    Process ID: 10962
    Host:       genome.bme.utexas.edu
    PSIDATADIR: /home/liuchw/anaconda3/envs/psi4env/share/psi4
    Memory:     500.0 MiB
    Threads:    8
    
  ==> Input File <==

--------------------------------------------------------------------------
#Generated by lconvert.py for sapt job

memory 20 GB

molecule  {
0 1
  N      -0.541060    0.029580   -0.208990
  H       0.055550   -0.786120   -0.130290
  H      -1.469670   -0.274710    0.053140
  C      -0.078800    1.042390    0.738460
  H      -0.720150    1.919410    0.671980
  H      -0.050760    0.723820    1.785510
  H       0.926430    1.356600    0.462000
--
0 1
  N       4.431520   -1.687000    0.176800
  C       4.769960   -0.874660   -0.834920
  H       4.227290   -1.019200   -1.760300
  C       5.741290    0.117470   -0.734550
  H       5.966140    0.741820   -1.587400
  C       6.402120    0.287020    0.477720
  H       7.159980    1.049250    0.594100
  C       6.061990   -0.547950    1.536840
  H       6.544580   -0.457480    2.499540
  C       5.078210   -1.512730    1.337660
  H       4.792130   -2.176480    2.144270
units angstrom
no_reorient
symmetry c1
}

set {
scf_type DF
basis aug-cc-pvdz
freeze_core True
guess SAD
}
energy('sapt2+')
--------------------------------------------------------------------------

  Memory set to  18.626 GiB by Python driver.

Scratch directory: /scratch/liuchw/

  //>>>>>>>>>>>>>>>>>>>>>>>>>>>>>>>>>>>//
  //              Dimer HF             //
  //<<<<<<<<<<<<<<<<<<<<<<<<<<<<<<<<<<<//


*** tstart() called on genome.bme.utexas.edu
*** at Thu Apr 23 17:23:34 2020

   => Loading Basis Set <=

    Name: AUG-CC-PVDZ
    Role: ORBITAL
    Keyword: BASIS
    atoms 1, 8                         entry N          line   218 file /home/liuchw/anaconda3/envs/psi4env/share/psi4/basis/aug-cc-pvdz.gbs 
    atoms 2-3, 5-7, 10, 12, 14, 16, 18 entry H          line    40 file /home/liuchw/anaconda3/envs/psi4env/share/psi4/basis/aug-cc-pvdz.gbs 
    atoms 4, 9, 11, 13, 15, 17         entry C          line   182 file /home/liuchw/anaconda3/envs/psi4env/share/psi4/basis/aug-cc-pvdz.gbs 


         ---------------------------------------------------------
                                   SCF
               by Justin Turney, Rob Parrish, Andy Simmonett
                          and Daniel G. A. Smith
                              RHF Reference
                        8 Threads,  19073 MiB Core
         ---------------------------------------------------------

  ==> Geometry <==

    Molecular point group: c1
    Full point group: C1

    Geometry (in Angstrom), charge = 0, multiplicity = 1:

       Center              X                  Y                   Z               Mass       
    ------------   -----------------  -----------------  -----------------  -----------------
         N           -4.336528005943     0.392802751517    -0.523052155294    14.003074004430
         H           -3.739918005943    -0.422897248483    -0.444352155294     1.007825032230
         H           -5.265138005943     0.088512751517    -0.260922155294     1.007825032230
         C           -3.874268005943     1.405612751517     0.424397844706    12.000000000000
         H           -4.515618005943     2.282632751517     0.357917844706     1.007825032230
         H           -3.846228005943     1.087042751517     1.471447844706     1.007825032230
         H           -2.869038005943     1.719822751517     0.147937844706     1.007825032230
         N            0.636051994057    -1.323777248483    -0.137262155294    14.003074004430
         C            0.974491994057    -0.511437248483    -1.148982155294    12.000000000000
         H            0.431821994057    -0.655977248483    -2.074362155294     1.007825032230
         C            1.945821994057     0.480692751517    -1.048612155294    12.000000000000
         H            2.170671994057     1.105042751517    -1.901462155294     1.007825032230
         C            2.606651994057     0.650242751517     0.163657844706    12.000000000000
         H            3.364511994057     1.412472751517     0.280037844706     1.007825032230
         C            2.266521994057    -0.184727248483     1.222777844706    12.000000000000
         H            2.749111994057    -0.094257248483     2.185477844706     1.007825032230
         C            1.282741994057    -1.149507248483     1.023597844706    12.000000000000
         H            0.996661994057    -1.813257248483     1.830207844706     1.007825032230

  Running in c1 symmetry.

  Rotational constants: A =      0.10506  B =      0.01932  C =      0.01906 [cm^-1]
  Rotational constants: A =   3149.61683  B =    579.05401  C =    571.35291 [MHz]
  Nuclear repulsion =  314.919568852345719

  Charge       = 0
  Multiplicity = 1
  Electrons    = 60
  Nalpha       = 30
  Nbeta        = 30

  ==> Algorithm <==

  SCF Algorithm Type is DF.
  DIIS enabled.
  MOM disabled.
  Fractional occupation disabled.
  Guess Type is SAD.
  Energy threshold   = 1.00e-08
  Density threshold  = 1.00e-08
  Integral threshold = 0.00e+00

  ==> Primary Basis <==

  Basis Set: AUG-CC-PVDZ
    Blend: AUG-CC-PVDZ
    Number of shells: 122
    Number of basis function: 274
    Number of Cartesian functions: 290
    Spherical Harmonics?: true
    Max angular momentum: 2

   => Loading Basis Set <=

    Name: (AUG-CC-PVDZ AUX)
    Role: JKFIT
    Keyword: DF_BASIS_SCF
    atoms 1, 8                         entry N          line   212 file /home/liuchw/anaconda3/envs/psi4env/share/psi4/basis/aug-cc-pvdz-jkfit.gbs 
    atoms 2-3, 5-7, 10, 12, 14, 16, 18 entry H          line    70 file /home/liuchw/anaconda3/envs/psi4env/share/psi4/basis/aug-cc-pvdz-jkfit.gbs 
    atoms 4, 9, 11, 13, 15, 17         entry C          line   154 file /home/liuchw/anaconda3/envs/psi4env/share/psi4/basis/aug-cc-pvdz-jkfit.gbs 

  ==> Pre-Iterations <==

   -------------------------------------------------------
    Irrep   Nso     Nmo     Nalpha   Nbeta   Ndocc  Nsocc
   -------------------------------------------------------
     A        274     274       0       0       0       0
   -------------------------------------------------------
    Total     274     274      30      30      30       0
   -------------------------------------------------------

  ==> Integral Setup <==

  ==> DiskDFJK: Density-Fitted J/K Matrices <==

    J tasked:                  Yes
    K tasked:                  Yes
    wK tasked:                  No
    OpenMP threads:              8
    Integrals threads:           8
    Memory [MiB]:            14305
    Algorithm:                Core
    Integral Cache:           SAVE
    Schwarz Cutoff:          1E-12
    Fitting Condition:       1E-10

   => Auxiliary Basis Set <=

  Basis Set: (AUG-CC-PVDZ AUX)
    Blend: AUG-CC-PVDZ-JKFIT
    Number of shells: 344
    Number of basis function: 1008
    Number of Cartesian functions: 1158
    Spherical Harmonics?: true
    Max angular momentum: 3

  Minimum eigenvalue in the overlap matrix is 1.0403034369E-05.
  Using Symmetric Orthogonalization.

  SCF Guess: Superposition of Atomic Densities via on-the-fly atomic UHF.

  ==> Iterations <==

                           Total Energy        Delta E     RMS |[F,P]|

   @DF-RHF iter SAD:  -340.72663738088880   -3.40727e+02   0.00000e+00 
   @DF-RHF iter   1:  -341.69776225452830   -9.71125e-01   2.38823e-03 DIIS
   @DF-RHF iter   2:  -341.90372720790776   -2.05965e-01   1.17222e-03 DIIS
   @DF-RHF iter   3:  -341.95247122923416   -4.87440e-02   2.00281e-04 DIIS
   @DF-RHF iter   4:  -341.95496383066506   -2.49260e-03   5.98310e-05 DIIS
   @DF-RHF iter   5:  -341.95511917086060   -1.55340e-04   1.63834e-05 DIIS
   @DF-RHF iter   6:  -341.95513438841948   -1.52176e-05   5.78981e-06 DIIS
   @DF-RHF iter   7:  -341.95513615771728   -1.76930e-06   1.67724e-06 DIIS
   @DF-RHF iter   8:  -341.95513639921063   -2.41493e-07   5.34565e-07 DIIS
   @DF-RHF iter   9:  -341.95513643297261   -3.37620e-08   1.80163e-07 DIIS
   @DF-RHF iter  10:  -341.95513643773143   -4.75882e-09   8.63998e-08 DIIS
   @DF-RHF iter  11:  -341.95513643911681   -1.38539e-09   3.65998e-08 DIIS
   @DF-RHF iter  12:  -341.95513643936579   -2.48974e-10   1.63828e-08 DIIS
   @DF-RHF iter  13:  -341.95513643940620   -4.04157e-11   6.05317e-09 DIIS
  Energy and wave function converged.


  ==> Post-Iterations <==

    Orbital Energies [Eh]
    ---------------------

    Doubly Occupied:                                                      

       1A    -15.577213     2A    -15.543365     3A    -11.283382  
       4A    -11.282984     5A    -11.267824     6A    -11.249991  
       7A    -11.249681     8A    -11.242457     9A     -1.261396  
      10A     -1.168058    11A     -1.093979    12A     -1.037967  
      13A     -0.891147    14A     -0.862664    15A     -0.859383  
      16A     -0.724269    17A     -0.662898    18A     -0.657264  
      19A     -0.656431    20A     -0.600576    21A     -0.598398  
      22A     -0.579035    23A     -0.549319    24A     -0.542356  
      25A     -0.521533    26A     -0.510442    27A     -0.420801  
      28A     -0.387460    29A     -0.384965    30A     -0.349101  

    Virtual:                                                              

      31A      0.030890    32A      0.039258    33A      0.041138  
      34A      0.049098    35A      0.055209    36A      0.057633  
      37A      0.066735    38A      0.068778    39A      0.076079  
      40A      0.089214    41A      0.095499    42A      0.103865  
      43A      0.114714    44A      0.120145    45A      0.125831  
      46A      0.130229    47A      0.131775    48A      0.144323  
      49A      0.144897    50A      0.149381    51A      0.156581  
      52A      0.157668    53A      0.160221    54A      0.164456  
      55A      0.176714    56A      0.177319    57A      0.182401  
      58A      0.185613    59A      0.187477    60A      0.188550  
      61A      0.199744    62A      0.203627    63A      0.208764  
      64A      0.219468    65A      0.236050    66A      0.259986  
      67A      0.262229    68A      0.280847    69A      0.295859  
      70A      0.298910    71A      0.301151    72A      0.313609  
      73A      0.320364    74A      0.322759    75A      0.331028  
      76A      0.340213    77A      0.342787    78A      0.346601  
      79A      0.351003    80A      0.360039    81A      0.362233  
      82A      0.370892    83A      0.372810    84A      0.380558  
      85A      0.384680    86A      0.408175    87A      0.413802  
      88A      0.415967    89A      0.424952    90A      0.429086  
      91A      0.433891    92A      0.438889    93A      0.441707  
      94A      0.450766    95A      0.474065    96A      0.479881  
      97A      0.485479    98A      0.497271    99A      0.511244  
     100A      0.517145   101A      0.542463   102A      0.543746  
     103A      0.547446   104A      0.556450   105A      0.557350  
     106A      0.564093   107A      0.566382   108A      0.578660  
     109A      0.586908   110A      0.592685   111A      0.600068  
     112A      0.604218   113A      0.617310   114A      0.627978  
     115A      0.630373   116A      0.639194   117A      0.649151  
     118A      0.657735   119A      0.660531   120A      0.666025  
     121A      0.674622   122A      0.681184   123A      0.684072  
     124A      0.684595   125A      0.690830   126A      0.694364  
     127A      0.700679   128A      0.708286   129A      0.711440  
     130A      0.716106   131A      0.729825   132A      0.737279  
     133A      0.742134   134A      0.745732   135A      0.763504  
     136A      0.765637   137A      0.780163   138A      0.799335  
     139A      0.821030   140A      0.838146   141A      0.853050  
     142A      0.855141   143A      0.858941   144A      0.880511  
     145A      0.884535   146A      0.889670   147A      0.902819  
     148A      0.904924   149A      0.911990   150A      0.932256  
     151A      0.941533   152A      0.947349   153A      0.966959  
     154A      0.970532   155A      0.985699   156A      0.997944  
     157A      1.019595   158A      1.030078   159A      1.045725  
     160A      1.050896   161A      1.078771   162A      1.085388  
     163A      1.108371   164A      1.121853   165A      1.131504  
     166A      1.139418   167A      1.142291   168A      1.154743  
     169A      1.198729   170A      1.240755   171A      1.260688  
     172A      1.273986   173A      1.305816   174A      1.328043  
     175A      1.355825   176A      1.388062   177A      1.403797  
     178A      1.412689   179A      1.438128   180A      1.451610  
     181A      1.534561   182A      1.541250   183A      1.565541  
     184A      1.567614   185A      1.590606   186A      1.596086  
     187A      1.606748   188A      1.614009   189A      1.621969  
     190A      1.627418   191A      1.670312   192A      1.674039  
     193A      1.686465   194A      1.698021   195A      1.716063  
     196A      1.745514   197A      1.748586   198A      1.765857  
     199A      1.780895   200A      1.789635   201A      1.816608  
     202A      1.830452   203A      1.852387   204A      1.905630  
     205A      1.913238   206A      1.916424   207A      1.925021  
     208A      1.936118   209A      1.946027   210A      1.952400  
     211A      1.960973   212A      1.971063   213A      2.044500  
     214A      2.054159   215A      2.072507   216A      2.083653  
     217A      2.094401   218A      2.113112   219A      2.119104  
     220A      2.129627   221A      2.150621   222A      2.166200  
     223A      2.170036   224A      2.186660   225A      2.201847  
     226A      2.202146   227A      2.237063   228A      2.265240  
     229A      2.283644   230A      2.298448   231A      2.304045  
     232A      2.338141   233A      2.360493   234A      2.361908  
     235A      2.390937   236A      2.401451   237A      2.435689  
     238A      2.456432   239A      2.482550   240A      2.487806  
     241A      2.500713   242A      2.546949   243A      2.558957  
     244A      2.611007   245A      2.618426   246A      2.641250  
     247A      2.659551   248A      2.701444   249A      2.743506  
     250A      2.755746   251A      2.797373   252A      2.827986  
     253A      2.845190   254A      2.879477   255A      2.895253  
     256A      2.897880   257A      2.928555   258A      2.970821  
     259A      2.985854   260A      3.003033   261A      3.040079  
     262A      3.090455   263A      3.113370   264A      3.115511  
     265A      3.132663   266A      3.136122   267A      3.269872  
     268A      3.370094   269A      3.396954   270A      3.403141  
     271A      3.629241   272A      3.664468   273A      3.665158  
     274A      4.293902  

    Final Occupation by Irrep:
              A 
    DOCC [    30 ]

  @DF-RHF Final Energy:  -341.95513643940620

   => Energetics <=

    Nuclear Repulsion Energy =            314.9195688523457193
    One-Electron Energy =               -1085.7167304330077968
    Two-Electron Energy =                 428.8420251412558741
    Total Energy =                       -341.9551364394062034

Computation Completed


Properties will be evaluated at   0.000000,   0.000000,   0.000000 [a0]

Properties computed using the SCF density matrix

  Nuclear Dipole Moment: [e a0]
     X:    -9.8544      Y:     4.4174      Z:     1.4943

  Electronic Dipole Moment: [e a0]
     X:    10.5223      Y:    -3.9985      Z:    -0.8828

  Dipole Moment: [e a0]
     X:     0.6679      Y:     0.4188      Z:     0.6115     Total:     0.9977

  Dipole Moment: [D]
     X:     1.6976      Y:     1.0646      Z:     1.5543     Total:     2.5360


*** tstop() called on genome.bme.utexas.edu at Thu Apr 23 17:23:50 2020
Module time:
	user time   =     108.76 seconds =       1.81 minutes
	system time =       2.91 seconds =       0.05 minutes
	total time  =         16 seconds =       0.27 minutes
Total time:
	user time   =     108.76 seconds =       1.81 minutes
	system time =       2.91 seconds =       0.05 minutes
	total time  =         16 seconds =       0.27 minutes

  //>>>>>>>>>>>>>>>>>>>>>>>>>>>>>>>>>>>//
  //            Monomer A HF           //
  //<<<<<<<<<<<<<<<<<<<<<<<<<<<<<<<<<<<//


*** tstart() called on genome.bme.utexas.edu
*** at Thu Apr 23 17:23:50 2020

   => Loading Basis Set <=

    Name: AUG-CC-PVDZ
    Role: ORBITAL
    Keyword: BASIS
    atoms 1, 8                         entry N          line   218 file /home/liuchw/anaconda3/envs/psi4env/share/psi4/basis/aug-cc-pvdz.gbs 
    atoms 2-3, 5-7, 10, 12, 14, 16, 18 entry H          line    40 file /home/liuchw/anaconda3/envs/psi4env/share/psi4/basis/aug-cc-pvdz.gbs 
    atoms 4, 9, 11, 13, 15, 17         entry C          line   182 file /home/liuchw/anaconda3/envs/psi4env/share/psi4/basis/aug-cc-pvdz.gbs 


         ---------------------------------------------------------
                                   SCF
               by Justin Turney, Rob Parrish, Andy Simmonett
                          and Daniel G. A. Smith
                              RHF Reference
                        8 Threads,  19073 MiB Core
         ---------------------------------------------------------

  ==> Geometry <==

    Molecular point group: c1
    Full point group: C1

    Geometry (in Angstrom), charge = 0, multiplicity = 1:

       Center              X                  Y                   Z               Mass       
    ------------   -----------------  -----------------  -----------------  -----------------
         N           -4.336528005943     0.392802751517    -0.523052155294    14.003074004430
         H           -3.739918005943    -0.422897248483    -0.444352155294     1.007825032230
         H           -5.265138005943     0.088512751517    -0.260922155294     1.007825032230
         C           -3.874268005943     1.405612751517     0.424397844706    12.000000000000
         H           -4.515618005943     2.282632751517     0.357917844706     1.007825032230
         H           -3.846228005943     1.087042751517     1.471447844706     1.007825032230
         H           -2.869038005943     1.719822751517     0.147937844706     1.007825032230
      Gh(N)           0.636051994057    -1.323777248483    -0.137262155294    14.003074004430
      Gh(C)           0.974491994057    -0.511437248483    -1.148982155294    12.000000000000
      Gh(H)           0.431821994057    -0.655977248483    -2.074362155294     1.007825032230
      Gh(C)           1.945821994057     0.480692751517    -1.048612155294    12.000000000000
      Gh(H)           2.170671994057     1.105042751517    -1.901462155294     1.007825032230
      Gh(C)           2.606651994057     0.650242751517     0.163657844706    12.000000000000
      Gh(H)           3.364511994057     1.412472751517     0.280037844706     1.007825032230
      Gh(C)           2.266521994057    -0.184727248483     1.222777844706    12.000000000000
      Gh(H)           2.749111994057    -0.094257248483     2.185477844706     1.007825032230
      Gh(C)           1.282741994057    -1.149507248483     1.023597844706    12.000000000000
      Gh(H)           0.996661994057    -1.813257248483     1.830207844706     1.007825032230

  Running in c1 symmetry.

  Rotational constants: A =      0.10506  B =      0.01932  C =      0.01906 [cm^-1]
  Rotational constants: A =   3149.61683  B =    579.05401  C =    571.35291 [MHz]
  Nuclear repulsion =   42.093865215623154

  Charge       = 0
  Multiplicity = 1
  Electrons    = 18
  Nalpha       = 9
  Nbeta        = 9

  ==> Algorithm <==

  SCF Algorithm Type is DF.
  DIIS enabled.
  MOM disabled.
  Fractional occupation disabled.
  Guess Type is SAD.
  Energy threshold   = 1.00e-08
  Density threshold  = 1.00e-08
  Integral threshold = 0.00e+00

  ==> Primary Basis <==

  Basis Set: AUG-CC-PVDZ
    Blend: AUG-CC-PVDZ
    Number of shells: 122
    Number of basis function: 274
    Number of Cartesian functions: 290
    Spherical Harmonics?: true
    Max angular momentum: 2

   => Loading Basis Set <=

    Name: (AUG-CC-PVDZ AUX)
    Role: JKFIT
    Keyword: DF_BASIS_SCF
    atoms 1, 8                         entry N          line   212 file /home/liuchw/anaconda3/envs/psi4env/share/psi4/basis/aug-cc-pvdz-jkfit.gbs 
    atoms 2-3, 5-7, 10, 12, 14, 16, 18 entry H          line    70 file /home/liuchw/anaconda3/envs/psi4env/share/psi4/basis/aug-cc-pvdz-jkfit.gbs 
    atoms 4, 9, 11, 13, 15, 17         entry C          line   154 file /home/liuchw/anaconda3/envs/psi4env/share/psi4/basis/aug-cc-pvdz-jkfit.gbs 

  ==> Pre-Iterations <==

   -------------------------------------------------------
    Irrep   Nso     Nmo     Nalpha   Nbeta   Ndocc  Nsocc
   -------------------------------------------------------
     A        274     274       0       0       0       0
   -------------------------------------------------------
    Total     274     274       9       9       9       0
   -------------------------------------------------------

  ==> Integral Setup <==

  ==> DiskDFJK: Density-Fitted J/K Matrices <==

    J tasked:                  Yes
    K tasked:                  Yes
    wK tasked:                  No
    OpenMP threads:              8
    Integrals threads:           8
    Memory [MiB]:            14305
    Algorithm:                Core
    Integral Cache:           LOAD
    Schwarz Cutoff:          1E-12
    Fitting Condition:       1E-10

   => Auxiliary Basis Set <=

  Basis Set: (AUG-CC-PVDZ AUX)
    Blend: AUG-CC-PVDZ-JKFIT
    Number of shells: 344
    Number of basis function: 1008
    Number of Cartesian functions: 1158
    Spherical Harmonics?: true
    Max angular momentum: 3

  Minimum eigenvalue in the overlap matrix is 1.0403034369E-05.
  Using Symmetric Orthogonalization.

  SCF Guess: Superposition of Atomic Densities via on-the-fly atomic UHF.

  ==> Iterations <==

                           Total Energy        Delta E     RMS |[F,P]|

   @DF-RHF iter SAD:   -94.61243696258541   -9.46124e+01   0.00000e+00 
   @DF-RHF iter   1:   -95.11442911253307   -5.01992e-01   1.67765e-03 DIIS
   @DF-RHF iter   2:   -95.20274252195294   -8.83134e-02   8.86023e-04 DIIS
   @DF-RHF iter   3:   -95.22934071041470   -2.65982e-02   1.28677e-04 DIIS
   @DF-RHF iter   4:   -95.23050473962726   -1.16403e-03   3.60302e-05 DIIS
   @DF-RHF iter   5:   -95.23057510055861   -7.03609e-05   8.45702e-06 DIIS
   @DF-RHF iter   6:   -95.23058058735629   -5.48680e-06   1.65229e-06 DIIS
   @DF-RHF iter   7:   -95.23058091241127   -3.25055e-07   3.67827e-07 DIIS
   @DF-RHF iter   8:   -95.23058093099027   -1.85790e-08   8.77564e-08 DIIS
   @DF-RHF iter   9:   -95.23058093223698   -1.24670e-09   2.16043e-08 DIIS
   @DF-RHF iter  10:   -95.23058093231448   -7.75060e-11   5.11262e-09 DIIS
  Energy and wave function converged.


  ==> Post-Iterations <==

    Orbital Energies [Eh]
    ---------------------

    Doubly Occupied:                                                      

       1A    -15.549177     2A    -11.247713     3A     -1.173821  
       4A     -0.896537     5A     -0.663111     6A     -0.603846  
       7A     -0.554727     8A     -0.515925     9A     -0.392980  

    Virtual:                                                              

      10A      0.020340    11A      0.035392    12A      0.038196  
      13A      0.043092    14A      0.053126    15A      0.057444  
      16A      0.063107    17A      0.065880    18A      0.069221  
      19A      0.084019    20A      0.091945    21A      0.102811  
      22A      0.106566    23A      0.112284    24A      0.117256  
      25A      0.125050    26A      0.132414    27A      0.137638  
      28A      0.144227    29A      0.146877    30A      0.148116  
      31A      0.156166    32A      0.157642    33A      0.169009  
      34A      0.173412    35A      0.179632    36A      0.181689  
      37A      0.184035    38A      0.191557    39A      0.195681  
      40A      0.199375    41A      0.210758    42A      0.221015  
      43A      0.231739    44A      0.236802    45A      0.241133  
      46A      0.245715    47A      0.251376    48A      0.276484  
      49A      0.279882    50A      0.301876    51A      0.306169  
      52A      0.309578    53A      0.321473    54A      0.337030  
      55A      0.346925    56A      0.352050    57A      0.363990  
      58A      0.369405    59A      0.370809    60A      0.384718  
      61A      0.396344    62A      0.400448    63A      0.409812  
      64A      0.419227    65A      0.430867    66A      0.434897  
      67A      0.438713    68A      0.442097    69A      0.455126  
      70A      0.460989    71A      0.462699    72A      0.465925  
      73A      0.476471    74A      0.485120    75A      0.493668  
      76A      0.499557    77A      0.505388    78A      0.509044  
      79A      0.518813    80A      0.521151    81A      0.534225  
      82A      0.539821    83A      0.545239    84A      0.547388  
      85A      0.555258    86A      0.568492    87A      0.572364  
      88A      0.583524    89A      0.591850    90A      0.597977  
      91A      0.613840    92A      0.617476    93A      0.634074  
      94A      0.638738    95A      0.642354    96A      0.649851  
      97A      0.653878    98A      0.658463    99A      0.667011  
     100A      0.672866   101A      0.676075   102A      0.689745  
     103A      0.697276   104A      0.702510   105A      0.704887  
     106A      0.727217   107A      0.753399   108A      0.755549  
     109A      0.763842   110A      0.777578   111A      0.794252  
     112A      0.797095   113A      0.807386   114A      0.823877  
     115A      0.825952   116A      0.833031   117A      0.848998  
     118A      0.862683   119A      0.870423   120A      0.874707  
     121A      0.877590   122A      0.885502   123A      0.888900  
     124A      0.896075   125A      0.910542   126A      0.918948  
     127A      0.931948   128A      0.941415   129A      0.947975  
     130A      1.004630   131A      1.016011   132A      1.032922  
     133A      1.038913   134A      1.042556   135A      1.057178  
     136A      1.058039   137A      1.075254   138A      1.102884  
     139A      1.117747   140A      1.121394   141A      1.127529  
     142A      1.137885   143A      1.146811   144A      1.154770  
     145A      1.161776   146A      1.172478   147A      1.215320  
     148A      1.253724   149A      1.296998   150A      1.301862  
     151A      1.320942   152A      1.325163   153A      1.333780  
     154A      1.352476   155A      1.378394   156A      1.398625  
     157A      1.405810   158A      1.433129   159A      1.441417  
     160A      1.492894   161A      1.494455   162A      1.575075  
     163A      1.593582   164A      1.617306   165A      1.634610  
     166A      1.739492   167A      1.759561   168A      1.899779  
     169A      1.913180   170A      1.926148   171A      1.963892  
     172A      2.068566   173A      2.076016   174A      2.097495  
     175A      2.116576   176A      2.134596   177A      2.144451  
     178A      2.146221   179A      2.149890   180A      2.159138  
     181A      2.169638   182A      2.180115   183A      2.198274  
     184A      2.204246   185A      2.208901   186A      2.223532  
     187A      2.227380   188A      2.265736   189A      2.287548  
     190A      2.294040   191A      2.308362   192A      2.317902  
     193A      2.336095   194A      2.353522   195A      2.383668  
     196A      2.387956   197A      2.396848   198A      2.399656  
     199A      2.415643   200A      2.452733   201A      2.479110  
     202A      2.489419   203A      2.494780   204A      2.519779  
     205A      2.536976   206A      2.544290   207A      2.582405  
     208A      2.588044   209A      2.596675   210A      2.610356  
     211A      2.637836   212A      2.642143   213A      2.657241  
     214A      2.674693   215A      2.707604   216A      2.727705  
     217A      2.734709   218A      2.750899   219A      2.817744  
     220A      2.856118   221A      2.867319   222A      2.874008  
     223A      2.888481   224A      2.893398   225A      2.923819  
     226A      2.934621   227A      2.991111   228A      3.032180  
     229A      3.045216   230A      3.056031   231A      3.085455  
     232A      3.107706   233A      3.122259   234A      3.129313  
     235A      3.207238   236A      3.275509   237A      3.335880  
     238A      3.353473   239A      3.366520   240A      3.392846  
     241A      3.411608   242A      3.420857   243A      3.464445  
     244A      3.485375   245A      3.528867   246A      3.598821  
     247A      3.632449   248A      3.662644   249A      3.863213  
     250A      3.871333   251A      3.881019   252A      4.011962  
     253A      4.057346   254A      4.181972   255A      4.437218  
     256A      4.512039   257A      4.600255   258A      4.659434  
     259A      4.786057   260A      4.923048   261A      5.133260  
     262A      5.398458   263A      5.487855   264A      5.548692  
     265A      5.599579   266A      5.605843   267A      5.773036  
     268A      6.143954   269A     18.060382   270A     18.352303  
     271A     18.701065   272A     19.046582   273A     19.878719  
     274A     25.324382  

    Final Occupation by Irrep:
              A 
    DOCC [     9 ]

  @DF-RHF Final Energy:   -95.23058093231448

   => Energetics <=

    Nuclear Repulsion Energy =             42.0938652156231541
    One-Electron Energy =                -211.4532194308446265
    Two-Electron Energy =                  74.1287732829069768
    Total Energy =                        -95.2305809323144814

Computation Completed


Properties will be evaluated at   0.000000,   0.000000,   0.000000 [a0]

Properties computed using the SCF density matrix

  Nuclear Dipole Moment: [e a0]
     X:  -139.5322      Y:    30.1192      Z:     0.2968

  Electronic Dipole Moment: [e a0]
     X:   139.5223      Y:   -30.3443      Z:     0.2307

  Dipole Moment: [e a0]
     X:    -0.0098      Y:    -0.2251      Z:     0.5275     Total:     0.5736

  Dipole Moment: [D]
     X:    -0.0250      Y:    -0.5721      Z:     1.3408     Total:     1.4580


*** tstop() called on genome.bme.utexas.edu at Thu Apr 23 17:23:59 2020
Module time:
	user time   =      58.29 seconds =       0.97 minutes
	system time =       1.40 seconds =       0.02 minutes
	total time  =          9 seconds =       0.15 minutes
Total time:
	user time   =     167.13 seconds =       2.79 minutes
	system time =       4.31 seconds =       0.07 minutes
	total time  =         25 seconds =       0.42 minutes

  //>>>>>>>>>>>>>>>>>>>>>>>>>>>>>>>>>>>//
  //            Monomer B HF           //
  //<<<<<<<<<<<<<<<<<<<<<<<<<<<<<<<<<<<//


*** tstart() called on genome.bme.utexas.edu
*** at Thu Apr 23 17:23:59 2020

   => Loading Basis Set <=

    Name: AUG-CC-PVDZ
    Role: ORBITAL
    Keyword: BASIS
    atoms 1, 8                         entry N          line   218 file /home/liuchw/anaconda3/envs/psi4env/share/psi4/basis/aug-cc-pvdz.gbs 
    atoms 2-3, 5-7, 10, 12, 14, 16, 18 entry H          line    40 file /home/liuchw/anaconda3/envs/psi4env/share/psi4/basis/aug-cc-pvdz.gbs 
    atoms 4, 9, 11, 13, 15, 17         entry C          line   182 file /home/liuchw/anaconda3/envs/psi4env/share/psi4/basis/aug-cc-pvdz.gbs 


         ---------------------------------------------------------
                                   SCF
               by Justin Turney, Rob Parrish, Andy Simmonett
                          and Daniel G. A. Smith
                              RHF Reference
                        8 Threads,  19073 MiB Core
         ---------------------------------------------------------

  ==> Geometry <==

    Molecular point group: c1
    Full point group: C1

    Geometry (in Angstrom), charge = 0, multiplicity = 1:

       Center              X                  Y                   Z               Mass       
    ------------   -----------------  -----------------  -----------------  -----------------
      Gh(N)          -4.336528005943     0.392802751517    -0.523052155294    14.003074004430
      Gh(H)          -3.739918005943    -0.422897248483    -0.444352155294     1.007825032230
      Gh(H)          -5.265138005943     0.088512751517    -0.260922155294     1.007825032230
      Gh(C)          -3.874268005943     1.405612751517     0.424397844706    12.000000000000
      Gh(H)          -4.515618005943     2.282632751517     0.357917844706     1.007825032230
      Gh(H)          -3.846228005943     1.087042751517     1.471447844706     1.007825032230
      Gh(H)          -2.869038005943     1.719822751517     0.147937844706     1.007825032230
         N            0.636051994057    -1.323777248483    -0.137262155294    14.003074004430
         C            0.974491994057    -0.511437248483    -1.148982155294    12.000000000000
         H            0.431821994057    -0.655977248483    -2.074362155294     1.007825032230
         C            1.945821994057     0.480692751517    -1.048612155294    12.000000000000
         H            2.170671994057     1.105042751517    -1.901462155294     1.007825032230
         C            2.606651994057     0.650242751517     0.163657844706    12.000000000000
         H            3.364511994057     1.412472751517     0.280037844706     1.007825032230
         C            2.266521994057    -0.184727248483     1.222777844706    12.000000000000
         H            2.749111994057    -0.094257248483     2.185477844706     1.007825032230
         C            1.282741994057    -1.149507248483     1.023597844706    12.000000000000
         H            0.996661994057    -1.813257248483     1.830207844706     1.007825032230

  Running in c1 symmetry.

  Rotational constants: A =      0.10506  B =      0.01932  C =      0.01906 [cm^-1]
  Rotational constants: A =   3149.61683  B =    579.05401  C =    571.35291 [MHz]
  Nuclear repulsion =  206.234926802516895

  Charge       = 0
  Multiplicity = 1
  Electrons    = 42
  Nalpha       = 21
  Nbeta        = 21

  ==> Algorithm <==

  SCF Algorithm Type is DF.
  DIIS enabled.
  MOM disabled.
  Fractional occupation disabled.
  Guess Type is SAD.
  Energy threshold   = 1.00e-08
  Density threshold  = 1.00e-08
  Integral threshold = 0.00e+00

  ==> Primary Basis <==

  Basis Set: AUG-CC-PVDZ
    Blend: AUG-CC-PVDZ
    Number of shells: 122
    Number of basis function: 274
    Number of Cartesian functions: 290
    Spherical Harmonics?: true
    Max angular momentum: 2

   => Loading Basis Set <=

    Name: (AUG-CC-PVDZ AUX)
    Role: JKFIT
    Keyword: DF_BASIS_SCF
    atoms 1, 8                         entry N          line   212 file /home/liuchw/anaconda3/envs/psi4env/share/psi4/basis/aug-cc-pvdz-jkfit.gbs 
    atoms 2-3, 5-7, 10, 12, 14, 16, 18 entry H          line    70 file /home/liuchw/anaconda3/envs/psi4env/share/psi4/basis/aug-cc-pvdz-jkfit.gbs 
    atoms 4, 9, 11, 13, 15, 17         entry C          line   154 file /home/liuchw/anaconda3/envs/psi4env/share/psi4/basis/aug-cc-pvdz-jkfit.gbs 

  ==> Pre-Iterations <==

   -------------------------------------------------------
    Irrep   Nso     Nmo     Nalpha   Nbeta   Ndocc  Nsocc
   -------------------------------------------------------
     A        274     274       0       0       0       0
   -------------------------------------------------------
    Total     274     274      21      21      21       0
   -------------------------------------------------------

  ==> Integral Setup <==

  ==> DiskDFJK: Density-Fitted J/K Matrices <==

    J tasked:                  Yes
    K tasked:                  Yes
    wK tasked:                  No
    OpenMP threads:              8
    Integrals threads:           8
    Memory [MiB]:            14305
    Algorithm:                Core
    Integral Cache:           LOAD
    Schwarz Cutoff:          1E-12
    Fitting Condition:       1E-10

   => Auxiliary Basis Set <=

  Basis Set: (AUG-CC-PVDZ AUX)
    Blend: AUG-CC-PVDZ-JKFIT
    Number of shells: 344
    Number of basis function: 1008
    Number of Cartesian functions: 1158
    Spherical Harmonics?: true
    Max angular momentum: 3

  Minimum eigenvalue in the overlap matrix is 1.0403034369E-05.
  Using Symmetric Orthogonalization.

  SCF Guess: Superposition of Atomic Densities via on-the-fly atomic UHF.

  ==> Iterations <==

                           Total Energy        Delta E     RMS |[F,P]|

   @DF-RHF iter SAD:  -246.11048322247268   -2.46110e+02   0.00000e+00 
   @DF-RHF iter   1:  -246.58225529284226   -4.71772e-01   1.70312e-03 DIIS
   @DF-RHF iter   2:  -246.70019660148964   -1.17941e-01   7.70943e-04 DIIS
   @DF-RHF iter   3:  -246.72255185909745   -2.23553e-02   1.50673e-04 DIIS
   @DF-RHF iter   4:  -246.72385430069755   -1.30244e-03   4.66548e-05 DIIS
   @DF-RHF iter   5:  -246.72393571208204   -8.14114e-05   1.31095e-05 DIIS
   @DF-RHF iter   6:  -246.72394452779815   -8.81572e-06   3.24156e-06 DIIS
   @DF-RHF iter   7:  -246.72394521951580   -6.91718e-07   1.24845e-06 DIIS
   @DF-RHF iter   8:  -246.72394532775010   -1.08234e-07   5.04733e-07 DIIS
   @DF-RHF iter   9:  -246.72394536120430   -3.34542e-08   1.52466e-07 DIIS
   @DF-RHF iter  10:  -246.72394536542259   -4.21829e-09   5.54434e-08 DIIS
   @DF-RHF iter  11:  -246.72394536617782   -7.55222e-10   3.17256e-08 DIIS
   @DF-RHF iter  12:  -246.72394536633556   -1.57740e-10   7.91006e-09 DIIS
  Energy and wave function converged.


  ==> Post-Iterations <==

    Orbital Energies [Eh]
    ---------------------

    Doubly Occupied:                                                      

       1A    -15.575716     2A    -11.281966     3A    -11.281944  
       4A    -11.266724     5A    -11.248798     6A    -11.248740  
       7A     -1.259985     8A     -1.092816     9A     -1.036798  
      10A     -0.861549    11A     -0.858160    12A     -0.723123  
      13A     -0.661689    14A     -0.655413    15A     -0.599489  
      16A     -0.577845    17A     -0.540976    18A     -0.520446  
      19A     -0.419235    20A     -0.383637    21A     -0.347959  

    Virtual:                                                              

      22A      0.027902    23A      0.035093    24A      0.039766  
      25A      0.047282    26A      0.054303    27A      0.056553  
      28A      0.064748    29A      0.068080    30A      0.072115  
      31A      0.089936    32A      0.096902    33A      0.104436  
      34A      0.110059    35A      0.114314    36A      0.125772  
      37A      0.129030    38A      0.131708    39A      0.134325  
      40A      0.143679    41A      0.145555    42A      0.146328  
      43A      0.154513    44A      0.158261    45A      0.160366  
      46A      0.161029    47A      0.172187    48A      0.173900  
      49A      0.178560    50A      0.186299    51A      0.186734  
      52A      0.190187    53A      0.194282    54A      0.199470  
      55A      0.205961    56A      0.227327    57A      0.250152  
      58A      0.261152    59A      0.278773    60A      0.285721  
      61A      0.299532    62A      0.301772    63A      0.309276  
      64A      0.328520    65A      0.331981    66A      0.339914  
      67A      0.342568    68A      0.344530    69A      0.350641  
      70A      0.354239    71A      0.360278    72A      0.371332  
      73A      0.375535    74A      0.380588    75A      0.390633  
      76A      0.406497    77A      0.414396    78A      0.422744  
      79A      0.428770    80A      0.431649    81A      0.433290  
      82A      0.438176    83A      0.441286    84A      0.444794  
      85A      0.448677    86A      0.458105    87A      0.459969  
      88A      0.480660    89A      0.493062    90A      0.500460  
      91A      0.508622    92A      0.518982    93A      0.538885  
      94A      0.545538    95A      0.548183    96A      0.552310  
      97A      0.559549    98A      0.563938    99A      0.576636  
     100A      0.590597   101A      0.593549   102A      0.601615  
     103A      0.607689   104A      0.623405   105A      0.632219  
     106A      0.637775   107A      0.657212   108A      0.658741  
     109A      0.662432   110A      0.668981   111A      0.669983  
     112A      0.683535   113A      0.686228   114A      0.691469  
     115A      0.693463   116A      0.699883   117A      0.710960  
     118A      0.718499   119A      0.721744   120A      0.735704  
     121A      0.742735   122A      0.746174   123A      0.759015  
     124A      0.763840   125A      0.773690   126A      0.784893  
     127A      0.818654   128A      0.827402   129A      0.832093  
     130A      0.850640   131A      0.853701   132A      0.857868  
     133A      0.858599   134A      0.876213   135A      0.882751  
     136A      0.883297   137A      0.893335   138A      0.903366  
     139A      0.907960   140A      0.911108   141A      0.935800  
     142A      0.939768   143A      0.949527   144A      0.954047  
     145A      0.969035   146A      0.987330   147A      0.998523  
     148A      1.000909   149A      1.022127   150A      1.032077  
     151A      1.044272   152A      1.071561   153A      1.085374  
     154A      1.095125   155A      1.109880   156A      1.126700  
     157A      1.138522   158A      1.140873   159A      1.145743  
     160A      1.170491   161A      1.199216   162A      1.243051  
     163A      1.247028   164A      1.286451   165A      1.295360  
     166A      1.309137   167A      1.348994   168A      1.362462  
     169A      1.399827   170A      1.412851   171A      1.453005  
     172A      1.536764   173A      1.542813   174A      1.566908  
     175A      1.568615   176A      1.591838   177A      1.608144  
     178A      1.617763   179A      1.622585   180A      1.670850  
     181A      1.675794   182A      1.687307   183A      1.699363  
     184A      1.718534   185A      1.750555   186A      1.780730  
     187A      1.792388   188A      1.816477   189A      1.831139  
     190A      1.853500   191A      1.876743   192A      1.917240  
     193A      1.924429   194A      1.945072   195A      1.952937  
     196A      1.961393   197A      1.974260   198A      1.999032  
     199A      2.046135   200A      2.055199   201A      2.073186  
     202A      2.081483   203A      2.095664   204A      2.116130  
     205A      2.123731   206A      2.169740   207A      2.201094  
     208A      2.202657   209A      2.228585   210A      2.236445  
     211A      2.247818   212A      2.265981   213A      2.279029  
     214A      2.285160   215A      2.297346   216A      2.304424  
     217A      2.335912   218A      2.355597   219A      2.358674  
     220A      2.364222   221A      2.375668   222A      2.436428  
     223A      2.447233   224A      2.458450   225A      2.487914  
     226A      2.511746   227A      2.558276   228A      2.576197  
     229A      2.619302   230A      2.638331   231A      2.643743  
     232A      2.648425   233A      2.660920   234A      2.701521  
     235A      2.744729   236A      2.777584   237A      2.796604  
     238A      2.828850   239A      2.832594   240A      2.846262  
     241A      2.896423   242A      2.971667   243A      2.979753  
     244A      2.986427   245A      3.000075   246A      3.003850  
     247A      3.103079   248A      3.116118   249A      3.133608  
     250A      3.137225   251A      3.268002   252A      3.281329  
     253A      3.288613   254A      3.355037   255A      3.368671  
     256A      3.398419   257A      3.402824   258A      3.517565  
     259A      3.630775   260A      3.666126   261A      3.709430  
     262A      3.842484   263A      3.858505   264A      4.025660  
     265A      4.293606   266A      4.317273   267A      4.940250  
     268A      4.994740   269A      5.123207   270A      5.128790  
     271A      5.754875   272A      6.070106   273A     18.520281  
     274A     25.396416  

    Final Occupation by Irrep:
              A 
    DOCC [    21 ]

  @DF-RHF Final Energy:  -246.72394536633556

   => Energetics <=

    Nuclear Repulsion Energy =            206.2349268025168953
    One-Electron Energy =                -741.0317349881298696
    Two-Electron Energy =                 288.0728628192773613
    Total Energy =                       -246.7239453663355562

Computation Completed


Properties will be evaluated at   0.000000,   0.000000,   0.000000 [a0]

Properties computed using the SCF density matrix

  Nuclear Dipole Moment: [e a0]
     X:   129.6778      Y:   -25.7019      Z:     1.1975

  Electronic Dipole Moment: [e a0]
     X:  -129.0351      Y:    26.3532      Z:    -1.0977

  Dipole Moment: [e a0]
     X:     0.6427      Y:     0.6513      Z:     0.0999     Total:     0.9205

  Dipole Moment: [D]
     X:     1.6336      Y:     1.6554      Z:     0.2538     Total:     2.3396


*** tstop() called on genome.bme.utexas.edu at Thu Apr 23 17:24:10 2020
Module time:
	user time   =      73.81 seconds =       1.23 minutes
	system time =       1.82 seconds =       0.03 minutes
	total time  =         11 seconds =       0.18 minutes
Total time:
	user time   =     241.00 seconds =       4.02 minutes
	system time =       6.14 seconds =       0.10 minutes
	total time  =         36 seconds =       0.60 minutes
  Constructing Basis Sets for SAPT...

   => Loading Basis Set <=

    Name: (AUG-CC-PVDZ AUX)
    Role: RIFIT
    Keyword: DF_BASIS_SAPT
    atoms 1, 8                         entry N          line   158 file /home/liuchw/anaconda3/envs/psi4env/share/psi4/basis/aug-cc-pvdz-ri.gbs 
    atoms 2-3, 5-7, 10, 12, 14, 16, 18 entry H          line    30 file /home/liuchw/anaconda3/envs/psi4env/share/psi4/basis/aug-cc-pvdz-ri.gbs 
    atoms 4, 9, 11, 13, 15, 17         entry C          line   112 file /home/liuchw/anaconda3/envs/psi4env/share/psi4/basis/aug-cc-pvdz-ri.gbs 


  //>>>>>>>>>>>>>>>>>>>>>>>>>>>>>>>>>>>//
  //               SAPT2+              //
  //<<<<<<<<<<<<<<<<<<<<<<<<<<<<<<<<<<<//


*** tstart() called on genome.bme.utexas.edu
*** at Thu Apr 23 17:24:11 2020

        SAPT2+  
    Ed Hohenstein
     6 June 2009

      Orbital Information
  --------------------------
    NSO        =       274
    NMO        =       274
    NRI        =       806
    NOCC A     =         9
    NOCC B     =        21
    FOCC A     =         2
    FOCC B     =         6
    NVIR A     =       265
    NVIR B     =       253

    Estimated memory usage: 1196.1 MB

    Natural Orbital Cutoff:   1.000E-06
    Disp(T3) Truncation:            Yes
    CCD (vv|vv) Truncation:         Yes
    MBPT T2 Truncation:             Yes

    Monomer A: 189 virtual orbitals dropped
    Monomer B: 101 virtual orbitals dropped

    Elst10,r            =    -0.000590353605 [Eh]
    Exch10 (S^2)        =     0.000010151328 [Eh]
    Exch10              =     0.000010151445 [Eh]
    Ind20,r (A<-B)      =    -0.000019471758 [Eh]
    Ind20,r (B<-A)      =    -0.000009872878 [Eh]
    Ind20,r             =    -0.000029344637 [Eh]
    Exch-Ind20,r (A<-B) =     0.000000251867 [Eh]
    Exch-Ind20,r (B<-A) =     0.000001446208 [Eh]
    Exch-Ind20,r        =     0.000001698075 [Eh]
    Disp20              =    -0.000466709629 [Eh]
    Disp20 (NO)         =    -0.000454025074 [Eh]
    Exch-Disp20         =     0.000002075709 [Eh]
    Elst12,r            =     0.000033220648 [Eh]
    Exch11              =    -0.000000141628 [Eh]
    Exch12              =     0.000002602442 [Eh]
    Ind22               =     0.000000908867 [Eh]
    Disp21              =     0.000107629829 [Eh]
    Disp22 (SDQ)        =     0.000003479761 [Eh]

    (i =   1 of  15)          3 seconds
    (i =   2 of  15)          6 seconds
    (i =   3 of  15)          9 seconds
    (i =   4 of  15)         12 seconds
    (i =   5 of  15)         14 seconds
    (i =   6 of  15)         17 seconds
    (i =   7 of  15)         20 seconds
    (i =   8 of  15)         23 seconds
    (i =   9 of  15)         26 seconds
    (i =  10 of  15)         29 seconds
    (i =  11 of  15)         32 seconds
    (i =  12 of  15)         35 seconds
    (i =  13 of  15)         38 seconds
    (i =  14 of  15)         41 seconds
    (i =  15 of  15)         44 seconds

    Disp220 (T)         =    -0.000034237651 [Eh]

    (i =   1 of   7)         15 seconds
    (i =   2 of   7)         29 seconds
    (i =   3 of   7)         44 seconds
    (i =   4 of   7)         58 seconds
    (i =   5 of   7)         72 seconds
    (i =   6 of   7)         87 seconds
    (i =   7 of   7)        101 seconds

    Disp202 (T)         =    -0.000049671416 [Eh]

    Disp22 (T)          =    -0.000083909067 [Eh]

    Est. Disp220 (T)    =    -0.000035194182 [Eh]
    Est. Disp202 (T)    =    -0.000051059136 [Eh]

    Est. Disp22 (T)     =    -0.000086253319 [Eh]

    SAPT Results 
  --------------------------------------------------------------------------------------------------------
    Electrostatics                 -0.55713296 [mEh]      -0.34960621 [kcal/mol]      -1.46275238 [kJ/mol]
      Elst10,r                     -0.59035360 [mEh]      -0.37045248 [kcal/mol]      -1.54997318 [kJ/mol]
      Elst12,r                      0.03322065 [mEh]       0.02084627 [kcal/mol]       0.08722080 [kJ/mol]

    Exchange                        0.01261226 [mEh]       0.00791431 [kcal/mol]       0.03311348 [kJ/mol]
      Exch10                        0.01015145 [mEh]       0.00637013 [kcal/mol]       0.02665262 [kJ/mol]
      Exch10(S^2)                   0.01015133 [mEh]       0.00637005 [kcal/mol]       0.02665231 [kJ/mol]
      Exch11(S^2)                  -0.00014163 [mEh]      -0.00008887 [kcal/mol]      -0.00037184 [kJ/mol]
      Exch12(S^2)                   0.00260244 [mEh]       0.00163306 [kcal/mol]       0.00683271 [kJ/mol]

    Induction                      -0.02908232 [mEh]      -0.01824943 [kcal/mol]      -0.07635563 [kJ/mol]
      Ind20,r                      -0.02934464 [mEh]      -0.01841404 [kcal/mol]      -0.07704433 [kJ/mol]
      Ind22                         0.00090887 [mEh]       0.00057032 [kcal/mol]       0.00238623 [kJ/mol]
      Exch-Ind20,r                  0.00169808 [mEh]       0.00106556 [kcal/mol]       0.00445830 [kJ/mol]
      Exch-Ind22                   -0.00005259 [mEh]      -0.00003300 [kcal/mol]      -0.00013808 [kJ/mol]
      delta HF,r (2)               -0.00229204 [mEh]      -0.00143827 [kcal/mol]      -0.00601774 [kJ/mol]

    Dispersion                     -0.43977765 [mEh]      -0.27596464 [kcal/mol]      -1.15463606 [kJ/mol]
      Disp20                       -0.46670963 [mEh]      -0.29286471 [kcal/mol]      -1.22534596 [kJ/mol]
      Disp21                        0.10762983 [mEh]       0.06753874 [kcal/mol]       0.28258208 [kJ/mol]
      Disp22 (SDQ)                  0.00347976 [mEh]       0.00218358 [kcal/mol]       0.00913611 [kJ/mol]
      Disp22 (T)                   -0.08390907 [mEh]      -0.05265373 [kcal/mol]      -0.22030322 [kJ/mol]
      Est. Disp22 (T)              -0.08625332 [mEh]      -0.05412477 [kcal/mol]      -0.22645806 [kJ/mol]
      Exch-Disp20                   0.00207571 [mEh]       0.00130253 [kcal/mol]       0.00544977 [kJ/mol]

  Total HF                         -0.61014076 [mEh]      -0.38286910 [kcal/mol]      -1.60192433 [kJ/mol]
  Total SAPT0                      -1.07477468 [mEh]      -0.67443129 [kcal/mol]      -2.82182052 [kJ/mol]
  Total SAPT2                      -1.03823694 [mEh]      -0.65150352 [kcal/mol]      -2.72589071 [kJ/mol]
  Total SAPT2+                     -1.01338067 [mEh]      -0.63590597 [kcal/mol]      -2.66063058 [kJ/mol]

  Special recipe for scaled SAPT0 (see Manual):
    Electrostatics sSAPT0          -0.59035360 [mEh]      -0.37045248 [kcal/mol]      -1.54997318 [kJ/mol]
    Exchange sSAPT0                 0.01015145 [mEh]       0.00637013 [kcal/mol]       0.02665262 [kJ/mol]
    Induction sSAPT0               -0.02993854 [mEh]      -0.01878672 [kcal/mol]      -0.07860362 [kJ/mol]
    Dispersion sSAPT0              -0.46463385 [mEh]      -0.29156214 [kcal/mol]      -1.21989600 [kJ/mol]
  Total sSAPT0                     -1.07477455 [mEh]      -0.67443121 [kcal/mol]      -2.82182018 [kJ/mol]
  --------------------------------------------------------------------------------------------------------

*** tstop() called on genome.bme.utexas.edu at Thu Apr 23 17:28:28 2020
Module time:
	user time   =    1905.74 seconds =      31.76 minutes
	system time =      55.59 seconds =       0.93 minutes
	total time  =        257 seconds =       4.28 minutes
Total time:
	user time   =    2148.32 seconds =      35.81 minutes
	system time =      61.77 seconds =       1.03 minutes
	total time  =        294 seconds =       4.90 minutes

    Psi4 stopped on: Thursday, 23 April 2020 05:28PM
    Psi4 wall time for execution: 0:04:53.61

*** Psi4 exiting successfully. Buy a developer a beer!
