    -----------------------------------------------------------------------
          PSI4: An Open-Source Ab Initio Electronic Structure Package
                              PSI 4.0.0-beta4 Driver

    J. M. Turney, A. C. Simmonett, R. M. Parrish, E. G. Hohenstein,
    F. A. Evangelista, J. T. Fermann, B. J. Mintz, L. A. Burns, J. J. Wilke,
    M. L. Abrams, N. J. Russ, M. L. Leininger, C. L. Janssen, E. T. Seidl,
    W. D. Allen, H. F. Schaefer, R. A. King, E. F. Valeev, C. D. Sherrill,
    and T. D. Crawford, WIREs Comput. Mol. Sci., (2011) (doi: 10.1002/wcms.93)

                         Additional Contributions by
    A. E. DePrince, M. Saitow, U. Bozkaya, A. Yu. Sokolov
    -----------------------------------------------------------------------

    Process ID:   2097
    PSI4DATADIR: /home/xzhu216/psi4/psi4-install/share/psi

    Using LocalCommunicator (Number of processes = 1)

    Memory level set to 256.000 MB

  ==> Input File <==

--------------------------------------------------------------------------
#psi4
#
memory 7 gb

molecule MeNH2_Pyridine {
0 1
    N    -0.541059198     0.029576202    -0.208995077
    H     0.055553351    -0.786118099    -0.130293346
    H    -1.469669404    -0.274708452     0.053143382
    C    -0.078799266     1.042390365     0.738458862
    H    -0.720152936     1.919413767     0.671980262
    H    -0.050758189     0.723822930     1.785514529
    H     0.926430724     1.356603792     0.461999188
--
0 1
    N     1.667714739    -1.118015221    -0.017156070
    C     2.006151055    -0.305671156    -1.028868546
    H     1.463483836    -0.450209137    -1.954249905
    C     2.977480317     0.686462639    -0.928501542
    H     3.202332757     1.310802926    -1.781352235
    C     3.638320384     0.856004077     0.283762896
    H     4.396174329     1.618241413     0.400147025
    C     3.298187475     0.021041552     1.342885849
    H     3.780775881     0.111503791     2.305586503
    C     2.314405910    -0.943747456     1.143702468
    H     2.028321580    -1.607495064     1.950313125
units angstrom
no_reorient  #important for SAPT in psi4, default
symmetry c1  #important for SAPT in psi4, default
}

set {
basis aug-cc-pVDZ
scf_type DF
freeze_core True
}
energy('sapt2+')
--------------------------------------------------------------------------

  Memory set to   7.000 GiB by Python script.

  //>>>>>>>>>>>>>>>>>>>>>>>>>>>>>>>>>>>//
  //              Dimer HF             //
  //<<<<<<<<<<<<<<<<<<<<<<<<<<<<<<<<<<<//


  No DF_BASIS_SCF auxiliary basis selected, defaulting to aug-cc-pvdz-jkfit


*** tstart() called on node113.bme.utexas.edu
*** at Sat Feb 15 09:30:48 2014


         ---------------------------------------------------------
                                   SCF
            by Justin Turney, Rob Parrish, and Andy Simmonett
                              RHF Reference
                        4 Threads,   7000 MiB Core
         ---------------------------------------------------------

  ==> Geometry <==

    Molecular point group: c1
    Full point group: C1

    Geometry (in Angstrom), charge = 0, multiplicity = 1:

       Center              X                  Y                   Z       
    ------------   -----------------  -----------------  -----------------
           N         -2.352075150827    -0.015741887807    -0.383794606789
           H         -1.755462601827    -0.831436188807    -0.305092875789
           H         -3.280685356827    -0.320026541807    -0.121656147789
           C         -1.889815218827     0.997072275193     0.563659332211
           H         -2.531168888827     1.874095677193     0.497180732211
           H         -1.861774141827     0.678504840193     1.610714999211
           H         -0.884585228827     1.311285702193     0.287199658211
           N         -0.143301213827    -1.163333310807    -0.191955599789
           C          0.195135102173    -0.350989245807    -1.203668075789
           H         -0.347532116827    -0.495527226807    -2.129049434789
           C          1.166464364173     0.641144549193    -1.103301071789
           H          1.391316804173     1.265484836193    -1.956151764789
           C          1.827304431173     0.810685987193     0.108963366211
           H          2.585158376173     1.572923323193     0.225347495211
           C          1.487171522173    -0.024276537807     1.168086319211
           H          1.969759928173     0.066185701193     2.130786973211
           C          0.503389957173    -0.989065545807     0.968902938211
           H          0.217305627173    -1.652813153807     1.775513595211

  Running in c1 symmetry.

  Nuclear repulsion =  368.123539894033684

  Charge       = 0
  Multiplicity = 1
  Electrons    = 60
  Nalpha       = 30
  Nbeta        = 30

  ==> Algorithm <==

  SCF Algorithm Type is DF.
  DIIS enabled.
  MOM disabled.
  Fractional occupation disabled.
  Guess Type is CORE.
  Energy threshold   = 1.00e-08
  Density threshold  = 1.00e-08
  Integral threshold = 0.00e+00

  ==> Primary Basis <==

  Basis Set: AUG-CC-PVDZ
    Number of shells: 122
    Number of basis function: 274
    Number of Cartesian functions: 290
    Spherical Harmonics?: true
    Max angular momentum: 2

  ==> Pre-Iterations <==

   -------------------------------------------------------
    Irrep   Nso     Nmo     Nalpha   Nbeta   Ndocc  Nsocc
   -------------------------------------------------------
     A        274     274       0       0       0       0
   -------------------------------------------------------
    Total     274     274      30      30      30       0
   -------------------------------------------------------

 OEINTS: Wrapper to libmints.
   by Justin Turney

   Calculation information:
      Number of atoms:                  18
      Number of AO shells:             122
      Number of SO shells:             122
      Number of primitives:            270
      Number of atomic orbitals:       290
      Number of basis functions:       274

      Number of irreps:                  1
      Number of functions per irrep: [ 274 ]

      Overlap, kinetic, potential, dipole, and quadrupole integrals
        stored in file 35.

  ==> Integral Setup <==

  ==> DFJK: Density-Fitted J/K Matrices <==

    J tasked:                  Yes
    K tasked:                  Yes
    wK tasked:                  No
    OpenMP threads:              4
    Integrals threads:           4
    Memory (MB):              5006
    Algorithm:                Core
    Integral Cache:           SAVE
    Schwarz Cutoff:          0E+00
    Fitting Condition:       1E-12

   => Auxiliary Basis Set <=

  Basis Set: aug-cc-pvdz-jkfit
    Number of shells: 344
    Number of basis function: 1008
    Number of Cartesian functions: 1158
    Spherical Harmonics?: true
    Max angular momentum: 3

  Minimum eigenvalue in the overlap matrix is 6.9040110426E-06.
  Using Symmetric Orthogonalization.
  SCF Guess: Core (One-Electron) Hamiltonian.

  Guess energy:  -274.82080938183935

  ==> Iterations <==

                        Total Energy        Delta E     RMS |[F,P]|

   @RHF iter   1:  -256.93698976968290   -2.56937e+02   2.91508e-02 
   @RHF iter   2:  -152.67214574388993    1.04265e+02   3.97842e-02 DIIS
   @RHF iter   3:  -247.21785773099805   -9.45457e+01   2.81818e-02 DIIS
   @RHF iter   4:  -280.92397208150282   -3.37061e+01   2.85343e-02 DIIS
   @RHF iter   5:  -341.06588601993326   -6.01419e+01   3.97994e-03 DIIS
   @RHF iter   6:  -341.80267019115638   -7.36784e-01   1.58247e-03 DIIS
   @RHF iter   7:  -341.90644717755617   -1.03777e-01   5.59487e-04 DIIS
   @RHF iter   8:  -341.92090745071971   -1.44603e-02   1.70823e-04 DIIS
   @RHF iter   9:  -341.92293307342652   -2.02562e-03   8.00361e-05 DIIS
   @RHF iter  10:  -341.92329351098192   -3.60438e-04   2.53712e-05 DIIS
   @RHF iter  11:  -341.92337566212746   -8.21511e-05   1.15741e-05 DIIS
   @RHF iter  12:  -341.92339672620153   -2.10641e-05   5.85663e-06 DIIS
   @RHF iter  13:  -341.92340165667497   -4.93047e-06   2.65925e-06 DIIS
   @RHF iter  14:  -341.92340320612789   -1.54945e-06   9.81555e-07 DIIS
   @RHF iter  15:  -341.92340337303881   -1.66911e-07   3.29467e-07 DIIS
   @RHF iter  16:  -341.92340338616793   -1.31291e-08   9.91272e-08 DIIS
   @RHF iter  17:  -341.92340338723170   -1.06377e-09   3.72534e-08 DIIS
   @RHF iter  18:  -341.92340338740723   -1.75532e-10   1.52363e-08 DIIS
   @RHF iter  19:  -341.92340338744361   -3.63798e-11   6.47246e-09 DIIS

  ==> Post-Iterations <==

	Orbital Energies (a.u.)
	-----------------------

	Doubly Occupied:                                                      

	   1A    -15.578301     2A    -15.511623     3A    -11.288647  
	   4A    -11.284768     5A    -11.270413     6A    -11.251782  
	   7A    -11.250397     8A    -11.227251     9A     -1.273036  
	  10A     -1.149892    11A     -1.097651    12A     -1.041275  
	  13A     -0.881997    14A     -0.864912    15A     -0.862653  
	  16A     -0.730506    17A     -0.671850    18A     -0.660713  
	  19A     -0.656854    20A     -0.602975    21A     -0.591097  
	  22A     -0.578295    23A     -0.542501    24A     -0.523867  
	  25A     -0.521339    26A     -0.500231    27A     -0.426907  
	  28A     -0.385403    29A     -0.363388    30A     -0.349908  

	Virtual:                                                              

	  31A      0.030846    32A      0.039880    33A      0.044047  
	  34A      0.052544    35A      0.058222    36A      0.060326  
	  37A      0.069571    38A      0.074586    39A      0.084842  
	  40A      0.086214    41A      0.103195    42A      0.106144  
	  43A      0.113109    44A      0.126634    45A      0.130764  
	  46A      0.137699    47A      0.140598    48A      0.146300  
	  49A      0.151083    50A      0.155768    51A      0.161201  
	  52A      0.168164    53A      0.176198    54A      0.178594  
	  55A      0.182858    56A      0.185377    57A      0.186374  
	  58A      0.193798    59A      0.197717    60A      0.205763  
	  61A      0.218678    62A      0.225845    63A      0.226400  
	  64A      0.236397    65A      0.257881    66A      0.271733  
	  67A      0.284875    68A      0.292665    69A      0.302214  
	  70A      0.304131    71A      0.315561    72A      0.323569  
	  73A      0.329106    74A      0.342652    75A      0.349061  
	  76A      0.356545    77A      0.360658    78A      0.366454  
	  79A      0.376974    80A      0.381401    81A      0.399934  
	  82A      0.404391    83A      0.406927    84A      0.415941  
	  85A      0.425477    86A      0.431830    87A      0.437708  
	  88A      0.440797    89A      0.451493    90A      0.457291  
	  91A      0.462726    92A      0.482975    93A      0.493124  
	  94A      0.494125    95A      0.508451    96A      0.522826  
	  97A      0.525943    98A      0.532458    99A      0.540851  
	 100A      0.553250   101A      0.554840   102A      0.565143  
	 103A      0.574705   104A      0.581630   105A      0.584735  
	 106A      0.590110   107A      0.594138   108A      0.610820  
	 109A      0.619031   110A      0.622437   111A      0.631701  
	 112A      0.644834   113A      0.652942   114A      0.657736  
	 115A      0.659776   116A      0.666848   117A      0.676598  
	 118A      0.685050   119A      0.690335   120A      0.697794  
	 121A      0.700883   122A      0.707014   123A      0.722521  
	 124A      0.731705   125A      0.737395   126A      0.748034  
	 127A      0.751699   128A      0.767016   129A      0.773081  
	 130A      0.783716   131A      0.795832   132A      0.806094  
	 133A      0.812465   134A      0.824380   135A      0.839277  
	 136A      0.847213   137A      0.852702   138A      0.857158  
	 139A      0.864544   140A      0.871379   141A      0.880617  
	 142A      0.894085   143A      0.906786   144A      0.930259  
	 145A      0.942980   146A      0.952595   147A      0.959360  
	 148A      0.974785   149A      0.985241   150A      0.990367  
	 151A      1.001624   152A      1.018531   153A      1.027803  
	 154A      1.048648   155A      1.059372   156A      1.087745  
	 157A      1.090126   158A      1.102525   159A      1.146018  
	 160A      1.153944   161A      1.164620   162A      1.173079  
	 163A      1.196250   164A      1.206147   165A      1.231851  
	 166A      1.249836   167A      1.274430   168A      1.293102  
	 169A      1.321039   170A      1.341853   171A      1.347093  
	 172A      1.383508   173A      1.400466   174A      1.406357  
	 175A      1.421745   176A      1.482739   177A      1.503968  
	 178A      1.541344   179A      1.553970   180A      1.566115  
	 181A      1.577209   182A      1.592285   183A      1.603084  
	 184A      1.607042   185A      1.613838   186A      1.642235  
	 187A      1.647305   188A      1.662140   189A      1.696365  
	 190A      1.699058   191A      1.708420   192A      1.717784  
	 193A      1.730009   194A      1.749443   195A      1.776956  
	 196A      1.819749   197A      1.825783   198A      1.846138  
	 199A      1.849394   200A      1.865236   201A      1.879524  
	 202A      1.931215   203A      1.939424   204A      1.944563  
	 205A      1.962990   206A      1.982012   207A      1.990403  
	 208A      2.006393   209A      2.023723   210A      2.049238  
	 211A      2.058517   212A      2.089151   213A      2.114334  
	 214A      2.136511   215A      2.139847   216A      2.152579  
	 217A      2.171101   218A      2.174872   219A      2.183571  
	 220A      2.210995   221A      2.238237   222A      2.243503  
	 223A      2.266043   224A      2.285929   225A      2.302975  
	 226A      2.319404   227A      2.337738   228A      2.351454  
	 229A      2.364107   230A      2.386581   231A      2.405356  
	 232A      2.419628   233A      2.436366   234A      2.460590  
	 235A      2.486978   236A      2.515356   237A      2.518473  
	 238A      2.570637   239A      2.577986   240A      2.611763  
	 241A      2.629718   242A      2.638228   243A      2.657502  
	 244A      2.685667   245A      2.730198   246A      2.749062  
	 247A      2.783342   248A      2.824210   249A      2.851713  
	 250A      2.862055   251A      2.871221   252A      2.919077  
	 253A      2.934642   254A      2.966697   255A      2.985818  
	 256A      3.003470   257A      3.028513   258A      3.059298  
	 259A      3.068891   260A      3.113011   261A      3.131923  
	 262A      3.147526   263A      3.183450   264A      3.211411  
	 265A      3.260948   266A      3.305391   267A      3.352556  
	 268A      3.430757   269A      3.511075   270A      3.555590  
	 271A      3.713423   272A      3.757026   273A      3.890419  
	 274A      4.404811  

	Final Occupation by Irrep:
	          A 
	DOCC [    30 ]

  Energy converged.

  @RHF Final Energy:  -341.92340338744361

   => Energetics <=

    Nuclear Repulsion Energy =            368.1235398940336836
    One-Electron Energy =               -1192.2130255026531813
    Two-Electron Energy =                 482.1660822211757136
    DFT Exchange-Correlation Energy =       0.0000000000000000
    Empirical Dispersion Energy =           0.0000000000000000
    Total Energy =                       -341.9234033874437841



Properties will be evaluated at   0.000000,   0.000000,   0.000000 Bohr
  ==> Properties <==


Properties computed using the SCF density density matrix
  Nuclear Dipole Moment: (a.u.)
     X:    -4.2092      Y:     3.2552      Z:     1.8905

  Electronic Dipole Moment: (a.u.)
     X:     5.0102      Y:    -2.9248      Z:    -1.3677

  Dipole Moment: (a.u.)
     X:     0.8010      Y:     0.3304      Z:     0.5228     Total:     1.0120

  Dipole Moment: (Debye)
     X:     2.0360      Y:     0.8398      Z:     1.3287     Total:     2.5722


  Saving occupied orbitals to File 180.

  Saving SAPT 2-DIMER file.

*** tstop() called on node113.bme.utexas.edu at Sat Feb 15 09:31:26 2014
Module time:
	user time   =     138.83 seconds =       2.31 minutes
	system time =       1.37 seconds =       0.02 minutes
	total time  =         38 seconds =       0.63 minutes
Total time:
	user time   =     138.83 seconds =       2.31 minutes
	system time =       1.37 seconds =       0.02 minutes
	total time  =         38 seconds =       0.63 minutes

  //>>>>>>>>>>>>>>>>>>>>>>>>>>>>>>>>>>>//
  //            Monomer A HF           //
  //<<<<<<<<<<<<<<<<<<<<<<<<<<<<<<<<<<<//


  No DF_BASIS_SCF auxiliary basis selected, defaulting to aug-cc-pvdz-jkfit


*** tstart() called on node113.bme.utexas.edu
*** at Sat Feb 15 09:31:26 2014


         ---------------------------------------------------------
                                   SCF
            by Justin Turney, Rob Parrish, and Andy Simmonett
                              RHF Reference
                        4 Threads,   7000 MiB Core
         ---------------------------------------------------------

  ==> Geometry <==

    Molecular point group: c1
    Full point group: C1

    Geometry (in Angstrom), charge = 0, multiplicity = 1:

       Center              X                  Y                   Z       
    ------------   -----------------  -----------------  -----------------
           N         -2.352075150827    -0.015741887807    -0.383794606789
           H         -1.755462601827    -0.831436188807    -0.305092875789
           H         -3.280685356827    -0.320026541807    -0.121656147789
           C         -1.889815218827     0.997072275193     0.563659332211
           H         -2.531168888827     1.874095677193     0.497180732211
           H         -1.861774141827     0.678504840193     1.610714999211
           H         -0.884585228827     1.311285702193     0.287199658211
           N(Gh)     -0.143301213827    -1.163333310807    -0.191955599789
           C(Gh)      0.195135102173    -0.350989245807    -1.203668075789
           H(Gh)     -0.347532116827    -0.495527226807    -2.129049434789
           C(Gh)      1.166464364173     0.641144549193    -1.103301071789
           H(Gh)      1.391316804173     1.265484836193    -1.956151764789
           C(Gh)      1.827304431173     0.810685987193     0.108963366211
           H(Gh)      2.585158376173     1.572923323193     0.225347495211
           C(Gh)      1.487171522173    -0.024276537807     1.168086319211
           H(Gh)      1.969759928173     0.066185701193     2.130786973211
           C(Gh)      0.503389957173    -0.989065545807     0.968902938211
           H(Gh)      0.217305627173    -1.652813153807     1.775513595211

  Running in c1 symmetry.

  Nuclear repulsion =   42.093764688918348

  Charge       = 0
  Multiplicity = 1
  Electrons    = 18
  Nalpha       = 9
  Nbeta        = 9

  ==> Algorithm <==

  SCF Algorithm Type is DF.
  DIIS enabled.
  MOM disabled.
  Fractional occupation disabled.
  Guess Type is CORE.
  Energy threshold   = 1.00e-08
  Density threshold  = 1.00e-08
  Integral threshold = 0.00e+00

  ==> Primary Basis <==

  Basis Set: AUG-CC-PVDZ
    Number of shells: 122
    Number of basis function: 274
    Number of Cartesian functions: 290
    Spherical Harmonics?: true
    Max angular momentum: 2

  ==> Pre-Iterations <==

   -------------------------------------------------------
    Irrep   Nso     Nmo     Nalpha   Nbeta   Ndocc  Nsocc
   -------------------------------------------------------
     A        274     274       0       0       0       0
   -------------------------------------------------------
    Total     274     274       9       9       9       0
   -------------------------------------------------------

 OEINTS: Wrapper to libmints.
   by Justin Turney

   Calculation information:
      Number of atoms:                  18
      Number of AO shells:             122
      Number of SO shells:             122
      Number of primitives:            270
      Number of atomic orbitals:       290
      Number of basis functions:       274

      Number of irreps:                  1
      Number of functions per irrep: [ 274 ]

      Overlap, kinetic, potential, dipole, and quadrupole integrals
        stored in file 35.

  ==> Integral Setup <==

  ==> DFJK: Density-Fitted J/K Matrices <==

    J tasked:                  Yes
    K tasked:                  Yes
    wK tasked:                  No
    OpenMP threads:              4
    Integrals threads:           4
    Memory (MB):              5006
    Algorithm:                Core
    Integral Cache:           LOAD
    Schwarz Cutoff:          0E+00
    Fitting Condition:       1E-12

   => Auxiliary Basis Set <=

  Basis Set: aug-cc-pvdz-jkfit
    Number of shells: 344
    Number of basis function: 1008
    Number of Cartesian functions: 1158
    Spherical Harmonics?: true
    Max angular momentum: 3

  Minimum eigenvalue in the overlap matrix is 6.9040110424E-06.
  Using Symmetric Orthogonalization.
  SCF Guess: Core (One-Electron) Hamiltonian.

  Guess energy:   -74.74743036578468

  ==> Iterations <==

                        Total Energy        Delta E     RMS |[F,P]|

   @RHF iter   1:   -78.53849353301200   -7.85385e+01   1.60112e-02 
   @RHF iter   2:   -72.41080088354650    6.12769e+00   1.01459e-02 DIIS
   @RHF iter   3:   -91.81358242423389   -1.94028e+01   9.54549e-03 DIIS
   @RHF iter   4:   -93.77582767964032   -1.96225e+00   6.12780e-03 DIIS
   @RHF iter   5:   -94.90013785604367   -1.12431e+00   2.89185e-03 DIIS
   @RHF iter   6:   -95.22035542924939   -3.20218e-01   4.68143e-04 DIIS
   @RHF iter   7:   -95.23051076944310   -1.01553e-02   1.16049e-04 DIIS
   @RHF iter   8:   -95.23132768821586   -8.16919e-04   1.51150e-05 DIIS
   @RHF iter   9:   -95.23135136448815   -2.36763e-05   3.72273e-06 DIIS
   @RHF iter  10:   -95.23135307418625   -1.70970e-06   1.14480e-06 DIIS
   @RHF iter  11:   -95.23135321521821   -1.41032e-07   2.05720e-07 DIIS
   @RHF iter  12:   -95.23135322005393   -4.83573e-09   4.26819e-08 DIIS
   @RHF iter  13:   -95.23135322027210   -2.18165e-10   1.10779e-08 DIIS
   @RHF iter  14:   -95.23135322029279   -2.06910e-11   2.37024e-09 DIIS

  ==> Post-Iterations <==

	Orbital Energies (a.u.)
	-----------------------

	Doubly Occupied:                                                      

	   1A    -15.548965     2A    -11.247333     3A     -1.173775  
	   4A     -0.896528     5A     -0.663077     6A     -0.603803  
	   7A     -0.554662     8A     -0.515873     9A     -0.392867  

	Virtual:                                                              

	  10A      0.023292    11A      0.036710    12A      0.040469  
	  13A      0.045737    14A      0.058458    15A      0.059399  
	  16A      0.066758    17A      0.071158    18A      0.080634  
	  19A      0.087776    20A      0.096332    21A      0.109885  
	  22A      0.114261    23A      0.117646    24A      0.127463  
	  25A      0.133560    26A      0.136145    27A      0.146672  
	  28A      0.148421    29A      0.157648    30A      0.163541  
	  31A      0.167328    32A      0.171560    33A      0.180569  
	  34A      0.188059    35A      0.188529    36A      0.190596  
	  37A      0.197367    38A      0.201003    39A      0.212680  
	  40A      0.216351    41A      0.222569    42A      0.227681  
	  43A      0.236044    44A      0.238263    45A      0.251137  
	  46A      0.263522    47A      0.283356    48A      0.289338  
	  49A      0.298113    50A      0.313245    51A      0.323028  
	  52A      0.342049    53A      0.344581    54A      0.353684  
	  55A      0.360648    56A      0.371371    57A      0.374465  
	  58A      0.381841    59A      0.396997    60A      0.410753  
	  61A      0.415063    62A      0.429121    63A      0.433018  
	  64A      0.444226    65A      0.446900    66A      0.458087  
	  67A      0.461880    68A      0.468559    69A      0.473778  
	  70A      0.478586    71A      0.488832    72A      0.498146  
	  73A      0.505590    74A      0.511687    75A      0.522312  
	  76A      0.531639    77A      0.536597    78A      0.539887  
	  79A      0.548168    80A      0.557938    81A      0.560555  
	  82A      0.566041    83A      0.582763    84A      0.596712  
	  85A      0.600030    86A      0.605632    87A      0.610458  
	  88A      0.625238    89A      0.628569    90A      0.638884  
	  91A      0.654791    92A      0.670822    93A      0.675606  
	  94A      0.685803    95A      0.690339    96A      0.698089  
	  97A      0.708251    98A      0.717130    99A      0.737991  
	 100A      0.751977   101A      0.757389   102A      0.770967  
	 103A      0.779406   104A      0.790757   105A      0.796011  
	 106A      0.799211   107A      0.812690   108A      0.817683  
	 109A      0.828242   110A      0.842736   111A      0.846902  
	 112A      0.855265   113A      0.858938   114A      0.870842  
	 115A      0.882681   116A      0.889328   117A      0.894177  
	 118A      0.903631   119A      0.914393   120A      0.925704  
	 121A      0.932875   122A      0.937166   123A      0.945466  
	 124A      0.967712   125A      0.978084   126A      0.996678  
	 127A      1.005545   128A      1.012117   129A      1.031852  
	 130A      1.040949   131A      1.052800   132A      1.078856  
	 133A      1.088384   134A      1.097604   135A      1.121051  
	 136A      1.132721   137A      1.139824   138A      1.147697  
	 139A      1.167521   140A      1.179903   141A      1.182736  
	 142A      1.192765   143A      1.207105   144A      1.234524  
	 145A      1.257685   146A      1.301271   147A      1.320787  
	 148A      1.345208   149A      1.354128   150A      1.374309  
	 151A      1.387584   152A      1.424440   153A      1.455068  
	 154A      1.462374   155A      1.464078   156A      1.501873  
	 157A      1.518343   158A      1.523535   159A      1.541391  
	 160A      1.558401   161A      1.616609   162A      1.627704  
	 163A      1.666275   164A      1.705655   165A      1.768678  
	 166A      1.796369   167A      1.852663   168A      1.966687  
	 169A      1.983525   170A      1.996330   171A      2.085178  
	 172A      2.117835   173A      2.126238   174A      2.132643  
	 175A      2.147862   176A      2.159698   177A      2.189010  
	 178A      2.202633   179A      2.212082   180A      2.233044  
	 181A      2.248419   182A      2.251315   183A      2.265119  
	 184A      2.282842   185A      2.290232   186A      2.308861  
	 187A      2.324750   188A      2.345669   189A      2.358200  
	 190A      2.373123   191A      2.385208   192A      2.414452  
	 193A      2.427023   194A      2.450973   195A      2.461396  
	 196A      2.469611   197A      2.493093   198A      2.501745  
	 199A      2.514283   200A      2.517199   201A      2.549544  
	 202A      2.556787   203A      2.580969   204A      2.583904  
	 205A      2.612203   206A      2.615905   207A      2.635915  
	 208A      2.649802   209A      2.671925   210A      2.677295  
	 211A      2.700933   212A      2.731915   213A      2.743208  
	 214A      2.761265   215A      2.790301   216A      2.795294  
	 217A      2.836420   218A      2.869310   219A      2.884130  
	 220A      2.888707   221A      2.901371   222A      2.927865  
	 223A      2.976531   224A      2.991015   225A      3.033009  
	 226A      3.058758   227A      3.086132   228A      3.099993  
	 229A      3.114802   230A      3.144500   231A      3.187016  
	 232A      3.223982   233A      3.287617   234A      3.310565  
	 235A      3.330857   236A      3.429600   237A      3.439146  
	 238A      3.485455   239A      3.499820   240A      3.509717  
	 241A      3.579554   242A      3.589013   243A      3.600836  
	 244A      3.631645   245A      3.720712   246A      3.752624  
	 247A      3.838927   248A      3.902351   249A      3.922271  
	 250A      3.953959   251A      4.023643   252A      4.073727  
	 253A      4.181221   254A      4.279853   255A      4.490901  
	 256A      4.575919   257A      4.647382   258A      4.691064  
	 259A      4.973801   260A      5.159144   261A      5.275699  
	 262A      5.467290   263A      5.491231   264A      5.564893  
	 265A      5.660255   266A      5.700434   267A      5.902396  
	 268A      6.172511   269A     18.086581   270A     18.377872  
	 271A     18.724725   272A     19.099566   273A     20.047371  
	 274A     25.335975  

	Final Occupation by Irrep:
	          A 
	DOCC [     9 ]

  Energy converged.

  @RHF Final Energy:   -95.23135322029279

   => Energetics <=

    Nuclear Repulsion Energy =             42.0937646889183483
    One-Electron Energy =                -211.4564700986428818
    Two-Electron Energy =                  74.1313521894316807
    DFT Exchange-Correlation Energy =       0.0000000000000000
    Empirical Dispersion Energy =           0.0000000000000000
    Total Energy =                        -95.2313532202928457



Properties will be evaluated at   0.000000,   0.000000,   0.000000 Bohr
  ==> Properties <==


Properties computed using the SCF density density matrix
  Nuclear Dipole Moment: (a.u.)
     X:   -72.0309      Y:    16.2227      Z:     5.0337

  Electronic Dipole Moment: (a.u.)
     X:    72.0210      Y:   -16.4472      Z:    -4.5069

  Dipole Moment: (a.u.)
     X:    -0.0098      Y:    -0.2246      Z:     0.5269     Total:     0.5728

  Dipole Moment: (Debye)
     X:    -0.0250      Y:    -0.5708      Z:     1.3391     Total:     1.4559


  Saving occupied orbitals to File 180.

  Saving SAPT 2-MONOMER_A file.

*** tstop() called on node113.bme.utexas.edu at Sat Feb 15 09:31:46 2014
Module time:
	user time   =      74.33 seconds =       1.24 minutes
	system time =       0.87 seconds =       0.01 minutes
	total time  =         20 seconds =       0.33 minutes
Total time:
	user time   =     213.18 seconds =       3.55 minutes
	system time =       2.24 seconds =       0.04 minutes
	total time  =         58 seconds =       0.97 minutes

  //>>>>>>>>>>>>>>>>>>>>>>>>>>>>>>>>>>>//
  //            Monomer B HF           //
  //<<<<<<<<<<<<<<<<<<<<<<<<<<<<<<<<<<<//


  No DF_BASIS_SCF auxiliary basis selected, defaulting to aug-cc-pvdz-jkfit


*** tstart() called on node113.bme.utexas.edu
*** at Sat Feb 15 09:31:46 2014


         ---------------------------------------------------------
                                   SCF
            by Justin Turney, Rob Parrish, and Andy Simmonett
                              RHF Reference
                        4 Threads,   7000 MiB Core
         ---------------------------------------------------------

  ==> Geometry <==

    Molecular point group: c1
    Full point group: C1

    Geometry (in Angstrom), charge = 0, multiplicity = 1:

       Center              X                  Y                   Z       
    ------------   -----------------  -----------------  -----------------
           N(Gh)     -2.352075150827    -0.015741887807    -0.383794606789
           H(Gh)     -1.755462601827    -0.831436188807    -0.305092875789
           H(Gh)     -3.280685356827    -0.320026541807    -0.121656147789
           C(Gh)     -1.889815218827     0.997072275193     0.563659332211
           H(Gh)     -2.531168888827     1.874095677193     0.497180732211
           H(Gh)     -1.861774141827     0.678504840193     1.610714999211
           H(Gh)     -0.884585228827     1.311285702193     0.287199658211
           N         -0.143301213827    -1.163333310807    -0.191955599789
           C          0.195135102173    -0.350989245807    -1.203668075789
           H         -0.347532116827    -0.495527226807    -2.129049434789
           C          1.166464364173     0.641144549193    -1.103301071789
           H          1.391316804173     1.265484836193    -1.956151764789
           C          1.827304431173     0.810685987193     0.108963366211
           H          2.585158376173     1.572923323193     0.225347495211
           C          1.487171522173    -0.024276537807     1.168086319211
           H          1.969759928173     0.066185701193     2.130786973211
           C          0.503389957173    -0.989065545807     0.968902938211
           H          0.217305627173    -1.652813153807     1.775513595211

  Running in c1 symmetry.

  Nuclear repulsion =  206.234916963012722

  Charge       = 0
  Multiplicity = 1
  Electrons    = 42
  Nalpha       = 21
  Nbeta        = 21

  ==> Algorithm <==

  SCF Algorithm Type is DF.
  DIIS enabled.
  MOM disabled.
  Fractional occupation disabled.
  Guess Type is CORE.
  Energy threshold   = 1.00e-08
  Density threshold  = 1.00e-08
  Integral threshold = 0.00e+00

  ==> Primary Basis <==

  Basis Set: AUG-CC-PVDZ
    Number of shells: 122
    Number of basis function: 274
    Number of Cartesian functions: 290
    Spherical Harmonics?: true
    Max angular momentum: 2

  ==> Pre-Iterations <==

   -------------------------------------------------------
    Irrep   Nso     Nmo     Nalpha   Nbeta   Ndocc  Nsocc
   -------------------------------------------------------
     A        274     274       0       0       0       0
   -------------------------------------------------------
    Total     274     274      21      21      21       0
   -------------------------------------------------------

 OEINTS: Wrapper to libmints.
   by Justin Turney

   Calculation information:
      Number of atoms:                  18
      Number of AO shells:             122
      Number of SO shells:             122
      Number of primitives:            270
      Number of atomic orbitals:       290
      Number of basis functions:       274

      Number of irreps:                  1
      Number of functions per irrep: [ 274 ]

      Overlap, kinetic, potential, dipole, and quadrupole integrals
        stored in file 35.

  ==> Integral Setup <==

  ==> DFJK: Density-Fitted J/K Matrices <==

    J tasked:                  Yes
    K tasked:                  Yes
    wK tasked:                  No
    OpenMP threads:              4
    Integrals threads:           4
    Memory (MB):              5006
    Algorithm:                Core
    Integral Cache:           LOAD
    Schwarz Cutoff:          0E+00
    Fitting Condition:       1E-12

   => Auxiliary Basis Set <=

  Basis Set: aug-cc-pvdz-jkfit
    Number of shells: 344
    Number of basis function: 1008
    Number of Cartesian functions: 1158
    Spherical Harmonics?: true
    Max angular momentum: 3

  Minimum eigenvalue in the overlap matrix is 6.9040110424E-06.
  Using Symmetric Orthogonalization.
  SCF Guess: Core (One-Electron) Hamiltonian.

  Guess energy:  -190.97252052938262

  ==> Iterations <==

                        Total Energy        Delta E     RMS |[F,P]|

   @RHF iter   1:  -205.93090832637051   -2.05931e+02   2.22685e-02 
   @RHF iter   2:  -181.33734667078483    2.45936e+01   2.07389e-02 DIIS
   @RHF iter   3:  -236.44503820274042   -5.51077e+01   1.21431e-02 DIIS
   @RHF iter   4:  -244.58536774402717   -8.14033e+00   7.37490e-03 DIIS
   @RHF iter   5:  -246.31420648727459   -1.72884e+00   2.97837e-03 DIIS
   @RHF iter   6:  -246.66607699741837   -3.51871e-01   9.92664e-04 DIIS
   @RHF iter   7:  -246.71358793850266   -4.75109e-02   4.47065e-04 DIIS
   @RHF iter   8:  -246.72448617222466   -1.08982e-02   6.05320e-05 DIIS
   @RHF iter   9:  -246.72484097947182   -3.54807e-04   2.08919e-05 DIIS
   @RHF iter  10:  -246.72488122576777   -4.02463e-05   9.47238e-06 DIIS
   @RHF iter  11:  -246.72488690132099   -5.67555e-06   4.03650e-06 DIIS
   @RHF iter  12:  -246.72488893480403   -2.03348e-06   1.28634e-06 DIIS
   @RHF iter  13:  -246.72488917639902   -2.41595e-07   6.92757e-07 DIIS
   @RHF iter  14:  -246.72488923308748   -5.66885e-08   3.15135e-07 DIIS
   @RHF iter  15:  -246.72488924917303   -1.60856e-08   5.87809e-08 DIIS
   @RHF iter  16:  -246.72488924971799   -5.44958e-10   1.54924e-08 DIIS
   @RHF iter  17:  -246.72488924974056   -2.25668e-11   3.42691e-09 DIIS

  ==> Post-Iterations <==

	Orbital Energies (a.u.)
	-----------------------

	Doubly Occupied:                                                      

	   1A    -15.575640     2A    -11.281967     3A    -11.281800  
	   4A    -11.266720     5A    -11.248842     6A    -11.248672  
	   7A     -1.259651     8A     -1.092511     9A     -1.036488  
	  10A     -0.861257    11A     -0.857862    12A     -0.722800  
	  13A     -0.661378    14A     -0.655149    15A     -0.599146  
	  16A     -0.577520    17A     -0.540907    18A     -0.520149  
	  19A     -0.418978    20A     -0.383488    21A     -0.347822  

	Virtual:                                                              

	  22A      0.029041    23A      0.039369    24A      0.040581  
	  25A      0.049088    26A      0.058052    27A      0.059122  
	  28A      0.069634    29A      0.073643    30A      0.084927  
	  31A      0.089234    32A      0.103920    33A      0.106630  
	  34A      0.109836    35A      0.121181    36A      0.127381  
	  37A      0.133801    38A      0.137039    39A      0.141867  
	  40A      0.147561    41A      0.152477    42A      0.156521  
	  43A      0.159277    44A      0.171059    45A      0.174368  
	  46A      0.180689    47A      0.184357    48A      0.185379  
	  49A      0.187644    50A      0.191558    51A      0.202336  
	  52A      0.204649    53A      0.212438    54A      0.218970  
	  55A      0.223933    56A      0.252929    57A      0.265691  
	  58A      0.280183    59A      0.294444    60A      0.299307  
	  61A      0.306618    62A      0.313507    63A      0.320044  
	  64A      0.325843    65A      0.337156    66A      0.342631  
	  67A      0.351688    68A      0.356393    69A      0.363907  
	  70A      0.379211    71A      0.379624    72A      0.389015  
	  73A      0.397978    74A      0.411582    75A      0.426188  
	  76A      0.431924    77A      0.433144    78A      0.440367  
	  79A      0.458090    80A      0.465876    81A      0.469166  
	  82A      0.475687    83A      0.481410    84A      0.493925  
	  85A      0.498635    86A      0.503075    87A      0.516408  
	  88A      0.521285    89A      0.528069    90A      0.542419  
	  91A      0.544343    92A      0.552897    93A      0.565215  
	  94A      0.566596    95A      0.570834    96A      0.588144  
	  97A      0.591103    98A      0.606968    99A      0.615373  
	 100A      0.620314   101A      0.630090   102A      0.639245  
	 103A      0.647137   104A      0.661725   105A      0.665314  
	 106A      0.678643   107A      0.680445   108A      0.686060  
	 109A      0.691236   110A      0.697783   111A      0.701327  
	 112A      0.704581   113A      0.728174   114A      0.732339  
	 115A      0.738286   116A      0.754948   117A      0.771756  
	 118A      0.782874   119A      0.789206   120A      0.791626  
	 121A      0.800760   122A      0.819822   123A      0.821751  
	 124A      0.835953   125A      0.848005   126A      0.852842  
	 127A      0.857117   128A      0.865242   129A      0.878762  
	 130A      0.881361   131A      0.900017   132A      0.901842  
	 133A      0.919247   134A      0.927094   135A      0.928107  
	 136A      0.934021   137A      0.960770   138A      0.965745  
	 139A      0.979676   140A      0.987980   141A      0.993591  
	 142A      0.999482   143A      1.016574   144A      1.032937  
	 145A      1.037257   146A      1.055882   147A      1.073891  
	 148A      1.109742   149A      1.134421   150A      1.142383  
	 151A      1.157523   152A      1.180670   153A      1.194875  
	 154A      1.208678   155A      1.229836   156A      1.235033  
	 157A      1.249927   158A      1.275584   159A      1.283605  
	 160A      1.312939   161A      1.326421   162A      1.352747  
	 163A      1.361576   164A      1.378163   165A      1.395777  
	 166A      1.413439   167A      1.424521   168A      1.446034  
	 169A      1.507430   170A      1.533761   171A      1.565774  
	 172A      1.579732   173A      1.591999   174A      1.597367  
	 175A      1.610989   176A      1.626305   177A      1.650834  
	 178A      1.664973   179A      1.682192   180A      1.709341  
	 181A      1.725286   182A      1.739168   183A      1.746812  
	 184A      1.770057   185A      1.803242   186A      1.845829  
	 187A      1.849356   188A      1.870307   189A      1.892483  
	 190A      1.901390   191A      1.922331   192A      1.938802  
	 193A      1.992515   194A      1.996568   195A      2.002991  
	 196A      2.047825   197A      2.065167   198A      2.084533  
	 199A      2.116151   200A      2.129258   201A      2.146305  
	 202A      2.150121   203A      2.164200   204A      2.181884  
	 205A      2.210157   206A      2.240923   207A      2.249716  
	 208A      2.273123   209A      2.282205   210A      2.297414  
	 211A      2.316736   212A      2.323236   213A      2.356851  
	 214A      2.364198   215A      2.387155   216A      2.414010  
	 217A      2.433109   218A      2.444374   219A      2.462612  
	 220A      2.494217   221A      2.506997   222A      2.554206  
	 223A      2.580905   224A      2.599494   225A      2.613536  
	 226A      2.626342   227A      2.640311   228A      2.659641  
	 229A      2.707302   230A      2.734618   231A      2.760880  
	 232A      2.788522   233A      2.807530   234A      2.825229  
	 235A      2.845109   236A      2.881365   237A      2.910949  
	 238A      2.936714   239A      2.981019   240A      3.002127  
	 241A      3.016222   242A      3.046081   243A      3.069632  
	 244A      3.088617   245A      3.117443   246A      3.133986  
	 247A      3.161461   248A      3.186562   249A      3.209874  
	 250A      3.247188   251A      3.307265   252A      3.387250  
	 253A      3.436092   254A      3.450326   255A      3.511477  
	 256A      3.543356   257A      3.581223   258A      3.683471  
	 259A      3.714355   260A      3.777578   261A      3.890728  
	 262A      3.923066   263A      4.039477   264A      4.159097  
	 265A      4.403884   266A      4.630952   267A      4.992036  
	 268A      5.089868   269A      5.190011   270A      5.223846  
	 271A      5.850406   272A      6.174931   273A     18.581023  
	 274A     25.436127  

	Final Occupation by Irrep:
	          A 
	DOCC [    21 ]

  Energy converged.

  @RHF Final Energy:  -246.72488924974056

   => Energetics <=

    Nuclear Repulsion Energy =            206.2349169630127221
    One-Electron Energy =                -741.0421209789433306
    Two-Electron Energy =                 288.0823147661905068
    DFT Exchange-Correlation Energy =       0.0000000000000000
    Empirical Dispersion Energy =           0.0000000000000000
    Total Energy =                       -246.7248892497401584



Properties will be evaluated at   0.000000,   0.000000,   0.000000 Bohr
  ==> Properties <==


Properties computed using the SCF density density matrix
  Nuclear Dipole Moment: (a.u.)
     X:    67.8217      Y:   -12.9675      Z:    -3.1433

  Electronic Dipole Moment: (a.u.)
     X:   -67.1807      Y:    13.6180      Z:     3.2427

  Dipole Moment: (a.u.)
     X:     0.6410      Y:     0.6505      Z:     0.0994     Total:     0.9186

  Dipole Moment: (Debye)
     X:     1.6292      Y:     1.6534      Z:     0.2526     Total:     2.3350


  Saving occupied orbitals to File 180.

  Saving SAPT 2-MONOMER_B file.

*** tstop() called on node113.bme.utexas.edu at Sat Feb 15 09:32:12 2014
Module time:
	user time   =      97.93 seconds =       1.63 minutes
	system time =       0.81 seconds =       0.01 minutes
	total time  =         26 seconds =       0.43 minutes
Total time:
	user time   =     311.13 seconds =       5.19 minutes
	system time =       3.05 seconds =       0.05 minutes
	total time  =         84 seconds =       1.40 minutes
  No DF_BASIS_SAPT auxiliary basis selected, defaulting to aug-cc-pvdz-ri

  //>>>>>>>>>>>>>>>>>>>>>>>>>>>>>>>>>>>//
  //               SAPT2+              //
  //<<<<<<<<<<<<<<<<<<<<<<<<<<<<<<<<<<<//


*** tstart() called on node113.bme.utexas.edu
*** at Sat Feb 15 09:32:12 2014

        SAPT2+  
    Ed Hohenstein
     6 June 2009

      Orbital Information
  --------------------------
    NSO        =       274
    NMO        =       274
    NRI        =       806
    NOCC A     =         9
    NOCC B     =        21
    FOCC A     =         2
    FOCC B     =         6
    NVIR A     =       265
    NVIR B     =       253

    Estimated memory usage: 1196.1 MB

    Elst10,r            =    -0.037332445328 H
    Exch10 (S^2)        =     0.081377894018 H
    Exch10              =     0.084006418839 H
    Ind20,r (A<-B)      =    -0.013844499800 H
    Ind20,r (B<-A)      =    -0.019345237928 H
    Ind20,r             =    -0.033189737728 H
    Exch-Ind20,r (A<-B) =     0.011781584083 H
    Exch-Ind20,r (B<-A) =     0.014059087175 H
    Exch-Ind20,r        =     0.025840671258 H
    Disp20              =    -0.030116857958 H
    Exch-Disp20         =     0.005937921999 H
    Elst12,r            =    -0.000744896509 H
    Exch11              =     0.001101071748 H
    Exch12              =     0.003603995728 H
    Ind22               =    -0.003182314121 H
    Disp21              =     0.005936403751 H
    Disp22 (SDQ)        =    -0.000005193332 H

    (i =   1 of  15)        130 seconds
    (i =   2 of  15)        259 seconds
    (i =   3 of  15)        389 seconds
    (i =   4 of  15)        519 seconds
    (i =   5 of  15)        648 seconds
    (i =   6 of  15)        778 seconds
    (i =   7 of  15)        908 seconds
    (i =   8 of  15)       1038 seconds
    (i =   9 of  15)       1167 seconds
    (i =  10 of  15)       1297 seconds
    (i =  11 of  15)       1426 seconds
    (i =  12 of  15)       1556 seconds
    (i =  13 of  15)       1686 seconds
    (i =  14 of  15)       1815 seconds
    (i =  15 of  15)       1945 seconds

    Disp220 (T)         =    -0.001999991617 H

    (i =   1 of   7)        429 seconds
    (i =   2 of   7)        859 seconds
    (i =   3 of   7)       1288 seconds
    (i =   4 of   7)       1717 seconds
    (i =   5 of   7)       2146 seconds
    (i =   6 of   7)       2575 seconds
    (i =   7 of   7)       3005 seconds

    Disp202 (T)         =    -0.002710082181 H

    Disp22 (T)          =    -0.004710073798 H

    SAPT Results  
  -----------------------------------------------------------------------
    Electrostatics         -38.07734184 mH     -23.89389374 kcal mol^-1
      Elst10,r             -37.33244533 mH     -23.42646410 kcal mol^-1
      Elst12,r              -0.74489651 mH      -0.46742964 kcal mol^-1

    Exchange                88.71148632 mH      55.66730042 kcal mol^-1
      Exch10                84.00641884 mH      52.71482588 kcal mol^-1
      Exch10(S^2)           81.37789402 mH      51.06540159 kcal mol^-1
      Exch11(S^2)            1.10107175 mH       0.69093298 kcal mol^-1
      Exch12(S^2)            3.60399573 mH       2.26154156 kcal mol^-1

    Induction              -14.53953759 mH      -9.12369796 kcal mol^-1
      Ind20,r              -33.18973773 mH     -20.82687573 kcal mol^-1
      Ind22                 -3.18231412 mH      -1.99693234 kcal mol^-1
      Exch-Ind20,r          25.84067126 mH      16.21526670 kcal mol^-1
      Exch-Ind22             2.47766746 mH       1.55475987 kcal mol^-1
      delta HF,r (2)        -6.48582445 mH      -4.06991646 kcal mol^-1

    Dispersion             -22.95779934 mH     -14.40623718 kcal mol^-1
      Disp20               -30.11685796 mH     -18.89861448 kcal mol^-1
      Disp21                 5.93640375 mH       3.72514975 kcal mol^-1
      Disp22 (SDQ)          -0.00519333 mH      -0.00325886 kcal mol^-1
      Disp22 (T)            -4.71007380 mH      -2.95561605 kcal mol^-1
      Exch-Disp20            5.93792200 mH       3.72610246 kcal mol^-1

    Total HF                32.83908259 mH      20.60683630 kcal mol^-1
    Total SAPT0              8.66014663 mH       5.43432428 kcal mol^-1
    Total SAPT2             11.91567093 mH       7.47719671 kcal mol^-1
    Total SAPT2+            13.13680756 mH       8.24347154 kcal mol^-1

*** tstop() called on node113.bme.utexas.edu at Sat Feb 15 11:07:31 2014
Module time:
	user time   =   21017.81 seconds =     350.30 minutes
	system time =      91.87 seconds =       1.53 minutes
	total time  =       5719 seconds =      95.32 minutes
Total time:
	user time   =   21328.94 seconds =     355.48 minutes
	system time =      94.92 seconds =       1.58 minutes
	total time  =       5803 seconds =      96.72 minutes

*** PSI4 exiting successfully. Buy a developer a beer!
