    -----------------------------------------------------------------------
          PSI4: An Open-Source Ab Initio Electronic Structure Package
                              PSI 4.0.0-beta4 Driver

    J. M. Turney, A. C. Simmonett, R. M. Parrish, E. G. Hohenstein,
    F. A. Evangelista, J. T. Fermann, B. J. Mintz, L. A. Burns, J. J. Wilke,
    M. L. Abrams, N. J. Russ, M. L. Leininger, C. L. Janssen, E. T. Seidl,
    W. D. Allen, H. F. Schaefer, R. A. King, E. F. Valeev, C. D. Sherrill,
    and T. D. Crawford, WIREs Comput. Mol. Sci., (2011) (doi: 10.1002/wcms.93)

                         Additional Contributions by
    A. E. DePrince, M. Saitow, U. Bozkaya, A. Yu. Sokolov
    -----------------------------------------------------------------------

    Process ID:  19225
    PSI4DATADIR: /home/xzhu216/psi4/psi4-install/share/psi

    Using LocalCommunicator (Number of processes = 1)

    Memory level set to 256.000 MB

  ==> Input File <==

--------------------------------------------------------------------------
#psi4
#
memory 7 gb

molecule CH3SH_Water {
0 1
    C    -3.110208000     1.144977000    -0.620728000
    S    -2.707703000    -0.583358000    -0.238959000
    H    -1.379422000    -0.424593000    -0.239937000
    H    -2.704740000     1.438707000    -1.583687000
    H    -2.748134000     1.812574000     0.154635000
    H    -4.193859000     1.210314000    -0.661830000
--
0 1

    O     0.604152800     0.174387600    -0.319223400
    H     1.198279800    -0.116506400    -1.014287400
    H     1.161443800     0.200838600     0.461446600

no_reorient  #important for SAPT in psi4, default
symmetry c1  #important for SAPT in psi4, default
}

set {
basis aug-cc-pVDZ
scf_type DF
freeze_core True
}
energy('sapt2+')
--------------------------------------------------------------------------

  Memory set to   7.000 GiB by Python script.

  //>>>>>>>>>>>>>>>>>>>>>>>>>>>>>>>>>>>//
  //              Dimer HF             //
  //<<<<<<<<<<<<<<<<<<<<<<<<<<<<<<<<<<<//


  No DF_BASIS_SCF auxiliary basis selected, defaulting to aug-cc-pvdz-jkfit


*** tstart() called on node61.bme.utexas.edu
*** at Fri May 16 18:49:45 2014


         ---------------------------------------------------------
                                   SCF
            by Justin Turney, Rob Parrish, and Andy Simmonett
                              RHF Reference
                        8 Threads,   7000 MiB Core
         ---------------------------------------------------------

  ==> Geometry <==

    Molecular point group: c1
    Full point group: C1

    Geometry (in Angstrom), charge = 0, multiplicity = 1:

       Center              X                  Y                   Z       
    ------------   -----------------  -----------------  -----------------
           C         -1.247506721852     1.114203813608    -0.270787864057
           S         -0.845001721852    -0.614131186392     0.110981135943
           H          0.483279278148    -0.455366186392     0.110003135943
           H         -0.842038721852     1.407933813608    -1.233746864057
           H         -0.885432721852     1.781800813608     0.504575135943
           H         -2.331157721852     1.179540813608    -0.311889864057
           O          2.466854078148     0.143614413608     0.030716735943
           H          3.060981078148    -0.147279586392    -0.664347264057
           H          3.024145078148     0.170065413608     0.811386735943

  Running in c1 symmetry.

  Nuclear repulsion =  103.987808153175237

  Charge       = 0
  Multiplicity = 1
  Electrons    = 36
  Nalpha       = 18
  Nbeta        = 18

  ==> Algorithm <==

  SCF Algorithm Type is DF.
  DIIS enabled.
  MOM disabled.
  Fractional occupation disabled.
  Guess Type is CORE.
  Energy threshold   = 1.00e-08
  Density threshold  = 1.00e-08
  Integral threshold = 0.00e+00

  ==> Primary Basis <==

  Basis Set: AUG-CC-PVDZ
    Number of shells: 59
    Number of basis function: 127
    Number of Cartesian functions: 133
    Spherical Harmonics?: true
    Max angular momentum: 2

  ==> Pre-Iterations <==

   -------------------------------------------------------
    Irrep   Nso     Nmo     Nalpha   Nbeta   Ndocc  Nsocc
   -------------------------------------------------------
     A        127     127       0       0       0       0
   -------------------------------------------------------
    Total     127     127      18      18      18       0
   -------------------------------------------------------

 OEINTS: Wrapper to libmints.
   by Justin Turney

   Calculation information:
      Number of atoms:                   9
      Number of AO shells:              59
      Number of SO shells:              59
      Number of primitives:            145
      Number of atomic orbitals:       133
      Number of basis functions:       127

      Number of irreps:                  1
      Number of functions per irrep: [ 127 ]

      Overlap, kinetic, potential, dipole, and quadrupole integrals
        stored in file 35.

  ==> Integral Setup <==

  ==> DFJK: Density-Fitted J/K Matrices <==

    J tasked:                  Yes
    K tasked:                  Yes
    wK tasked:                  No
    OpenMP threads:              8
    Integrals threads:           8
    Memory (MB):              5006
    Algorithm:                Core
    Integral Cache:           SAVE
    Schwarz Cutoff:          0E+00
    Fitting Condition:       1E-12

   => Auxiliary Basis Set <=

  Basis Set: aug-cc-pvdz-jkfit
    Number of shells: 168
    Number of basis function: 492
    Number of Cartesian functions: 562
    Spherical Harmonics?: true
    Max angular momentum: 3

  Minimum eigenvalue in the overlap matrix is 3.7876067194E-04.
  Using Symmetric Orthogonalization.
  SCF Guess: Core (One-Electron) Hamiltonian.

  Guess energy:  -379.06463681634875

  ==> Iterations <==

                        Total Energy        Delta E     RMS |[F,P]|

   @RHF iter   1:  -486.03572065312505   -4.86036e+02   3.69370e-02 
   @RHF iter   2:  -472.59146342099848    1.34443e+01   4.02153e-02 DIIS
   @RHF iter   3:  -481.26303773969960   -8.67157e+00   3.58523e-02 DIIS
   @RHF iter   4:  -509.78959475937268   -2.85266e+01   1.65603e-02 DIIS
   @RHF iter   5:  -511.70719722758633   -1.91760e+00   1.15395e-02 DIIS
   @RHF iter   6:  -513.64165054598925   -1.93445e+00   3.66612e-03 DIIS
   @RHF iter   7:  -513.75887003647711   -1.17219e-01   1.12805e-03 DIIS
   @RHF iter   8:  -513.76930927406647   -1.04392e-02   4.48837e-04 DIIS
   @RHF iter   9:  -513.77191037270427   -2.60110e-03   7.08168e-05 DIIS
   @RHF iter  10:  -513.77200577497240   -9.54023e-05   2.86975e-05 DIIS
   @RHF iter  11:  -513.77202184030057   -1.60653e-05   8.08608e-06 DIIS
   @RHF iter  12:  -513.77202336172218   -1.52142e-06   1.61860e-06 DIIS
   @RHF iter  13:  -513.77202342011003   -5.83879e-08   4.00612e-07 DIIS
   @RHF iter  14:  -513.77202342451392   -4.40389e-09   1.14897e-07 DIIS
   @RHF iter  15:  -513.77202342484247   -3.28555e-10   2.32025e-08 DIIS
   @RHF iter  16:  -513.77202342485657   -1.40972e-11   4.62259e-09 DIIS

  ==> Post-Iterations <==

	Orbital Energies (a.u.)
	-----------------------

	Doubly Occupied:                                                      

	   1A    -91.930817     2A    -20.595279     3A    -11.248259  
	   4A     -8.933359     5A     -6.615557     6A     -6.614251  
	   7A     -6.612165     8A     -1.375331     9A     -1.021839  
	  10A     -0.850398    11A     -0.734717    12A     -0.621629  
	  13A     -0.583985    14A     -0.576157    15A     -0.533711  
	  16A     -0.499637    17A     -0.437649    18A     -0.336590  

	Virtual:                                                              

	  19A      0.027878    20A      0.046853    21A      0.052023  
	  22A      0.066575    23A      0.073727    24A      0.074068  
	  25A      0.125487    26A      0.135400    27A      0.150471  
	  28A      0.156665    29A      0.173280    30A      0.173473  
	  31A      0.186563    32A      0.197680    33A      0.211512  
	  34A      0.224847    35A      0.238900    36A      0.262841  
	  37A      0.268571    38A      0.281249    39A      0.296641  
	  40A      0.313636    41A      0.316940    42A      0.360339  
	  43A      0.362299    44A      0.375618    45A      0.377842  
	  46A      0.419278    47A      0.434316    48A      0.437888  
	  49A      0.464658    50A      0.468720    51A      0.485426  
	  52A      0.492946    53A      0.521061    54A      0.549542  
	  55A      0.561971    56A      0.568570    57A      0.581233  
	  58A      0.593837    59A      0.614463    60A      0.638508  
	  61A      0.651362    62A      0.656350    63A      0.667981  
	  64A      0.675902    65A      0.682381    66A      0.692019  
	  67A      0.699892    68A      0.710377    69A      0.787130  
	  70A      0.789020    71A      0.802701    72A      0.841446  
	  73A      0.951537    74A      1.014628    75A      1.014997  
	  76A      1.040850    77A      1.047523    78A      1.098732  
	  79A      1.132088    80A      1.146025    81A      1.189819  
	  82A      1.192559    83A      1.201390    84A      1.225874  
	  85A      1.233094    86A      1.254278    87A      1.310282  
	  88A      1.370043    89A      1.371498    90A      1.437712  
	  91A      1.455794    92A      1.519874    93A      1.535718  
	  94A      1.579103    95A      1.780139    96A      1.799304  
	  97A      1.820353    98A      1.896877    99A      1.935390  
	 100A      1.967277   101A      2.006829   102A      2.058722  
	 103A      2.076825   104A      2.084774   105A      2.097745  
	 106A      2.141930   107A      2.150956   108A      2.241821  
	 109A      2.243157   110A      2.251325   111A      2.409549  
	 112A      2.465460   113A      2.478307   114A      2.540186  
	 115A      2.561520   116A      2.622035   117A      2.647931  
	 118A      2.741122   119A      2.863356   120A      2.947781  
	 121A      2.997231   122A      3.017222   123A      3.691593  
	 124A      3.728483   125A      3.825612   126A      4.058770  
	 127A      4.315411  

	Final Occupation by Irrep:
	          A 
	DOCC [    18 ]

  Energy converged.

  @RHF Final Energy:  -513.77202342485657

   => Energetics <=

    Nuclear Repulsion Energy =            103.9878081531752372
    One-Electron Energy =                -915.2770008009750882
    Two-Electron Energy =                 297.5171692229432665
    DFT Exchange-Correlation Energy =       0.0000000000000000
    Empirical Dispersion Energy =           0.0000000000000000
    Total Energy =                       -513.7720234248565703



Properties will be evaluated at   0.000000,   0.000000,   0.000000 Bohr
  ==> Properties <==


Properties computed using the SCF density density matrix
  Nuclear Dipole Moment: (a.u.)
     X:     2.3424      Y:     3.6750      Z:    -0.7319

  Electronic Dipole Moment: (a.u.)
     X:    -1.1076      Y:    -3.1980      Z:     0.6601

  Dipole Moment: (a.u.)
     X:     1.2348      Y:     0.4770      Z:    -0.0718     Total:     1.3257

  Dipole Moment: (Debye)
     X:     3.1386      Y:     1.2125      Z:    -0.1824     Total:     3.3696


  Saving occupied orbitals to File 180.

  Saving SAPT 2-DIMER file.

*** tstop() called on node61.bme.utexas.edu at Fri May 16 18:49:48 2014
Module time:
	user time   =      17.42 seconds =       0.29 minutes
	system time =       0.32 seconds =       0.01 minutes
	total time  =          3 seconds =       0.05 minutes
Total time:
	user time   =      17.42 seconds =       0.29 minutes
	system time =       0.32 seconds =       0.01 minutes
	total time  =          3 seconds =       0.05 minutes

  //>>>>>>>>>>>>>>>>>>>>>>>>>>>>>>>>>>>//
  //            Monomer A HF           //
  //<<<<<<<<<<<<<<<<<<<<<<<<<<<<<<<<<<<//


  No DF_BASIS_SCF auxiliary basis selected, defaulting to aug-cc-pvdz-jkfit


*** tstart() called on node61.bme.utexas.edu
*** at Fri May 16 18:49:48 2014


         ---------------------------------------------------------
                                   SCF
            by Justin Turney, Rob Parrish, and Andy Simmonett
                              RHF Reference
                        8 Threads,   7000 MiB Core
         ---------------------------------------------------------

  ==> Geometry <==

    Molecular point group: c1
    Full point group: C1

    Geometry (in Angstrom), charge = 0, multiplicity = 1:

       Center              X                  Y                   Z       
    ------------   -----------------  -----------------  -----------------
           C         -1.247506721852     1.114203813608    -0.270787864057
           S         -0.845001721852    -0.614131186392     0.110981135943
           H          0.483279278148    -0.455366186392     0.110003135943
           H         -0.842038721852     1.407933813608    -1.233746864057
           H         -0.885432721852     1.781800813608     0.504575135943
           H         -2.331157721852     1.179540813608    -0.311889864057
           O(Gh)      2.466854078148     0.143614413608     0.030716735943
           H(Gh)      3.060981078148    -0.147279586392    -0.664347264057
           H(Gh)      3.024145078148     0.170065413608     0.811386735943

  Running in c1 symmetry.

  Nuclear repulsion =   56.437112883846517

  Charge       = 0
  Multiplicity = 1
  Electrons    = 26
  Nalpha       = 13
  Nbeta        = 13

  ==> Algorithm <==

  SCF Algorithm Type is DF.
  DIIS enabled.
  MOM disabled.
  Fractional occupation disabled.
  Guess Type is CORE.
  Energy threshold   = 1.00e-08
  Density threshold  = 1.00e-08
  Integral threshold = 0.00e+00

  ==> Primary Basis <==

  Basis Set: AUG-CC-PVDZ
    Number of shells: 59
    Number of basis function: 127
    Number of Cartesian functions: 133
    Spherical Harmonics?: true
    Max angular momentum: 2

  ==> Pre-Iterations <==

   -------------------------------------------------------
    Irrep   Nso     Nmo     Nalpha   Nbeta   Ndocc  Nsocc
   -------------------------------------------------------
     A        127     127       0       0       0       0
   -------------------------------------------------------
    Total     127     127      13      13      13       0
   -------------------------------------------------------

 OEINTS: Wrapper to libmints.
   by Justin Turney

   Calculation information:
      Number of atoms:                   9
      Number of AO shells:              59
      Number of SO shells:              59
      Number of primitives:            145
      Number of atomic orbitals:       133
      Number of basis functions:       127

      Number of irreps:                  1
      Number of functions per irrep: [ 127 ]

      Overlap, kinetic, potential, dipole, and quadrupole integrals
        stored in file 35.

  ==> Integral Setup <==

  ==> DFJK: Density-Fitted J/K Matrices <==

    J tasked:                  Yes
    K tasked:                  Yes
    wK tasked:                  No
    OpenMP threads:              8
    Integrals threads:           8
    Memory (MB):              5006
    Algorithm:                Core
    Integral Cache:           LOAD
    Schwarz Cutoff:          0E+00
    Fitting Condition:       1E-12

   => Auxiliary Basis Set <=

  Basis Set: aug-cc-pvdz-jkfit
    Number of shells: 168
    Number of basis function: 492
    Number of Cartesian functions: 562
    Spherical Harmonics?: true
    Max angular momentum: 3

  Minimum eigenvalue in the overlap matrix is 3.7876067194E-04.
  Using Symmetric Orthogonalization.
  SCF Guess: Core (One-Electron) Hamiltonian.

  Guess energy:  -319.63977774826640

  ==> Iterations <==

                        Total Energy        Delta E     RMS |[F,P]|

   @RHF iter   1:  -420.18898810584244   -4.20189e+02   2.87270e-02 
   @RHF iter   2:  -422.51084532485197   -2.32186e+00   2.31722e-02 DIIS
   @RHF iter   3:  -435.41483932342805   -1.29040e+01   1.35648e-02 DIIS
   @RHF iter   4:  -437.57631428702871   -2.16147e+00   3.54239e-03 DIIS
   @RHF iter   5:  -437.69680396450798   -1.20490e-01   1.66462e-03 DIIS
   @RHF iter   6:  -437.72830681307863   -3.15028e-02   3.17776e-04 DIIS
   @RHF iter   7:  -437.73015256908951   -1.84576e-03   7.63051e-05 DIIS
   @RHF iter   8:  -437.73026651379212   -1.13945e-04   3.14698e-05 DIIS
   @RHF iter   9:  -437.73028526793377   -1.87541e-05   6.79969e-06 DIIS
   @RHF iter  10:  -437.73028674718790   -1.47925e-06   1.32753e-06 DIIS
   @RHF iter  11:  -437.73028680226560   -5.50777e-08   3.04644e-07 DIIS
   @RHF iter  12:  -437.73028680496617   -2.70057e-09   6.67268e-08 DIIS
   @RHF iter  13:  -437.73028680510043   -1.34264e-10   1.51214e-08 DIIS
   @RHF iter  14:  -437.73028680510760   -7.16227e-12   3.35924e-09 DIIS

  ==> Post-Iterations <==

	Orbital Energies (a.u.)
	-----------------------

	Doubly Occupied:                                                      

	   1A    -91.955907     2A    -11.264700     3A     -8.957787  
	   4A     -6.639943     5A     -6.638574     6A     -6.636362  
	   7A     -1.041055     8A     -0.869132     9A     -0.609344  
	  10A     -0.592491    11A     -0.528168    12A     -0.460689  
	  13A     -0.356780  

	Virtual:                                                              

	  14A      0.029517    15A      0.043068    16A      0.052987  
	  17A      0.060002    18A      0.072062    19A      0.076375  
	  20A      0.115637    21A      0.118509    22A      0.134735  
	  23A      0.149802    24A      0.153581    25A      0.165717  
	  26A      0.168419    27A      0.181757    28A      0.189689  
	  29A      0.204652    30A      0.208426    31A      0.246095  
	  32A      0.266396    33A      0.280122    34A      0.299057  
	  35A      0.310042    36A      0.338386    37A      0.368318  
	  38A      0.372179    39A      0.389978    40A      0.405298  
	  41A      0.409681    42A      0.423898    43A      0.446847  
	  44A      0.449676    45A      0.465001    46A      0.467081  
	  47A      0.501344    48A      0.509362    49A      0.522809  
	  50A      0.525054    51A      0.531043    52A      0.556194  
	  53A      0.557461    54A      0.605076    55A      0.607477  
	  56A      0.626443    57A      0.636393    58A      0.642442  
	  59A      0.646730    60A      0.667919    61A      0.669623  
	  62A      0.686078    63A      0.701796    64A      0.746093  
	  65A      0.774821    66A      0.795169    67A      0.923633  
	  68A      0.959953    69A      0.993609    70A      1.026982  
	  71A      1.030982    72A      1.072295    73A      1.114756  
	  74A      1.128966    75A      1.166418    76A      1.173305  
	  77A      1.210521    78A      1.213380    79A      1.223074  
	  80A      1.251988    81A      1.290304    82A      1.301900  
	  83A      1.303266    84A      1.365589    85A      1.368902  
	  86A      1.388858    87A      1.426724    88A      1.447098  
	  89A      1.496372    90A      1.578539    91A      1.784420  
	  92A      1.788774    93A      1.868560    94A      1.880942  
	  95A      1.946062    96A      1.960571    97A      2.058931  
	  98A      2.061217    99A      2.084488   100A      2.129180  
	 101A      2.217558   102A      2.228627   103A      2.235628  
	 104A      2.290431   105A      2.434209   106A      2.436732  
	 107A      2.464058   108A      2.518846   109A      2.526565  
	 110A      2.568323   111A      2.584407   112A      2.820206  
	 113A      2.849217   114A      2.932277   115A      2.986161  
	 116A      3.509457   117A      3.949937   118A      4.092533  
	 119A      4.958793   120A      4.971365   121A      5.069199  
	 122A      5.195742   123A      5.391029   124A      5.753961  
	 125A      6.668481   126A      7.043452   127A     33.554151  

	Final Occupation by Irrep:
	          A 
	DOCC [    13 ]

  Energy converged.

  @RHF Final Energy:  -437.73028680510760

   => Energetics <=

    Nuclear Repulsion Energy =             56.4371128838465168
    One-Electron Energy =                -715.2329359217591218
    Two-Electron Energy =                 221.0655362328049023
    DFT Exchange-Correlation Energy =       0.0000000000000000
    Empirical Dispersion Energy =           0.0000000000000000
    Total Energy =                       -437.7302868051076530



Properties will be evaluated at   0.000000,   0.000000,   0.000000 Bohr
  ==> Properties <==


Properties computed using the SCF density density matrix
  Nuclear Dipole Moment: (a.u.)
     X:   -46.4503      Y:     1.4608      Z:    -1.4742

  Electronic Dipole Moment: (a.u.)
     X:    46.6183      Y:    -0.8217      Z:     1.3409

  Dipole Moment: (a.u.)
     X:     0.1680      Y:     0.6392      Z:    -0.1333     Total:     0.6742

  Dipole Moment: (Debye)
     X:     0.4270      Y:     1.6246      Z:    -0.3387     Total:     1.7136


  Saving occupied orbitals to File 180.

  Saving SAPT 2-MONOMER_A file.

*** tstop() called on node61.bme.utexas.edu at Fri May 16 18:49:50 2014
Module time:
	user time   =      11.26 seconds =       0.19 minutes
	system time =       0.18 seconds =       0.00 minutes
	total time  =          2 seconds =       0.03 minutes
Total time:
	user time   =      28.85 seconds =       0.48 minutes
	system time =       0.51 seconds =       0.01 minutes
	total time  =          5 seconds =       0.08 minutes

  //>>>>>>>>>>>>>>>>>>>>>>>>>>>>>>>>>>>//
  //            Monomer B HF           //
  //<<<<<<<<<<<<<<<<<<<<<<<<<<<<<<<<<<<//


  No DF_BASIS_SCF auxiliary basis selected, defaulting to aug-cc-pvdz-jkfit


*** tstart() called on node61.bme.utexas.edu
*** at Fri May 16 18:49:50 2014


         ---------------------------------------------------------
                                   SCF
            by Justin Turney, Rob Parrish, and Andy Simmonett
                              RHF Reference
                        8 Threads,   7000 MiB Core
         ---------------------------------------------------------

  ==> Geometry <==

    Molecular point group: c1
    Full point group: C1

    Geometry (in Angstrom), charge = 0, multiplicity = 1:

       Center              X                  Y                   Z       
    ------------   -----------------  -----------------  -----------------
           C(Gh)     -1.247506721852     1.114203813608    -0.270787864057
           S(Gh)     -0.845001721852    -0.614131186392     0.110981135943
           H(Gh)      0.483279278148    -0.455366186392     0.110003135943
           H(Gh)     -0.842038721852     1.407933813608    -1.233746864057
           H(Gh)     -0.885432721852     1.781800813608     0.504575135943
           H(Gh)     -2.331157721852     1.179540813608    -0.311889864057
           O          2.466854078148     0.143614413608     0.030716735943
           H          3.060981078148    -0.147279586392    -0.664347264057
           H          3.024145078148     0.170065413608     0.811386735943

  Running in c1 symmetry.

  Nuclear repulsion =    9.174304207448476

  Charge       = 0
  Multiplicity = 1
  Electrons    = 10
  Nalpha       = 5
  Nbeta        = 5

  ==> Algorithm <==

  SCF Algorithm Type is DF.
  DIIS enabled.
  MOM disabled.
  Fractional occupation disabled.
  Guess Type is CORE.
  Energy threshold   = 1.00e-08
  Density threshold  = 1.00e-08
  Integral threshold = 0.00e+00

  ==> Primary Basis <==

  Basis Set: AUG-CC-PVDZ
    Number of shells: 59
    Number of basis function: 127
    Number of Cartesian functions: 133
    Spherical Harmonics?: true
    Max angular momentum: 2

  ==> Pre-Iterations <==

   -------------------------------------------------------
    Irrep   Nso     Nmo     Nalpha   Nbeta   Ndocc  Nsocc
   -------------------------------------------------------
     A        127     127       0       0       0       0
   -------------------------------------------------------
    Total     127     127       5       5       5       0
   -------------------------------------------------------

 OEINTS: Wrapper to libmints.
   by Justin Turney

   Calculation information:
      Number of atoms:                   9
      Number of AO shells:              59
      Number of SO shells:              59
      Number of primitives:            145
      Number of atomic orbitals:       133
      Number of basis functions:       127

      Number of irreps:                  1
      Number of functions per irrep: [ 127 ]

      Overlap, kinetic, potential, dipole, and quadrupole integrals
        stored in file 35.

  ==> Integral Setup <==

  ==> DFJK: Density-Fitted J/K Matrices <==

    J tasked:                  Yes
    K tasked:                  Yes
    wK tasked:                  No
    OpenMP threads:              8
    Integrals threads:           8
    Memory (MB):              5006
    Algorithm:                Core
    Integral Cache:           LOAD
    Schwarz Cutoff:          0E+00
    Fitting Condition:       1E-12

   => Auxiliary Basis Set <=

  Basis Set: aug-cc-pvdz-jkfit
    Number of shells: 168
    Number of basis function: 492
    Number of Cartesian functions: 562
    Spherical Harmonics?: true
    Max angular momentum: 3

  Minimum eigenvalue in the overlap matrix is 3.7876067194E-04.
  Using Symmetric Orthogonalization.
  SCF Guess: Core (One-Electron) Hamiltonian.

  Guess energy:   -58.66264160964595

  ==> Iterations <==

                        Total Energy        Delta E     RMS |[F,P]|

   @RHF iter   1:   -68.43032594656746   -6.84303e+01   2.67625e-02 
   @RHF iter   2:   -65.09369939910894    3.33663e+00   2.04090e-02 DIIS
   @RHF iter   3:   -75.03449595688679   -9.94080e+00   1.25589e-02 DIIS
   @RHF iter   4:   -75.83429911715777   -7.99803e-01   5.48184e-03 DIIS
   @RHF iter   5:   -76.04012973264315   -2.05831e-01   4.57979e-04 DIIS
   @RHF iter   6:   -76.04124064470204   -1.11091e-03   2.16855e-04 DIIS
   @RHF iter   7:   -76.04150107187212   -2.60427e-04   2.47571e-05 DIIS
   @RHF iter   8:   -76.04150599727312   -4.92540e-06   4.07164e-06 DIIS
   @RHF iter   9:   -76.04150622320881   -2.25936e-07   9.16126e-07 DIIS
   @RHF iter  10:   -76.04150623125572   -8.04691e-09   1.76093e-07 DIIS
   @RHF iter  11:   -76.04150623156413   -3.08404e-10   1.39949e-08 DIIS
   @RHF iter  12:   -76.04150623156761   -3.48166e-12   3.16045e-09 DIIS

  ==> Post-Iterations <==

	Orbital Energies (a.u.)
	-----------------------

	Doubly Occupied:                                                      

	   1A    -20.578055     2A     -1.355925     3A     -0.716456  
	   4A     -0.586528     5A     -0.509332  

	Virtual:                                                              

	   6A      0.030095     7A      0.041697     8A      0.053622  
	   9A      0.059398    10A      0.070367    11A      0.074337  
	  12A      0.118465    13A      0.124272    14A      0.127271  
	  15A      0.134926    16A      0.159713    17A      0.162465  
	  18A      0.166328    19A      0.194381    20A      0.203028  
	  21A      0.225670    22A      0.230533    23A      0.277661  
	  24A      0.288197    25A      0.315962    26A      0.337382  
	  27A      0.347553    28A      0.353847    29A      0.382343  
	  30A      0.395155    31A      0.406462    32A      0.415580  
	  33A      0.422664    34A      0.426447    35A      0.432894  
	  36A      0.458321    37A      0.496485    38A      0.497416  
	  39A      0.524775    40A      0.543238    41A      0.547352  
	  42A      0.552727    43A      0.596495    44A      0.609483  
	  45A      0.634123    46A      0.646635    47A      0.652943  
	  48A      0.666666    49A      0.674723    50A      0.715256  
	  51A      0.726067    52A      0.737730    53A      0.739722  
	  54A      0.788585    55A      0.805999    56A      0.821691  
	  57A      0.822629    58A      0.849162    59A      0.850146  
	  60A      0.872089    61A      0.876075    62A      0.907611  
	  63A      0.922017    64A      0.949991    65A      0.955036  
	  66A      0.989059    67A      1.080924    68A      1.164887  
	  69A      1.222153    70A      1.249148    71A      1.391741  
	  72A      1.532916    73A      1.565216    74A      1.744028  
	  75A      1.827947    76A      1.846679    77A      1.854224  
	  78A      1.885073    79A      1.923196    80A      1.935158  
	  81A      1.972586    82A      2.023548    83A      2.036000  
	  84A      2.062244    85A      2.083077    86A      2.095800  
	  87A      2.136107    88A      2.150332    89A      2.186327  
	  90A      2.272816    91A      2.289096    92A      2.310619  
	  93A      2.332215    94A      2.344126    95A      2.366201  
	  96A      2.434536    97A      2.493522    98A      2.497382  
	  99A      2.589182   100A      2.640145   101A      2.662891  
	 102A      2.707698   103A      2.759587   104A      2.797816  
	 105A      2.846984   106A      2.942331   107A      3.010532  
	 108A      3.019077   109A      3.034631   110A      3.204975  
	 111A      3.206673   112A      3.236396   113A      3.360600  
	 114A      3.710934   115A      3.752491   116A      3.874735  
	 117A      4.079614   118A      4.219767   119A      4.335452  
	 120A      5.138897   121A      5.139053   122A      6.818081  
	 123A     18.411427   124A     20.429767   125A     20.776276  
	 126A     21.014420   127A    138.016350  

	Final Occupation by Irrep:
	          A 
	DOCC [     5 ]

  Energy converged.

  @RHF Final Energy:   -76.04150623156761

   => Energetics <=

    Nuclear Repulsion Energy =              9.1743042074484755
    One-Electron Energy =                -122.9390279270242985
    Two-Electron Energy =                  37.7232174880082027
    DFT Exchange-Correlation Energy =       0.0000000000000000
    Empirical Dispersion Energy =           0.0000000000000000
    Total Energy =                        -76.0415062315676238



Properties will be evaluated at   0.000000,   0.000000,   0.000000 Bohr
  ==> Properties <==


Properties computed using the SCF density density matrix
  Nuclear Dipole Moment: (a.u.)
     X:    48.7927      Y:     2.2142      Z:     0.7422

  Electronic Dipole Moment: (a.u.)
     X:   -48.0254      Y:    -2.3906      Z:    -0.6851

  Dipole Moment: (a.u.)
     X:     0.7672      Y:    -0.1764      Z:     0.0571     Total:     0.7893

  Dipole Moment: (Debye)
     X:     1.9501      Y:    -0.4484      Z:     0.1451     Total:     2.0062


  Saving occupied orbitals to File 180.

  Saving SAPT 2-MONOMER_B file.

*** tstop() called on node61.bme.utexas.edu at Fri May 16 18:49:52 2014
Module time:
	user time   =       9.60 seconds =       0.16 minutes
	system time =       0.21 seconds =       0.00 minutes
	total time  =          2 seconds =       0.03 minutes
Total time:
	user time   =      38.62 seconds =       0.64 minutes
	system time =       0.72 seconds =       0.01 minutes
	total time  =          7 seconds =       0.12 minutes
  No DF_BASIS_SAPT auxiliary basis selected, defaulting to aug-cc-pvdz-ri

  //>>>>>>>>>>>>>>>>>>>>>>>>>>>>>>>>>>>//
  //               SAPT2+              //
  //<<<<<<<<<<<<<<<<<<<<<<<<<<<<<<<<<<<//


*** tstart() called on node61.bme.utexas.edu
*** at Fri May 16 18:49:52 2014

        SAPT2+  
    Ed Hohenstein
     6 June 2009

      Orbital Information
  --------------------------
    NSO        =       127
    NMO        =       127
    NRI        =       374
    NOCC A     =        13
    NOCC B     =         5
    FOCC A     =         6
    FOCC B     =         1
    NVIR A     =       114
    NVIR B     =       122

    Estimated memory usage: 104.9 MB

    Elst10,r            =    -0.008502369529 H
    Exch10 (S^2)        =     0.011100544672 H
    Exch10              =     0.011192853326 H
    Ind20,r (A<-B)      =    -0.002578398977 H
    Ind20,r (B<-A)      =    -0.001308414098 H
    Ind20,r             =    -0.003886813075 H
    Exch-Ind20,r (A<-B) =     0.001843082135 H
    Exch-Ind20,r (B<-A) =     0.000655667704 H
    Exch-Ind20,r        =     0.002498749839 H
    Disp20              =    -0.004389392660 H
    Exch-Disp20         =     0.000753948424 H
    Elst12,r            =    -0.000133312282 H
    Exch11              =     0.000087510937 H
    Exch12              =     0.001272754743 H
    Ind22               =    -0.000412465404 H
    Disp21              =     0.000376412561 H
    Disp22 (SDQ)        =    -0.000066227866 H

    (i =   1 of   4)          5 seconds
    (i =   2 of   4)         11 seconds
    (i =   3 of   4)         16 seconds
    (i =   4 of   4)         21 seconds

    Disp220 (T)         =    -0.000266388232 H

    (i =   1 of   7)          3 seconds
    (i =   2 of   7)          7 seconds
    (i =   3 of   7)         10 seconds
    (i =   4 of   7)         13 seconds
    (i =   5 of   7)         16 seconds
    (i =   6 of   7)         19 seconds
    (i =   7 of   7)         23 seconds

    Disp202 (T)         =    -0.000354720970 H

    Disp22 (T)          =    -0.000621109202 H

    SAPT Results  
  -----------------------------------------------------------------------
    Electrostatics          -8.63568181 mH      -5.41897237 kcal mol^-1
      Elst10,r              -8.50236953 mH      -5.33531765 kcal mol^-1
      Elst12,r              -0.13331228 mH      -0.08365472 kcal mol^-1

    Exchange                12.55311901 mH       7.87720143 kcal mol^-1
      Exch10                11.19285333 mH       7.02362179 kcal mol^-1
      Exch10(S^2)           11.10054467 mH       6.96569724 kcal mol^-1
      Exch11(S^2)            0.08751094 mH       0.05491394 kcal mol^-1
      Exch12(S^2)            1.27275474 mH       0.79866569 kcal mol^-1

    Induction               -3.06817211 mH      -1.92530714 kcal mol^-1
      Ind20,r               -3.88681308 mH      -2.43901213 kcal mol^-1
      Ind22                 -0.41246540 mH      -0.25882596 kcal mol^-1
      Exch-Ind20,r           2.49874984 mH       1.56798926 kcal mol^-1
      Exch-Ind22             0.26516528 mH       0.16639373 kcal mol^-1
      delta HF,r (2)        -1.53280874 mH      -0.96185205 kcal mol^-1

    Dispersion              -3.94636874 mH      -2.47638388 kcal mol^-1
      Disp20                -4.38939266 mH      -2.75438559 kcal mol^-1
      Disp21                 0.37641256 mH       0.23620246 kcal mol^-1
      Disp22 (SDQ)          -0.06622787 mH      -0.04155861 kcal mol^-1
      Disp22 (T)            -0.62110920 mH      -0.38975192 kcal mol^-1
      Exch-Disp20            0.75394842 mH       0.47310980 kcal mol^-1

    Total HF                -0.23038818 mH      -0.14457077 kcal mol^-1
    Total SAPT0             -3.86583242 mH      -2.42584657 kcal mol^-1
    Total SAPT2             -2.78617915 mH      -1.74835388 kcal mol^-1
    Total SAPT2+            -3.09710365 mH      -1.94346196 kcal mol^-1

*** tstop() called on node61.bme.utexas.edu at Fri May 16 18:50:55 2014
Module time:
	user time   =     488.93 seconds =       8.15 minutes
	system time =       6.63 seconds =       0.11 minutes
	total time  =         63 seconds =       1.05 minutes
Total time:
	user time   =     527.58 seconds =       8.79 minutes
	system time =       7.35 seconds =       0.12 minutes
	total time  =         70 seconds =       1.17 minutes

*** PSI4 exiting successfully. Buy a developer a beer!
