
    -----------------------------------------------------------------------
          Psi4: An Open-Source Ab Initio Electronic Structure Package
                               Psi4 1.4a2.dev224 

                         Git: Rev {master} e453b16 


    R. M. Parrish, L. A. Burns, D. G. A. Smith, A. C. Simmonett,
    A. E. DePrince III, E. G. Hohenstein, U. Bozkaya, A. Yu. Sokolov,
    R. Di Remigio, R. M. Richard, J. F. Gonthier, A. M. James,
    H. R. McAlexander, A. Kumar, M. Saitow, X. Wang, B. P. Pritchard,
    P. Verma, H. F. Schaefer III, K. Patkowski, R. A. King, E. F. Valeev,
    F. A. Evangelista, J. M. Turney, T. D. Crawford, and C. D. Sherrill,
    J. Chem. Theory Comput. 13(7) pp 3185--3197 (2017).
    (doi: 10.1021/acs.jctc.7b00174)


                         Additional Contributions by
    P. Kraus, H. Kruse, M. H. Lechner, M. C. Schieber, R. A. Shaw,
    A. Alenaizan, R. Galvelis, Z. L. Glick, S. Lehtola, and J. P. Misiewicz

    -----------------------------------------------------------------------


    Psi4 started on: Thursday, 23 April 2020 05:15PM

    Process ID: 69569
    Host:       node100.bme.utexas.edu
    PSIDATADIR: /home/liuchw/anaconda3/envs/psi4env/share/psi4
    Memory:     500.0 MiB
    Threads:    8
    
  ==> Input File <==

--------------------------------------------------------------------------
#Generated by lconvert.py for sapt job

memory 20 GB

molecule  {
0 1
  C      -3.110210    1.144980   -0.620730
  S      -2.707700   -0.583360   -0.238960
  H      -1.379420   -0.424590   -0.239940
  H      -2.704740    1.438710   -1.583690
  H      -2.748130    1.812570    0.154630
  H      -4.193860    1.210310   -0.661830
--
0 1
  O       2.808130    0.839920   -0.407320
  H       3.402260    0.549020   -1.102390
  H       3.365420    0.866370    0.373350
units angstrom
no_reorient
symmetry c1
}

set {
scf_type DF
basis aug-cc-pvdz
freeze_core True
guess SAD
}
energy('sapt2+')
--------------------------------------------------------------------------

  Memory set to  18.626 GiB by Python driver.

Scratch directory: /scratch/liuchw/

  //>>>>>>>>>>>>>>>>>>>>>>>>>>>>>>>>>>>//
  //              Dimer HF             //
  //<<<<<<<<<<<<<<<<<<<<<<<<<<<<<<<<<<<//


*** tstart() called on node100.bme.utexas.edu
*** at Thu Apr 23 17:15:46 2020

   => Loading Basis Set <=

    Name: AUG-CC-PVDZ
    Role: ORBITAL
    Keyword: BASIS
    atoms 1        entry C          line   182 file /home/liuchw/anaconda3/envs/psi4env/share/psi4/basis/aug-cc-pvdz.gbs 
    atoms 2        entry S          line   702 file /home/liuchw/anaconda3/envs/psi4env/share/psi4/basis/aug-cc-pvdz.gbs 
    atoms 3-6, 8-9 entry H          line    40 file /home/liuchw/anaconda3/envs/psi4env/share/psi4/basis/aug-cc-pvdz.gbs 
    atoms 7        entry O          line   254 file /home/liuchw/anaconda3/envs/psi4env/share/psi4/basis/aug-cc-pvdz.gbs 


         ---------------------------------------------------------
                                   SCF
               by Justin Turney, Rob Parrish, Andy Simmonett
                          and Daniel G. A. Smith
                              RHF Reference
                        8 Threads,  19073 MiB Core
         ---------------------------------------------------------

  ==> Geometry <==

    Molecular point group: c1
    Full point group: C1

    Geometry (in Angstrom), charge = 0, multiplicity = 1:

       Center              X                  Y                   Z               Mass       
    ------------   -----------------  -----------------  -----------------  -----------------
         C           -1.848820432057     0.932630347388    -0.246753384869    12.000000000000
         S           -1.446310432057    -0.795709652612     0.135016615131    31.972071174400
         H           -0.118030432057    -0.636939652612     0.134036615131     1.007825032230
         H           -1.443350432057     1.226360347388    -1.209713384869     1.007825032230
         H           -1.486740432057     1.600220347388     0.528606615131     1.007825032230
         H           -2.932470432057     0.997960347388    -0.287853384869     1.007825032230
         O            4.069519567943     0.627570347388    -0.033343384869    15.994914619570
         H            4.663649567943     0.336670347388    -0.728413384869     1.007825032230
         H            4.626809567943     0.654020347388     0.747326615131     1.007825032230

  Running in c1 symmetry.

  Rotational constants: A =      0.42397  B =      0.03835  C =      0.03557 [cm^-1]
  Rotational constants: A =  12710.39421  B =   1149.64664  C =   1066.49231 [MHz]
  Nuclear repulsion =   89.200045518937131

  Charge       = 0
  Multiplicity = 1
  Electrons    = 36
  Nalpha       = 18
  Nbeta        = 18

  ==> Algorithm <==

  SCF Algorithm Type is DF.
  DIIS enabled.
  MOM disabled.
  Fractional occupation disabled.
  Guess Type is SAD.
  Energy threshold   = 1.00e-08
  Density threshold  = 1.00e-08
  Integral threshold = 0.00e+00

  ==> Primary Basis <==

  Basis Set: AUG-CC-PVDZ
    Blend: AUG-CC-PVDZ
    Number of shells: 59
    Number of basis function: 127
    Number of Cartesian functions: 133
    Spherical Harmonics?: true
    Max angular momentum: 2

   => Loading Basis Set <=

    Name: (AUG-CC-PVDZ AUX)
    Role: JKFIT
    Keyword: DF_BASIS_SCF
    atoms 1        entry C          line   154 file /home/liuchw/anaconda3/envs/psi4env/share/psi4/basis/aug-cc-pvdz-jkfit.gbs 
    atoms 2        entry S          line   690 file /home/liuchw/anaconda3/envs/psi4env/share/psi4/basis/aug-cc-pvdz-jkfit.gbs 
    atoms 3-6, 8-9 entry H          line    70 file /home/liuchw/anaconda3/envs/psi4env/share/psi4/basis/aug-cc-pvdz-jkfit.gbs 
    atoms 7        entry O          line   270 file /home/liuchw/anaconda3/envs/psi4env/share/psi4/basis/aug-cc-pvdz-jkfit.gbs 

  ==> Pre-Iterations <==

   -------------------------------------------------------
    Irrep   Nso     Nmo     Nalpha   Nbeta   Ndocc  Nsocc
   -------------------------------------------------------
     A        127     127       0       0       0       0
   -------------------------------------------------------
    Total     127     127      18      18      18       0
   -------------------------------------------------------

  ==> Integral Setup <==

  ==> DiskDFJK: Density-Fitted J/K Matrices <==

    J tasked:                  Yes
    K tasked:                  Yes
    wK tasked:                  No
    OpenMP threads:              8
    Integrals threads:           8
    Memory [MiB]:            14305
    Algorithm:                Core
    Integral Cache:           SAVE
    Schwarz Cutoff:          1E-12
    Fitting Condition:       1E-10

   => Auxiliary Basis Set <=

  Basis Set: (AUG-CC-PVDZ AUX)
    Blend: AUG-CC-PVDZ-JKFIT
    Number of shells: 168
    Number of basis function: 492
    Number of Cartesian functions: 562
    Spherical Harmonics?: true
    Max angular momentum: 3

  Minimum eigenvalue in the overlap matrix is 5.5636381133E-04.
  Using Symmetric Orthogonalization.

  SCF Guess: Superposition of Atomic Densities via on-the-fly atomic UHF.

  ==> Iterations <==

                           Total Energy        Delta E     RMS |[F,P]|

   @DF-RHF iter SAD:  -512.75126507832249   -5.12751e+02   0.00000e+00 
   @DF-RHF iter   1:  -513.62600474454882   -8.74740e-01   4.25123e-03 DIIS
   @DF-RHF iter   2:  -513.73175253908096   -1.05748e-01   2.50513e-03 DIIS
   @DF-RHF iter   3:  -513.77037459343194   -3.86221e-02   3.21702e-04 DIIS
   @DF-RHF iter   4:  -513.77196655125942   -1.59196e-03   9.73066e-05 DIIS
   @DF-RHF iter   5:  -513.77210790584695   -1.41355e-04   2.63887e-05 DIIS
   @DF-RHF iter   6:  -513.77211982239066   -1.19165e-05   7.08654e-06 DIIS
   @DF-RHF iter   7:  -513.77212097407596   -1.15169e-06   1.79690e-06 DIIS
   @DF-RHF iter   8:  -513.77212105414446   -8.00685e-08   5.53235e-07 DIIS
   @DF-RHF iter   9:  -513.77212106162472   -7.48025e-09   1.06442e-07 DIIS
   @DF-RHF iter  10:  -513.77212106194781   -3.23098e-10   2.07971e-08 DIIS
   @DF-RHF iter  11:  -513.77212106195964   -1.18234e-11   5.17496e-09 DIIS
  Energy and wave function converged.


  ==> Post-Iterations <==

    Orbital Energies [Eh]
    ---------------------

    Doubly Occupied:                                                      

       1A    -91.949094     2A    -20.581749     3A    -11.258676  
       4A     -8.951126     5A     -6.633272     6A     -6.631916  
       7A     -6.629712     8A     -1.359768     9A     -1.034725  
      10A     -0.862794    11A     -0.720336    12A     -0.603006  
      13A     -0.590769    14A     -0.586396    15A     -0.521709  
      16A     -0.513316    17A     -0.454382    18A     -0.350537  

    Virtual:                                                              

      19A      0.031223    20A      0.043525    21A      0.052962  
      22A      0.065218    23A      0.067459    24A      0.069355  
      25A      0.118733    26A      0.123348    27A      0.141919  
      28A      0.148594    29A      0.163429    30A      0.166344  
      31A      0.184814    32A      0.193914    33A      0.213823  
      34A      0.226731    35A      0.227068    36A      0.249057  
      37A      0.256820    38A      0.270691    39A      0.277018  
      40A      0.289608    41A      0.294715    42A      0.325506  
      43A      0.340722    44A      0.360822    45A      0.381498  
      46A      0.385253    47A      0.392441    48A      0.415443  
      49A      0.436042    50A      0.446450    51A      0.453811  
      52A      0.464363    53A      0.496270    54A      0.501161  
      55A      0.540072    56A      0.553441    57A      0.560780  
      58A      0.566795    59A      0.586617    60A      0.601185  
      61A      0.616809    62A      0.629964    63A      0.643649  
      64A      0.649540    65A      0.659330    66A      0.673587  
      67A      0.673921    68A      0.675712    69A      0.707348  
      70A      0.769028    71A      0.788659    72A      0.811640  
      73A      0.934287    74A      0.942802    75A      0.969199  
      76A      0.997341    77A      1.035094    78A      1.089586  
      79A      1.111002    80A      1.116782    81A      1.145016  
      82A      1.151042    83A      1.173658    84A      1.185328  
      85A      1.218038    86A      1.237247    87A      1.269844  
      88A      1.303447    89A      1.338524    90A      1.416251  
      91A      1.425696    92A      1.450413    93A      1.463869  
      94A      1.479112    95A      1.589206    96A      1.696598  
      97A      1.787709    98A      1.807021    99A      1.881029  
     100A      1.907722   101A      1.933766   102A      2.004602  
     103A      2.005796   104A      2.066301   105A      2.078224  
     106A      2.110508   107A      2.119248   108A      2.223828  
     109A      2.228113   110A      2.236392   111A      2.357536  
     112A      2.416219   113A      2.449110   114A      2.476586  
     115A      2.521734   116A      2.559613   117A      2.626360  
     118A      2.714201   119A      2.850081   120A      2.935430  
     121A      2.968414   122A      2.979092   123A      3.676634  
     124A      3.698934   125A      3.713348   126A      4.018395  
     127A      4.303991  

    Final Occupation by Irrep:
              A 
    DOCC [    18 ]

  @DF-RHF Final Energy:  -513.77212106195964

   => Energetics <=

    Nuclear Repulsion Energy =             89.2000455189371309
    One-Electron Energy =                -885.4777691815730805
    Two-Electron Energy =                 282.5056026006762977
    Total Energy =                       -513.7721210619596377

Computation Completed


Properties will be evaluated at   0.000000,   0.000000,   0.000000 [a0]

Properties computed using the SCF density matrix

  Nuclear Dipole Moment: [e a0]
     X:     3.0843      Y:     3.8990      Z:    -0.7616

  Electronic Dipole Moment: [e a0]
     X:    -2.1001      Y:    -3.4299      Z:     0.6852

  Dipole Moment: [e a0]
     X:     0.9842      Y:     0.4691      Z:    -0.0763     Total:     1.0929

  Dipole Moment: [D]
     X:     2.5015      Y:     1.1924      Z:    -0.1940     Total:     2.7779


*** tstop() called on node100.bme.utexas.edu at Thu Apr 23 17:15:49 2020
Module time:
	user time   =      16.61 seconds =       0.28 minutes
	system time =       0.81 seconds =       0.01 minutes
	total time  =          3 seconds =       0.05 minutes
Total time:
	user time   =      16.61 seconds =       0.28 minutes
	system time =       0.81 seconds =       0.01 minutes
	total time  =          3 seconds =       0.05 minutes

  //>>>>>>>>>>>>>>>>>>>>>>>>>>>>>>>>>>>//
  //            Monomer A HF           //
  //<<<<<<<<<<<<<<<<<<<<<<<<<<<<<<<<<<<//


*** tstart() called on node100.bme.utexas.edu
*** at Thu Apr 23 17:15:49 2020

   => Loading Basis Set <=

    Name: AUG-CC-PVDZ
    Role: ORBITAL
    Keyword: BASIS
    atoms 1        entry C          line   182 file /home/liuchw/anaconda3/envs/psi4env/share/psi4/basis/aug-cc-pvdz.gbs 
    atoms 2        entry S          line   702 file /home/liuchw/anaconda3/envs/psi4env/share/psi4/basis/aug-cc-pvdz.gbs 
    atoms 3-6, 8-9 entry H          line    40 file /home/liuchw/anaconda3/envs/psi4env/share/psi4/basis/aug-cc-pvdz.gbs 
    atoms 7        entry O          line   254 file /home/liuchw/anaconda3/envs/psi4env/share/psi4/basis/aug-cc-pvdz.gbs 


         ---------------------------------------------------------
                                   SCF
               by Justin Turney, Rob Parrish, Andy Simmonett
                          and Daniel G. A. Smith
                              RHF Reference
                        8 Threads,  19073 MiB Core
         ---------------------------------------------------------

  ==> Geometry <==

    Molecular point group: c1
    Full point group: C1

    Geometry (in Angstrom), charge = 0, multiplicity = 1:

       Center              X                  Y                   Z               Mass       
    ------------   -----------------  -----------------  -----------------  -----------------
         C           -1.848820432057     0.932630347388    -0.246753384869    12.000000000000
         S           -1.446310432057    -0.795709652612     0.135016615131    31.972071174400
         H           -0.118030432057    -0.636939652612     0.134036615131     1.007825032230
         H           -1.443350432057     1.226360347388    -1.209713384869     1.007825032230
         H           -1.486740432057     1.600220347388     0.528606615131     1.007825032230
         H           -2.932470432057     0.997960347388    -0.287853384869     1.007825032230
      Gh(O)           4.069519567943     0.627570347388    -0.033343384869    15.994914619570
      Gh(H)           4.663649567943     0.336670347388    -0.728413384869     1.007825032230
      Gh(H)           4.626809567943     0.654020347388     0.747326615131     1.007825032230

  Running in c1 symmetry.

  Rotational constants: A =      0.42397  B =      0.03835  C =      0.03557 [cm^-1]
  Rotational constants: A =  12710.39421  B =   1149.64664  C =   1066.49231 [MHz]
  Nuclear repulsion =   56.437026534680598

  Charge       = 0
  Multiplicity = 1
  Electrons    = 26
  Nalpha       = 13
  Nbeta        = 13

  ==> Algorithm <==

  SCF Algorithm Type is DF.
  DIIS enabled.
  MOM disabled.
  Fractional occupation disabled.
  Guess Type is SAD.
  Energy threshold   = 1.00e-08
  Density threshold  = 1.00e-08
  Integral threshold = 0.00e+00

  ==> Primary Basis <==

  Basis Set: AUG-CC-PVDZ
    Blend: AUG-CC-PVDZ
    Number of shells: 59
    Number of basis function: 127
    Number of Cartesian functions: 133
    Spherical Harmonics?: true
    Max angular momentum: 2

   => Loading Basis Set <=

    Name: (AUG-CC-PVDZ AUX)
    Role: JKFIT
    Keyword: DF_BASIS_SCF
    atoms 1        entry C          line   154 file /home/liuchw/anaconda3/envs/psi4env/share/psi4/basis/aug-cc-pvdz-jkfit.gbs 
    atoms 2        entry S          line   690 file /home/liuchw/anaconda3/envs/psi4env/share/psi4/basis/aug-cc-pvdz-jkfit.gbs 
    atoms 3-6, 8-9 entry H          line    70 file /home/liuchw/anaconda3/envs/psi4env/share/psi4/basis/aug-cc-pvdz-jkfit.gbs 
    atoms 7        entry O          line   270 file /home/liuchw/anaconda3/envs/psi4env/share/psi4/basis/aug-cc-pvdz-jkfit.gbs 

  ==> Pre-Iterations <==

   -------------------------------------------------------
    Irrep   Nso     Nmo     Nalpha   Nbeta   Ndocc  Nsocc
   -------------------------------------------------------
     A        127     127       0       0       0       0
   -------------------------------------------------------
    Total     127     127      13      13      13       0
   -------------------------------------------------------

  ==> Integral Setup <==

  ==> DiskDFJK: Density-Fitted J/K Matrices <==

    J tasked:                  Yes
    K tasked:                  Yes
    wK tasked:                  No
    OpenMP threads:              8
    Integrals threads:           8
    Memory [MiB]:            14305
    Algorithm:                Core
    Integral Cache:           LOAD
    Schwarz Cutoff:          1E-12
    Fitting Condition:       1E-10

   => Auxiliary Basis Set <=

  Basis Set: (AUG-CC-PVDZ AUX)
    Blend: AUG-CC-PVDZ-JKFIT
    Number of shells: 168
    Number of basis function: 492
    Number of Cartesian functions: 562
    Spherical Harmonics?: true
    Max angular momentum: 3

  Minimum eigenvalue in the overlap matrix is 5.5636381133E-04.
  Using Symmetric Orthogonalization.

  SCF Guess: Superposition of Atomic Densities via on-the-fly atomic UHF.

  ==> Iterations <==

                           Total Energy        Delta E     RMS |[F,P]|

   @DF-RHF iter SAD:  -437.28654833184316   -4.37287e+02   0.00000e+00 
   @DF-RHF iter   1:  -437.66725046022538   -3.80702e-01   2.33284e-03 DIIS
   @DF-RHF iter   2:  -437.72042385547638   -5.31734e-02   9.50608e-04 DIIS
   @DF-RHF iter   3:  -437.72909025154831   -8.66640e-03   2.33203e-04 DIIS
   @DF-RHF iter   4:  -437.73009661477784   -1.00636e-03   5.41084e-05 DIIS
   @DF-RHF iter   5:  -437.73015399667997   -5.73819e-05   1.30308e-05 DIIS
   @DF-RHF iter   6:  -437.73015809585047   -4.09917e-06   3.39902e-06 DIIS
   @DF-RHF iter   7:  -437.73015841977474   -3.23924e-07   9.07656e-07 DIIS
   @DF-RHF iter   8:  -437.73015844509291   -2.53182e-08   1.69040e-07 DIIS
   @DF-RHF iter   9:  -437.73015844602367   -9.30754e-10   3.16168e-08 DIIS
   @DF-RHF iter  10:  -437.73015844605510   -3.14344e-11   7.64760e-09 DIIS
  Energy and wave function converged.


  ==> Post-Iterations <==

    Orbital Energies [Eh]
    ---------------------

    Doubly Occupied:                                                      

       1A    -91.955734     2A    -11.264711     3A     -8.957722  
       4A     -6.639858     5A     -6.638494     6A     -6.636277  
       7A     -1.041069     8A     -0.869144     9A     -0.609343  
      10A     -0.592524    11A     -0.528172    12A     -0.460697  
      13A     -0.356812  

    Virtual:                                                              

      14A      0.026942    15A      0.040964    16A      0.052296  
      17A      0.062184    18A      0.062402    19A      0.070411  
      20A      0.106801    21A      0.114278    22A      0.133793  
      23A      0.144561    24A      0.149406    25A      0.162614  
      26A      0.163448    27A      0.171936    28A      0.183480  
      29A      0.200730    30A      0.213583    31A      0.218221  
      32A      0.251591    33A      0.263720    34A      0.269159  
      35A      0.288354    36A      0.330566    37A      0.348376  
      38A      0.366370    39A      0.373635    40A      0.382809  
      41A      0.390153    42A      0.416269    43A      0.431810  
      44A      0.433574    45A      0.450073    46A      0.451980  
      47A      0.476724    48A      0.479175    49A      0.491858  
      50A      0.497897    51A      0.542908    52A      0.552207  
      53A      0.555330    54A      0.571355    55A      0.583948  
      56A      0.595674    57A      0.605929    58A      0.610121  
      59A      0.637505    60A      0.646309    61A      0.646553  
      62A      0.666439    63A      0.669813    64A      0.699336  
      65A      0.763536    66A      0.782112    67A      0.856974  
      68A      0.888553    69A      0.937423    70A      0.961161  
      71A      0.994184    72A      1.029315    73A      1.088497  
      74A      1.104588    75A      1.113493    76A      1.164956  
      77A      1.167757    78A      1.175944    79A      1.212514  
      80A      1.230684    81A      1.258145    82A      1.262301  
      83A      1.278512    84A      1.321794    85A      1.332640  
      86A      1.335127    87A      1.393966    88A      1.410025  
      89A      1.420059    90A      1.453948    91A      1.689599  
      92A      1.781742    93A      1.800832    94A      1.875111  
      95A      1.901437    96A      1.926407    97A      2.017245  
      98A      2.060255    99A      2.072347   100A      2.108499  
     101A      2.218004   102A      2.221942   103A      2.230158  
     104A      2.255430   105A      2.370747   106A      2.408566  
     107A      2.441556   108A      2.470070   109A      2.515662  
     110A      2.552601   111A      2.553511   112A      2.704075  
     113A      2.844164   114A      2.929392   115A      2.962988  
     116A      3.370838   117A      3.912087   118A      4.012546  
     119A      4.893908   120A      4.948259   121A      4.960055  
     122A      5.080957   123A      5.385815   124A      5.586500  
     125A      6.592616   126A      7.046461   127A     33.545785  

    Final Occupation by Irrep:
              A 
    DOCC [    13 ]

  @DF-RHF Final Energy:  -437.73015844605510

   => Energetics <=

    Nuclear Repulsion Energy =             56.4370265346805979
    One-Electron Energy =                -715.2332544808737111
    Two-Electron Energy =                 221.0660695001380418
    Total Energy =                       -437.7301584460550430

Computation Completed


Properties will be evaluated at   0.000000,   0.000000,   0.000000 [a0]

Properties computed using the SCF density matrix

  Nuclear Dipole Moment: [e a0]
     X:   -75.9944      Y:    -7.4606      Z:    -0.2932

  Electronic Dipole Moment: [e a0]
     X:    76.1642      Y:     8.1007      Z:     0.1598

  Dipole Moment: [e a0]
     X:     0.1698      Y:     0.6401      Z:    -0.1334     Total:     0.6756

  Dipole Moment: [D]
     X:     0.4316      Y:     1.6270      Z:    -0.3392     Total:     1.7171


*** tstop() called on node100.bme.utexas.edu at Thu Apr 23 17:15:51 2020
Module time:
	user time   =      10.21 seconds =       0.17 minutes
	system time =       0.54 seconds =       0.01 minutes
	total time  =          2 seconds =       0.03 minutes
Total time:
	user time   =      26.92 seconds =       0.45 minutes
	system time =       1.35 seconds =       0.02 minutes
	total time  =          5 seconds =       0.08 minutes

  //>>>>>>>>>>>>>>>>>>>>>>>>>>>>>>>>>>>//
  //            Monomer B HF           //
  //<<<<<<<<<<<<<<<<<<<<<<<<<<<<<<<<<<<//


*** tstart() called on node100.bme.utexas.edu
*** at Thu Apr 23 17:15:51 2020

   => Loading Basis Set <=

    Name: AUG-CC-PVDZ
    Role: ORBITAL
    Keyword: BASIS
    atoms 1        entry C          line   182 file /home/liuchw/anaconda3/envs/psi4env/share/psi4/basis/aug-cc-pvdz.gbs 
    atoms 2        entry S          line   702 file /home/liuchw/anaconda3/envs/psi4env/share/psi4/basis/aug-cc-pvdz.gbs 
    atoms 3-6, 8-9 entry H          line    40 file /home/liuchw/anaconda3/envs/psi4env/share/psi4/basis/aug-cc-pvdz.gbs 
    atoms 7        entry O          line   254 file /home/liuchw/anaconda3/envs/psi4env/share/psi4/basis/aug-cc-pvdz.gbs 


         ---------------------------------------------------------
                                   SCF
               by Justin Turney, Rob Parrish, Andy Simmonett
                          and Daniel G. A. Smith
                              RHF Reference
                        8 Threads,  19073 MiB Core
         ---------------------------------------------------------

  ==> Geometry <==

    Molecular point group: c1
    Full point group: C1

    Geometry (in Angstrom), charge = 0, multiplicity = 1:

       Center              X                  Y                   Z               Mass       
    ------------   -----------------  -----------------  -----------------  -----------------
      Gh(C)          -1.848820432057     0.932630347388    -0.246753384869    12.000000000000
      Gh(S)          -1.446310432057    -0.795709652612     0.135016615131    31.972071174400
      Gh(H)          -0.118030432057    -0.636939652612     0.134036615131     1.007825032230
      Gh(H)          -1.443350432057     1.226360347388    -1.209713384869     1.007825032230
      Gh(H)          -1.486740432057     1.600220347388     0.528606615131     1.007825032230
      Gh(H)          -2.932470432057     0.997960347388    -0.287853384869     1.007825032230
         O            4.069519567943     0.627570347388    -0.033343384869    15.994914619570
         H            4.663649567943     0.336670347388    -0.728413384869     1.007825032230
         H            4.626809567943     0.654020347388     0.747326615131     1.007825032230

  Running in c1 symmetry.

  Rotational constants: A =      0.42397  B =      0.03835  C =      0.03557 [cm^-1]
  Rotational constants: A =  12710.39421  B =   1149.64664  C =   1066.49231 [MHz]
  Nuclear repulsion =    9.174268525297908

  Charge       = 0
  Multiplicity = 1
  Electrons    = 10
  Nalpha       = 5
  Nbeta        = 5

  ==> Algorithm <==

  SCF Algorithm Type is DF.
  DIIS enabled.
  MOM disabled.
  Fractional occupation disabled.
  Guess Type is SAD.
  Energy threshold   = 1.00e-08
  Density threshold  = 1.00e-08
  Integral threshold = 0.00e+00

  ==> Primary Basis <==

  Basis Set: AUG-CC-PVDZ
    Blend: AUG-CC-PVDZ
    Number of shells: 59
    Number of basis function: 127
    Number of Cartesian functions: 133
    Spherical Harmonics?: true
    Max angular momentum: 2

   => Loading Basis Set <=

    Name: (AUG-CC-PVDZ AUX)
    Role: JKFIT
    Keyword: DF_BASIS_SCF
    atoms 1        entry C          line   154 file /home/liuchw/anaconda3/envs/psi4env/share/psi4/basis/aug-cc-pvdz-jkfit.gbs 
    atoms 2        entry S          line   690 file /home/liuchw/anaconda3/envs/psi4env/share/psi4/basis/aug-cc-pvdz-jkfit.gbs 
    atoms 3-6, 8-9 entry H          line    70 file /home/liuchw/anaconda3/envs/psi4env/share/psi4/basis/aug-cc-pvdz-jkfit.gbs 
    atoms 7        entry O          line   270 file /home/liuchw/anaconda3/envs/psi4env/share/psi4/basis/aug-cc-pvdz-jkfit.gbs 

  ==> Pre-Iterations <==

   -------------------------------------------------------
    Irrep   Nso     Nmo     Nalpha   Nbeta   Ndocc  Nsocc
   -------------------------------------------------------
     A        127     127       0       0       0       0
   -------------------------------------------------------
    Total     127     127       5       5       5       0
   -------------------------------------------------------

  ==> Integral Setup <==

  ==> DiskDFJK: Density-Fitted J/K Matrices <==

    J tasked:                  Yes
    K tasked:                  Yes
    wK tasked:                  No
    OpenMP threads:              8
    Integrals threads:           8
    Memory [MiB]:            14305
    Algorithm:                Core
    Integral Cache:           LOAD
    Schwarz Cutoff:          1E-12
    Fitting Condition:       1E-10

   => Auxiliary Basis Set <=

  Basis Set: (AUG-CC-PVDZ AUX)
    Blend: AUG-CC-PVDZ-JKFIT
    Number of shells: 168
    Number of basis function: 492
    Number of Cartesian functions: 562
    Spherical Harmonics?: true
    Max angular momentum: 3

  Minimum eigenvalue in the overlap matrix is 5.5636381133E-04.
  Using Symmetric Orthogonalization.

  SCF Guess: Superposition of Atomic Densities via on-the-fly atomic UHF.

  ==> Iterations <==

                           Total Energy        Delta E     RMS |[F,P]|

   @DF-RHF iter SAD:   -75.46418565621593   -7.54642e+01   0.00000e+00 
   @DF-RHF iter   1:   -75.95698209456525   -4.92796e-01   3.56765e-03 DIIS
   @DF-RHF iter   2:   -76.01019669097285   -5.32146e-02   2.33040e-03 DIIS
   @DF-RHF iter   3:   -76.04084652531122   -3.06498e-02   1.67266e-04 DIIS
   @DF-RHF iter   4:   -76.04122359157255   -3.77066e-04   3.75402e-05 DIIS
   @DF-RHF iter   5:   -76.04124490424876   -2.13127e-05   8.48190e-06 DIIS
   @DF-RHF iter   6:   -76.04124659187069   -1.68762e-06   1.70525e-06 DIIS
   @DF-RHF iter   7:   -76.04124666396484   -7.20942e-08   2.82506e-07 DIIS
   @DF-RHF iter   8:   -76.04124666579187   -1.82703e-09   4.35596e-08 DIIS
   @DF-RHF iter   9:   -76.04124666582995   -3.80709e-11   1.13413e-08 DIIS
   @DF-RHF iter  10:   -76.04124666583236   -2.41585e-12   1.56166e-09 DIIS
  Energy and wave function converged.


  ==> Post-Iterations <==

    Orbital Energies [Eh]
    ---------------------

    Doubly Occupied:                                                      

       1A    -20.578003     2A     -1.356000     3A     -0.716589  
       4A     -0.586674     5A     -0.509462  

    Virtual:                                                              

       6A      0.029665     7A      0.038493     8A      0.053825  
       9A      0.058449    10A      0.064893    11A      0.068341  
      12A      0.110761    13A      0.120854    14A      0.121415  
      15A      0.131971    16A      0.147021    17A      0.154842  
      18A      0.158936    19A      0.190356    20A      0.196704  
      21A      0.216324    22A      0.230761    23A      0.252028  
      24A      0.292465    25A      0.308441    26A      0.311457  
      27A      0.318355    28A      0.343743    29A      0.352192  
      30A      0.385935    31A      0.389464    32A      0.393203  
      33A      0.411401    34A      0.420342    35A      0.427005  
      36A      0.434504    37A      0.436736    38A      0.461182  
      39A      0.474728    40A      0.494219    41A      0.496457  
      42A      0.527103    43A      0.540541    44A      0.559979  
      45A      0.582480    46A      0.613242    47A      0.645207  
      48A      0.652331    49A      0.665023    50A      0.683367  
      51A      0.686558    52A      0.710280    53A      0.715178  
      54A      0.754251    55A      0.765128    56A      0.800745  
      57A      0.806367    58A      0.818615    59A      0.821845  
      60A      0.844395    61A      0.854750    62A      0.858799  
      63A      0.881218    64A      0.932157    65A      0.940446  
      66A      0.944824    67A      1.043119    68A      1.112499  
      69A      1.148759    70A      1.165238    71A      1.308052  
      72A      1.467704    73A      1.482555    74A      1.590784  
      75A      1.707542    76A      1.803874    77A      1.805039  
      78A      1.835434    79A      1.844906    80A      1.897165  
      81A      1.954043    82A      1.985301    83A      2.006576  
      84A      2.009048    85A      2.025795    86A      2.059883  
      87A      2.083379    88A      2.112363    89A      2.117170  
      90A      2.259285    91A      2.279799    92A      2.302406  
      93A      2.334095    94A      2.335676    95A      2.351065  
      96A      2.362397    97A      2.375857    98A      2.412177  
      99A      2.480133   100A      2.579617   101A      2.629344  
     102A      2.639718   103A      2.718172   104A      2.755123  
     105A      2.826768   106A      2.924906   107A      2.982269  
     108A      2.994647   109A      3.006581   110A      3.174206  
     111A      3.190554   112A      3.206107   113A      3.313753  
     114A      3.680710   115A      3.702759   116A      3.718050  
     117A      4.022233   118A      4.202214   119A      4.307869  
     120A      5.123880   121A      5.131227   122A      6.784637  
     123A     18.399461   124A     20.389162   125A     20.727272  
     126A     20.973874   127A    137.953577  

    Final Occupation by Irrep:
              A 
    DOCC [     5 ]

  @DF-RHF Final Energy:   -76.04124666583236

   => Energetics <=

    Nuclear Repulsion Energy =              9.1742685252979079
    One-Electron Energy =                -122.9375752378880975
    Two-Electron Energy =                  37.7220600467578251
    Total Energy =                        -76.0412466658323751

Computation Completed


Properties will be evaluated at   0.000000,   0.000000,   0.000000 [a0]

Properties computed using the SCF density matrix

  Nuclear Dipole Moment: [e a0]
     X:    79.0786      Y:    11.3596      Z:    -0.4683

  Electronic Dipole Moment: [e a0]
     X:   -78.3090      Y:   -11.5372      Z:     0.5257

  Dipole Moment: [e a0]
     X:     0.7697      Y:    -0.1776      Z:     0.0574     Total:     0.7920

  Dipole Moment: [D]
     X:     1.9563      Y:    -0.4513      Z:     0.1459     Total:     2.0129


*** tstop() called on node100.bme.utexas.edu at Thu Apr 23 17:15:52 2020
Module time:
	user time   =       8.35 seconds =       0.14 minutes
	system time =       0.40 seconds =       0.01 minutes
	total time  =          1 seconds =       0.02 minutes
Total time:
	user time   =      35.33 seconds =       0.59 minutes
	system time =       1.75 seconds =       0.03 minutes
	total time  =          6 seconds =       0.10 minutes
  Constructing Basis Sets for SAPT...

   => Loading Basis Set <=

    Name: (AUG-CC-PVDZ AUX)
    Role: RIFIT
    Keyword: DF_BASIS_SAPT
    atoms 1        entry C          line   112 file /home/liuchw/anaconda3/envs/psi4env/share/psi4/basis/aug-cc-pvdz-ri.gbs 
    atoms 2        entry S          line   516 file /home/liuchw/anaconda3/envs/psi4env/share/psi4/basis/aug-cc-pvdz-ri.gbs 
    atoms 3-6, 8-9 entry H          line    30 file /home/liuchw/anaconda3/envs/psi4env/share/psi4/basis/aug-cc-pvdz-ri.gbs 
    atoms 7        entry O          line   204 file /home/liuchw/anaconda3/envs/psi4env/share/psi4/basis/aug-cc-pvdz-ri.gbs 


  //>>>>>>>>>>>>>>>>>>>>>>>>>>>>>>>>>>>//
  //               SAPT2+              //
  //<<<<<<<<<<<<<<<<<<<<<<<<<<<<<<<<<<<//


*** tstart() called on node100.bme.utexas.edu
*** at Thu Apr 23 17:15:52 2020

        SAPT2+  
    Ed Hohenstein
     6 June 2009

      Orbital Information
  --------------------------
    NSO        =       127
    NMO        =       127
    NRI        =       374
    NOCC A     =        13
    NOCC B     =         5
    FOCC A     =         6
    FOCC B     =         1
    NVIR A     =       114
    NVIR B     =       122

    Estimated memory usage: 104.9 MB

    Natural Orbital Cutoff:   1.000E-06
    Disp(T3) Truncation:            Yes
    CCD (vv|vv) Truncation:         Yes
    MBPT T2 Truncation:             Yes

    Monomer A: 45 virtual orbitals dropped
    Monomer B: 88 virtual orbitals dropped

    Elst10,r            =    -0.000686091092 [Eh]
    Exch10 (S^2)        =     0.000002983931 [Eh]
    Exch10              =     0.000002983943 [Eh]
    Ind20,r (A<-B)      =    -0.000028635049 [Eh]
    Ind20,r (B<-A)      =    -0.000003117082 [Eh]
    Ind20,r             =    -0.000031752131 [Eh]
    Exch-Ind20,r (A<-B) =     0.000000151104 [Eh]
    Exch-Ind20,r (B<-A) =     0.000000052389 [Eh]
    Exch-Ind20,r        =     0.000000203493 [Eh]
    Disp20              =    -0.000110983688 [Eh]
    Disp20 (NO)         =    -0.000107502641 [Eh]
    Exch-Disp20         =     0.000000411703 [Eh]
    Elst12,r            =     0.000062329457 [Eh]
    Exch11              =    -0.000000105604 [Eh]
    Exch12              =     0.000001141789 [Eh]
    Ind22               =     0.000002625710 [Eh]
    Disp21              =     0.000014699646 [Eh]
    Disp22 (SDQ)        =    -0.000001783021 [Eh]

    (i =   1 of   4)          0 seconds
    (i =   2 of   4)          0 seconds
    (i =   3 of   4)          0 seconds
    (i =   4 of   4)          0 seconds

    Disp220 (T)         =    -0.000007223579 [Eh]

    (i =   1 of   7)          0 seconds
    (i =   2 of   7)          0 seconds
    (i =   3 of   7)          0 seconds
    (i =   4 of   7)          0 seconds
    (i =   5 of   7)          0 seconds
    (i =   6 of   7)          0 seconds
    (i =   7 of   7)          0 seconds

    Disp202 (T)         =    -0.000009741825 [Eh]

    Disp22 (T)          =    -0.000016965404 [Eh]

    Est. Disp220 (T)    =    -0.000007457486 [Eh]
    Est. Disp202 (T)    =    -0.000010057276 [Eh]

    Est. Disp22 (T)     =    -0.000017514762 [Eh]

    SAPT Results 
  --------------------------------------------------------------------------------------------------------
    Electrostatics                 -0.62376163 [mEh]      -0.39141634 [kcal/mol]      -1.63768595 [kJ/mol]
      Elst10,r                     -0.68609109 [mEh]      -0.43052866 [kcal/mol]      -1.80133191 [kJ/mol]
      Elst12,r                      0.06232946 [mEh]       0.03911232 [kcal/mol]       0.16364597 [kJ/mol]

    Exchange                        0.00402013 [mEh]       0.00252267 [kcal/mol]       0.01055485 [kJ/mol]
      Exch10                        0.00298394 [mEh]       0.00187245 [kcal/mol]       0.00783434 [kJ/mol]
      Exch10(S^2)                   0.00298393 [mEh]       0.00187245 [kcal/mol]       0.00783431 [kJ/mol]
      Exch11(S^2)                  -0.00010560 [mEh]      -0.00006627 [kcal/mol]      -0.00027726 [kJ/mol]
      Exch12(S^2)                   0.00114179 [mEh]       0.00071648 [kcal/mol]       0.00299777 [kJ/mol]

    Induction                      -0.03023404 [mEh]      -0.01897215 [kcal/mol]      -0.07937946 [kJ/mol]
      Ind20,r                      -0.03175213 [mEh]      -0.01992476 [kcal/mol]      -0.08336521 [kJ/mol]
      Ind22                         0.00262571 [mEh]       0.00164766 [kcal/mol]       0.00689380 [kJ/mol]
      Exch-Ind20,r                  0.00020349 [mEh]       0.00012769 [kcal/mol]       0.00053427 [kJ/mol]
      Exch-Ind22                   -0.00001683 [mEh]      -0.00001056 [kcal/mol]      -0.00004418 [kJ/mol]
      delta HF,r (2)               -0.00129429 [mEh]      -0.00081218 [kcal/mol]      -0.00339815 [kJ/mol]

    Dispersion                     -0.11517012 [mEh]      -0.07227034 [kcal/mol]      -0.30237911 [kJ/mol]
      Disp20                       -0.11098369 [mEh]      -0.06964332 [kcal/mol]      -0.29138763 [kJ/mol]
      Disp21                        0.01469965 [mEh]       0.00922417 [kcal/mol]       0.03859392 [kJ/mol]
      Disp22 (SDQ)                 -0.00178302 [mEh]      -0.00111886 [kcal/mol]      -0.00468132 [kJ/mol]
      Disp22 (T)                   -0.01696540 [mEh]      -0.01064595 [kcal/mol]      -0.04454266 [kJ/mol]
      Est. Disp22 (T)              -0.01751476 [mEh]      -0.01099068 [kcal/mol]      -0.04598500 [kJ/mol]
      Exch-Disp20                   0.00041170 [mEh]       0.00025835 [kcal/mol]       0.00108093 [kJ/mol]

  Total HF                         -0.71595007 [mEh]      -0.44926545 [kcal/mol]      -1.87972666 [kJ/mol]
  Total SAPT0                      -0.82652206 [mEh]      -0.51865042 [kcal/mol]      -2.17003336 [kJ/mol]
  Total SAPT2                      -0.76054753 [mEh]      -0.47725078 [kcal/mol]      -1.99681727 [kJ/mol]
  Total SAPT2+                     -0.76514567 [mEh]      -0.48013616 [kcal/mol]      -2.00888967 [kJ/mol]

  Special recipe for scaled SAPT0 (see Manual):
    Electrostatics sSAPT0          -0.68609109 [mEh]      -0.43052866 [kcal/mol]      -1.80133191 [kJ/mol]
    Exchange sSAPT0                 0.00298394 [mEh]       0.00187245 [kcal/mol]       0.00783434 [kJ/mol]
    Induction sSAPT0               -0.03284292 [mEh]      -0.02060925 [kcal/mol]      -0.08622908 [kJ/mol]
    Dispersion sSAPT0              -0.11057198 [mEh]      -0.06938497 [kcal/mol]      -0.29030671 [kJ/mol]
  Total sSAPT0                     -0.82652206 [mEh]      -0.51865042 [kcal/mol]      -2.17003336 [kJ/mol]
  --------------------------------------------------------------------------------------------------------

*** tstop() called on node100.bme.utexas.edu at Thu Apr 23 17:15:57 2020
Module time:
	user time   =      38.26 seconds =       0.64 minutes
	system time =       2.69 seconds =       0.04 minutes
	total time  =          5 seconds =       0.08 minutes
Total time:
	user time   =      74.25 seconds =       1.24 minutes
	system time =       4.48 seconds =       0.07 minutes
	total time  =         11 seconds =       0.18 minutes

    Psi4 stopped on: Thursday, 23 April 2020 05:15PM
    Psi4 wall time for execution: 0:00:12.24

*** Psi4 exiting successfully. Buy a developer a beer!
