    -----------------------------------------------------------------------
          PSI4: An Open-Source Ab Initio Electronic Structure Package
                              PSI 4.0.0-beta4 Driver

    J. M. Turney, A. C. Simmonett, R. M. Parrish, E. G. Hohenstein,
    F. A. Evangelista, J. T. Fermann, B. J. Mintz, L. A. Burns, J. J. Wilke,
    M. L. Abrams, N. J. Russ, M. L. Leininger, C. L. Janssen, E. T. Seidl,
    W. D. Allen, H. F. Schaefer, R. A. King, E. F. Valeev, C. D. Sherrill,
    and T. D. Crawford, WIREs Comput. Mol. Sci., (2011) (doi: 10.1002/wcms.93)

                         Additional Contributions by
    A. E. DePrince, M. Saitow, U. Bozkaya, A. Yu. Sokolov
    -----------------------------------------------------------------------

    Process ID:  31404
    PSI4DATADIR: /home/xzhu216/psi4/psi4-install/share/psi

    Using LocalCommunicator (Number of processes = 1)

    Memory level set to 256.000 MB

  ==> Input File <==

--------------------------------------------------------------------------
#psi4
#
memory 7 gb

molecule CH3SH_Water {
0 1
    C    -3.110208000     1.144977000    -0.620728000
    S    -2.707703000    -0.583358000    -0.238959000
    H    -1.379422000    -0.424593000    -0.239937000
    H    -2.704740000     1.438707000    -1.583687000
    H    -2.748134000     1.812574000     0.154635000
    H    -4.193859000     1.210314000    -0.661830000
--
0 1
    O     0.934748600     0.274217700    -0.332437800
    H     1.528875600    -0.016676300    -1.027501800
    H     1.492039600     0.300668700     0.448232200

units angstrom
no_reorient  #important for SAPT in psi4, default
symmetry c1  #important for SAPT in psi4, default
}

set {
basis aug-cc-pVDZ
scf_type DF
freeze_core True
}
energy('sapt2+')
--------------------------------------------------------------------------

  Memory set to   7.000 GiB by Python script.

  //>>>>>>>>>>>>>>>>>>>>>>>>>>>>>>>>>>>//
  //              Dimer HF             //
  //<<<<<<<<<<<<<<<<<<<<<<<<<<<<<<<<<<<//


  No DF_BASIS_SCF auxiliary basis selected, defaulting to aug-cc-pvdz-jkfit


*** tstart() called on node137.bme.utexas.edu
*** at Fri May 16 18:52:35 2014


         ---------------------------------------------------------
                                   SCF
            by Justin Turney, Rob Parrish, and Andy Simmonett
                              RHF Reference
                        8 Threads,   7000 MiB Core
         ---------------------------------------------------------

  ==> Geometry <==

    Molecular point group: c1
    Full point group: C1

    Geometry (in Angstrom), charge = 0, multiplicity = 1:

       Center              X                  Y                   Z       
    ------------   -----------------  -----------------  -----------------
           C         -1.337703086709     1.086967193774    -0.267182582793
           S         -0.935198086709    -0.641367806226     0.114586417207
           H          0.393082913291    -0.482602806226     0.113608417207
           H         -0.932235086709     1.380697193774    -1.230141582793
           H         -0.975629086709     1.754564193774     0.508180417207
           H         -2.421354086709     1.152304193774    -0.308284582793
           O          2.707253513291     0.216207893774     0.021107617207
           H          3.301380513291    -0.074686106226    -0.673956382793
           H          3.264544513291     0.242658893774     0.801777617207

  Running in c1 symmetry.

  Nuclear repulsion =  100.699639557800751

  Charge       = 0
  Multiplicity = 1
  Electrons    = 36
  Nalpha       = 18
  Nbeta        = 18

  ==> Algorithm <==

  SCF Algorithm Type is DF.
  DIIS enabled.
  MOM disabled.
  Fractional occupation disabled.
  Guess Type is CORE.
  Energy threshold   = 1.00e-08
  Density threshold  = 1.00e-08
  Integral threshold = 0.00e+00

  ==> Primary Basis <==

  Basis Set: AUG-CC-PVDZ
    Number of shells: 59
    Number of basis function: 127
    Number of Cartesian functions: 133
    Spherical Harmonics?: true
    Max angular momentum: 2

  ==> Pre-Iterations <==

   -------------------------------------------------------
    Irrep   Nso     Nmo     Nalpha   Nbeta   Ndocc  Nsocc
   -------------------------------------------------------
     A        127     127       0       0       0       0
   -------------------------------------------------------
    Total     127     127      18      18      18       0
   -------------------------------------------------------

 OEINTS: Wrapper to libmints.
   by Justin Turney

   Calculation information:
      Number of atoms:                   9
      Number of AO shells:              59
      Number of SO shells:              59
      Number of primitives:            145
      Number of atomic orbitals:       133
      Number of basis functions:       127

      Number of irreps:                  1
      Number of functions per irrep: [ 127 ]

      Overlap, kinetic, potential, dipole, and quadrupole integrals
        stored in file 35.

  ==> Integral Setup <==

  ==> DFJK: Density-Fitted J/K Matrices <==

    J tasked:                  Yes
    K tasked:                  Yes
    wK tasked:                  No
    OpenMP threads:              8
    Integrals threads:           8
    Memory (MB):              5006
    Algorithm:                Core
    Integral Cache:           SAVE
    Schwarz Cutoff:          0E+00
    Fitting Condition:       1E-12

   => Auxiliary Basis Set <=

  Basis Set: aug-cc-pvdz-jkfit
    Number of shells: 168
    Number of basis function: 492
    Number of Cartesian functions: 562
    Spherical Harmonics?: true
    Max angular momentum: 3

  Minimum eigenvalue in the overlap matrix is 4.4002697749E-04.
  Using Symmetric Orthogonalization.
  SCF Guess: Core (One-Electron) Hamiltonian.

  Guess energy:  -378.86523067120686

  ==> Iterations <==

                        Total Energy        Delta E     RMS |[F,P]|

   @RHF iter   1:  -487.12087754274273   -4.87121e+02   3.86209e-02 
   @RHF iter   2:  -474.49385475673944    1.26270e+01   3.82831e-02 DIIS
   @RHF iter   3:  -479.76370037231538   -5.26985e+00   3.57082e-02 DIIS
   @RHF iter   4:  -509.91604902965264   -3.01523e+01   1.58274e-02 DIIS
   @RHF iter   5:  -511.71770546072958   -1.80166e+00   1.15029e-02 DIIS
   @RHF iter   6:  -513.62476435263795   -1.90706e+00   3.90393e-03 DIIS
   @RHF iter   7:  -513.75799384651691   -1.33229e-01   1.22754e-03 DIIS
   @RHF iter   8:  -513.77106609256487   -1.30722e-02   4.22562e-04 DIIS
   @RHF iter   9:  -513.77352036713137   -2.45427e-03   7.89942e-05 DIIS
   @RHF iter  10:  -513.77364688187174   -1.26515e-04   3.07823e-05 DIIS
   @RHF iter  11:  -513.77366675574649   -1.98739e-05   8.88577e-06 DIIS
   @RHF iter  12:  -513.77366837990814   -1.62416e-06   1.58200e-06 DIIS
   @RHF iter  13:  -513.77366843990046   -5.99923e-08   3.66053e-07 DIIS
   @RHF iter  14:  -513.77366844331641   -3.41595e-09   1.06128e-07 DIIS
   @RHF iter  15:  -513.77366844360029   -2.83876e-10   2.37623e-08 DIIS
   @RHF iter  16:  -513.77366844361620   -1.59162e-11   4.89868e-09 DIIS

  ==> Post-Iterations <==

	Orbital Energies (a.u.)
	-----------------------

	Doubly Occupied:                                                      

	   1A    -91.937586     2A    -20.590300     3A    -11.251342  
	   4A     -8.939810     5A     -6.621996     6A     -6.620668  
	   7A     -6.618531     8A     -1.369069     9A     -1.025783  
	  10A     -0.853943    11A     -0.729142    12A     -0.608450  
	  13A     -0.589655    14A     -0.579102    15A     -0.525810  
	  16A     -0.507990    17A     -0.443965    18A     -0.341148  

	Virtual:                                                              

	  19A      0.029153    20A      0.046169    21A      0.052466  
	  22A      0.066532    23A      0.073324    24A      0.073425  
	  25A      0.125086    26A      0.134278    27A      0.148482  
	  28A      0.154646    29A      0.171617    30A      0.174361  
	  31A      0.186844    32A      0.196610    33A      0.213711  
	  34A      0.225638    35A      0.231321    36A      0.258647  
	  37A      0.270550    38A      0.272228    39A      0.296857  
	  40A      0.309186    41A      0.310248    42A      0.358162  
	  43A      0.364556    44A      0.367813    45A      0.378721  
	  46A      0.414065    47A      0.420859    48A      0.433558  
	  49A      0.461782    50A      0.464529    51A      0.478497  
	  52A      0.486904    53A      0.515097    54A      0.542656  
	  55A      0.562718    56A      0.562783    57A      0.577306  
	  58A      0.587663    59A      0.609247    60A      0.628842  
	  61A      0.646106    62A      0.651141    63A      0.659995  
	  64A      0.666780    65A      0.674851    66A      0.682813  
	  67A      0.698173    68A      0.701224    69A      0.761199  
	  70A      0.780529    71A      0.799537    72A      0.833054  
	  73A      0.941138    74A      0.999894    75A      0.999924  
	  76A      1.019509    77A      1.044077    78A      1.084057  
	  79A      1.128786    80A      1.143523    81A      1.182751  
	  82A      1.185822    83A      1.192547    84A      1.228461  
	  85A      1.236370    86A      1.256387    87A      1.294512  
	  88A      1.346743    89A      1.361690    90A      1.433073  
	  91A      1.437079    92A      1.499393    93A      1.505990  
	  94A      1.536791    95A      1.706305    96A      1.796687  
	  97A      1.808973    98A      1.890725    99A      1.939423  
	 100A      1.958885   101A      2.006394   102A      2.027320  
	 103A      2.071668   104A      2.075725   105A      2.094772  
	 106A      2.140174   107A      2.146789   108A      2.237544  
	 109A      2.238542   110A      2.248165   111A      2.345327  
	 112A      2.448142   113A      2.479965   114A      2.534437  
	 115A      2.536039   116A      2.598203   117A      2.627357  
	 118A      2.726180   119A      2.859461   120A      2.944086  
	 121A      2.989341   122A      3.006993   123A      3.693677  
	 124A      3.715447   125A      3.788307   126A      4.042620  
	 127A      4.312971  

	Final Occupation by Irrep:
	          A 
	DOCC [    18 ]

  Energy converged.

  @RHF Final Energy:  -513.77366844361620

   => Energetics <=

    Nuclear Repulsion Energy =            100.6996395578007508
    One-Electron Energy =                -908.6380395749567924
    Two-Electron Energy =                 294.1647315735403936
    DFT Exchange-Correlation Energy =       0.0000000000000000
    Empirical Dispersion Energy =           0.0000000000000000
    Total Energy =                       -513.7736684436156338



Properties will be evaluated at   0.000000,   0.000000,   0.000000 Bohr
  ==> Properties <==


Properties computed using the SCF density density matrix
  Nuclear Dipole Moment: (a.u.)
     X:     2.4537      Y:     3.7086      Z:    -0.7364

  Electronic Dipole Moment: (a.u.)
     X:    -1.3177      Y:    -3.2338      Z:     0.6626

  Dipole Moment: (a.u.)
     X:     1.1360      Y:     0.4748      Z:    -0.0738     Total:     1.2335

  Dipole Moment: (Debye)
     X:     2.8875      Y:     1.2069      Z:    -0.1875     Total:     3.1352


  Saving occupied orbitals to File 180.

  Saving SAPT 2-DIMER file.

*** tstop() called on node137.bme.utexas.edu at Fri May 16 18:52:38 2014
Module time:
	user time   =      19.24 seconds =       0.32 minutes
	system time =       0.36 seconds =       0.01 minutes
	total time  =          3 seconds =       0.05 minutes
Total time:
	user time   =      19.24 seconds =       0.32 minutes
	system time =       0.36 seconds =       0.01 minutes
	total time  =          3 seconds =       0.05 minutes

  //>>>>>>>>>>>>>>>>>>>>>>>>>>>>>>>>>>>//
  //            Monomer A HF           //
  //<<<<<<<<<<<<<<<<<<<<<<<<<<<<<<<<<<<//


  No DF_BASIS_SCF auxiliary basis selected, defaulting to aug-cc-pvdz-jkfit


*** tstart() called on node137.bme.utexas.edu
*** at Fri May 16 18:52:38 2014


         ---------------------------------------------------------
                                   SCF
            by Justin Turney, Rob Parrish, and Andy Simmonett
                              RHF Reference
                        8 Threads,   7000 MiB Core
         ---------------------------------------------------------

  ==> Geometry <==

    Molecular point group: c1
    Full point group: C1

    Geometry (in Angstrom), charge = 0, multiplicity = 1:

       Center              X                  Y                   Z       
    ------------   -----------------  -----------------  -----------------
           C         -1.337703086709     1.086967193774    -0.267182582793
           S         -0.935198086709    -0.641367806226     0.114586417207
           H          0.393082913291    -0.482602806226     0.113608417207
           H         -0.932235086709     1.380697193774    -1.230141582793
           H         -0.975629086709     1.754564193774     0.508180417207
           H         -2.421354086709     1.152304193774    -0.308284582793
           O(Gh)      2.707253513291     0.216207893774     0.021107617207
           H(Gh)      3.301380513291    -0.074686106226    -0.673956382793
           H(Gh)      3.264544513291     0.242658893774     0.801777617207

  Running in c1 symmetry.

  Nuclear repulsion =   56.437112883846510

  Charge       = 0
  Multiplicity = 1
  Electrons    = 26
  Nalpha       = 13
  Nbeta        = 13

  ==> Algorithm <==

  SCF Algorithm Type is DF.
  DIIS enabled.
  MOM disabled.
  Fractional occupation disabled.
  Guess Type is CORE.
  Energy threshold   = 1.00e-08
  Density threshold  = 1.00e-08
  Integral threshold = 0.00e+00

  ==> Primary Basis <==

  Basis Set: AUG-CC-PVDZ
    Number of shells: 59
    Number of basis function: 127
    Number of Cartesian functions: 133
    Spherical Harmonics?: true
    Max angular momentum: 2

  ==> Pre-Iterations <==

   -------------------------------------------------------
    Irrep   Nso     Nmo     Nalpha   Nbeta   Ndocc  Nsocc
   -------------------------------------------------------
     A        127     127       0       0       0       0
   -------------------------------------------------------
    Total     127     127      13      13      13       0
   -------------------------------------------------------

 OEINTS: Wrapper to libmints.
   by Justin Turney

   Calculation information:
      Number of atoms:                   9
      Number of AO shells:              59
      Number of SO shells:              59
      Number of primitives:            145
      Number of atomic orbitals:       133
      Number of basis functions:       127

      Number of irreps:                  1
      Number of functions per irrep: [ 127 ]

      Overlap, kinetic, potential, dipole, and quadrupole integrals
        stored in file 35.

  ==> Integral Setup <==

  ==> DFJK: Density-Fitted J/K Matrices <==

    J tasked:                  Yes
    K tasked:                  Yes
    wK tasked:                  No
    OpenMP threads:              8
    Integrals threads:           8
    Memory (MB):              5006
    Algorithm:                Core
    Integral Cache:           LOAD
    Schwarz Cutoff:          0E+00
    Fitting Condition:       1E-12

   => Auxiliary Basis Set <=

  Basis Set: aug-cc-pvdz-jkfit
    Number of shells: 168
    Number of basis function: 492
    Number of Cartesian functions: 562
    Spherical Harmonics?: true
    Max angular momentum: 3

  Minimum eigenvalue in the overlap matrix is 4.4002697749E-04.
  Using Symmetric Orthogonalization.
  SCF Guess: Core (One-Electron) Hamiltonian.

  Guess energy:  -319.61632562747491

  ==> Iterations <==

                        Total Energy        Delta E     RMS |[F,P]|

   @RHF iter   1:  -420.24653607638226   -4.20247e+02   2.86133e-02 
   @RHF iter   2:  -422.53171212123453   -2.28518e+00   2.31453e-02 DIIS
   @RHF iter   3:  -435.47368483295213   -1.29420e+01   1.34218e-02 DIIS
   @RHF iter   4:  -437.57918582974980   -2.10550e+00   3.50206e-03 DIIS
   @RHF iter   5:  -437.69737811818885   -1.18192e-01   1.64697e-03 DIIS
   @RHF iter   6:  -437.72831100466885   -3.09329e-02   3.12613e-04 DIIS
   @RHF iter   7:  -437.73010523402252   -1.79423e-03   7.61952e-05 DIIS
   @RHF iter   8:  -437.73021938682240   -1.14153e-04   3.15063e-05 DIIS
   @RHF iter   9:  -437.73023826006494   -1.88732e-05   6.74526e-06 DIIS
   @RHF iter  10:  -437.73023972189736   -1.46183e-06   1.32552e-06 DIIS
   @RHF iter  11:  -437.73023977677354   -5.48762e-08   3.03798e-07 DIIS
   @RHF iter  12:  -437.73023977944314   -2.66959e-09   6.62820e-08 DIIS
   @RHF iter  13:  -437.73023977957587   -1.32729e-10   1.50574e-08 DIIS
   @RHF iter  14:  -437.73023977958331   -7.44649e-12   3.34651e-09 DIIS

  ==> Post-Iterations <==

	Orbital Energies (a.u.)
	-----------------------

	Doubly Occupied:                                                      

	   1A    -91.955870     2A    -11.264700     3A     -8.957773  
	   4A     -6.639926     5A     -6.638556     6A     -6.636342  
	   7A     -1.041055     8A     -0.869135     9A     -0.609342  
	  10A     -0.592498    11A     -0.528170    12A     -0.460691  
	  13A     -0.356784  

	Virtual:                                                              

	  14A      0.029038    15A      0.042745    16A      0.052627  
	  17A      0.060446    18A      0.070604    19A      0.075687  
	  20A      0.115181    21A      0.116869    22A      0.134626  
	  23A      0.148561    24A      0.153750    25A      0.165141  
	  26A      0.169239    27A      0.180430    28A      0.190996  
	  29A      0.197985    30A      0.207515    31A      0.245763  
	  32A      0.263218    33A      0.275723    34A      0.295110  
	  35A      0.302301    36A      0.335361    37A      0.364191  
	  38A      0.371508    39A      0.386113    40A      0.404467  
	  41A      0.406001    42A      0.425197    43A      0.440448  
	  44A      0.456470    45A      0.460696    46A      0.461243  
	  47A      0.490783    48A      0.502547    49A      0.517140  
	  50A      0.519520    51A      0.540702    52A      0.555123  
	  53A      0.557176    54A      0.593388    55A      0.596141  
	  56A      0.619942    57A      0.629044    58A      0.641241  
	  59A      0.641549    60A      0.659421    61A      0.663612  
	  62A      0.678554    63A      0.687238    64A      0.726853  
	  65A      0.772876    66A      0.787262    67A      0.905277  
	  68A      0.943063    69A      0.985982    70A      1.008559  
	  71A      1.029985    72A      1.068443    73A      1.095843  
	  74A      1.114719    75A      1.159010    76A      1.164644  
	  77A      1.196150    78A      1.203371    79A      1.213153  
	  80A      1.234658    81A      1.275616    82A      1.292291  
	  83A      1.303096    84A      1.345387    85A      1.347308  
	  86A      1.389756    87A      1.425207    88A      1.425950  
	  89A      1.443835    90A      1.592101    91A      1.781333  
	  92A      1.783790    93A      1.842762    94A      1.880375  
	  95A      1.938524    96A      1.941181    97A      2.060814  
	  98A      2.062182    99A      2.085917   100A      2.121840  
	 101A      2.219235   102A      2.226047   103A      2.234486  
	 104A      2.278491   105A      2.409514   106A      2.433144  
	 107A      2.454905   108A      2.504049   109A      2.516333  
	 110A      2.563329   111A      2.579454   112A      2.767359  
	 113A      2.847003   114A      2.931054   115A      2.976630  
	 116A      3.451019   117A      3.930286   118A      4.070415  
	 119A      4.947955   120A      4.957770   121A      5.055983  
	 122A      5.134228   123A      5.390921   124A      5.688903  
	 125A      6.626006   126A      7.044234   127A     33.549023  

	Final Occupation by Irrep:
	          A 
	DOCC [    13 ]

  Energy converged.

  @RHF Final Energy:  -437.73023977958331

   => Energetics <=

    Nuclear Repulsion Energy =             56.4371128838465097
    One-Electron Energy =                -715.2330192389347303
    Two-Electron Energy =                 221.0656665755044514
    DFT Exchange-Correlation Energy =       0.0000000000000000
    Empirical Dispersion Energy =           0.0000000000000000
    Total Energy =                       -437.7302397795837123



Properties will be evaluated at   0.000000,   0.000000,   0.000000 Bohr
  ==> Properties <==


Properties computed using the SCF density density matrix
  Nuclear Dipole Moment: (a.u.)
     X:   -50.8819      Y:     0.1226      Z:    -1.2970

  Electronic Dipole Moment: (a.u.)
     X:    51.0503      Y:     0.5166      Z:     1.1637

  Dipole Moment: (a.u.)
     X:     0.1684      Y:     0.6392      Z:    -0.1333     Total:     0.6744

  Dipole Moment: (Debye)
     X:     0.4281      Y:     1.6248      Z:    -0.3388     Total:     1.7140


  Saving occupied orbitals to File 180.

  Saving SAPT 2-MONOMER_A file.

*** tstop() called on node137.bme.utexas.edu at Fri May 16 18:52:40 2014
Module time:
	user time   =      12.15 seconds =       0.20 minutes
	system time =       0.18 seconds =       0.00 minutes
	total time  =          2 seconds =       0.03 minutes
Total time:
	user time   =      31.59 seconds =       0.53 minutes
	system time =       0.54 seconds =       0.01 minutes
	total time  =          5 seconds =       0.08 minutes

  //>>>>>>>>>>>>>>>>>>>>>>>>>>>>>>>>>>>//
  //            Monomer B HF           //
  //<<<<<<<<<<<<<<<<<<<<<<<<<<<<<<<<<<<//


  No DF_BASIS_SCF auxiliary basis selected, defaulting to aug-cc-pvdz-jkfit


*** tstart() called on node137.bme.utexas.edu
*** at Fri May 16 18:52:40 2014


         ---------------------------------------------------------
                                   SCF
            by Justin Turney, Rob Parrish, and Andy Simmonett
                              RHF Reference
                        8 Threads,   7000 MiB Core
         ---------------------------------------------------------

  ==> Geometry <==

    Molecular point group: c1
    Full point group: C1

    Geometry (in Angstrom), charge = 0, multiplicity = 1:

       Center              X                  Y                   Z       
    ------------   -----------------  -----------------  -----------------
           C(Gh)     -1.337703086709     1.086967193774    -0.267182582793
           S(Gh)     -0.935198086709    -0.641367806226     0.114586417207
           H(Gh)      0.393082913291    -0.482602806226     0.113608417207
           H(Gh)     -0.932235086709     1.380697193774    -1.230141582793
           H(Gh)     -0.975629086709     1.754564193774     0.508180417207
           H(Gh)     -2.421354086709     1.152304193774    -0.308284582793
           O          2.707253513291     0.216207893774     0.021107617207
           H          3.301380513291    -0.074686106226    -0.673956382793
           H          3.264544513291     0.242658893774     0.801777617207

  Running in c1 symmetry.

  Nuclear repulsion =    9.174304207448476

  Charge       = 0
  Multiplicity = 1
  Electrons    = 10
  Nalpha       = 5
  Nbeta        = 5

  ==> Algorithm <==

  SCF Algorithm Type is DF.
  DIIS enabled.
  MOM disabled.
  Fractional occupation disabled.
  Guess Type is CORE.
  Energy threshold   = 1.00e-08
  Density threshold  = 1.00e-08
  Integral threshold = 0.00e+00

  ==> Primary Basis <==

  Basis Set: AUG-CC-PVDZ
    Number of shells: 59
    Number of basis function: 127
    Number of Cartesian functions: 133
    Spherical Harmonics?: true
    Max angular momentum: 2

  ==> Pre-Iterations <==

   -------------------------------------------------------
    Irrep   Nso     Nmo     Nalpha   Nbeta   Ndocc  Nsocc
   -------------------------------------------------------
     A        127     127       0       0       0       0
   -------------------------------------------------------
    Total     127     127       5       5       5       0
   -------------------------------------------------------

 OEINTS: Wrapper to libmints.
   by Justin Turney

   Calculation information:
      Number of atoms:                   9
      Number of AO shells:              59
      Number of SO shells:              59
      Number of primitives:            145
      Number of atomic orbitals:       133
      Number of basis functions:       127

      Number of irreps:                  1
      Number of functions per irrep: [ 127 ]

      Overlap, kinetic, potential, dipole, and quadrupole integrals
        stored in file 35.

  ==> Integral Setup <==

  ==> DFJK: Density-Fitted J/K Matrices <==

    J tasked:                  Yes
    K tasked:                  Yes
    wK tasked:                  No
    OpenMP threads:              8
    Integrals threads:           8
    Memory (MB):              5006
    Algorithm:                Core
    Integral Cache:           LOAD
    Schwarz Cutoff:          0E+00
    Fitting Condition:       1E-12

   => Auxiliary Basis Set <=

  Basis Set: aug-cc-pvdz-jkfit
    Number of shells: 168
    Number of basis function: 492
    Number of Cartesian functions: 562
    Spherical Harmonics?: true
    Max angular momentum: 3

  Minimum eigenvalue in the overlap matrix is 4.4002697749E-04.
  Using Symmetric Orthogonalization.
  SCF Guess: Core (One-Electron) Hamiltonian.

  Guess energy:   -58.64893586106460

  ==> Iterations <==

                        Total Energy        Delta E     RMS |[F,P]|

   @RHF iter   1:   -68.48898868689770   -6.84890e+01   2.65035e-02 
   @RHF iter   2:   -65.12448830655966    3.36450e+00   2.03773e-02 DIIS
   @RHF iter   3:   -75.05611950481020   -9.93163e+00   1.24128e-02 DIIS
   @RHF iter   4:   -75.83933638358106   -7.83217e-01   5.41422e-03 DIIS
   @RHF iter   5:   -76.04008106183542   -2.00745e-01   4.42808e-04 DIIS
   @RHF iter   6:   -76.04113796751106   -1.05691e-03   2.15871e-04 DIIS
   @RHF iter   7:   -76.04139648694094   -2.58519e-04   2.53081e-05 DIIS
   @RHF iter   8:   -76.04140159622995   -5.10929e-06   4.02399e-06 DIIS
   @RHF iter   9:   -76.04140182238172   -2.26152e-07   9.21869e-07 DIIS
   @RHF iter  10:   -76.04140183041353   -8.03182e-09   1.72328e-07 DIIS
   @RHF iter  11:   -76.04140183071110   -2.97561e-10   1.37394e-08 DIIS
   @RHF iter  12:   -76.04140183071451   -3.41061e-12   3.12350e-09 DIIS

  ==> Post-Iterations <==

	Orbital Energies (a.u.)
	-----------------------

	Doubly Occupied:                                                      

	   1A    -20.578012     2A     -1.355982     3A     -0.716530  
	   4A     -0.586601     5A     -0.509400  

	Virtual:                                                              

	   6A      0.030242     7A      0.041032     8A      0.053658  
	   9A      0.059567    10A      0.069535    11A      0.073625  
	  12A      0.118155    13A      0.123490    14A      0.125922  
	  15A      0.134801    16A      0.158571    17A      0.161165  
	  18A      0.165152    19A      0.194737    20A      0.200582  
	  21A      0.226642    22A      0.229979    23A      0.273020  
	  24A      0.287937    25A      0.315013    26A      0.331484  
	  27A      0.340181    28A      0.352620    29A      0.382014  
	  30A      0.393603    31A      0.408221    32A      0.412237  
	  33A      0.414862    34A      0.422151    35A      0.431496  
	  36A      0.450774    37A      0.493267    38A      0.495536  
	  39A      0.508700    40A      0.528234    41A      0.532084  
	  42A      0.548852    43A      0.586068    44A      0.606716  
	  45A      0.624027    46A      0.635856    47A      0.647559  
	  48A      0.663076    49A      0.670141    50A      0.705422  
	  51A      0.722374    52A      0.731899    53A      0.732841  
	  54A      0.790487    55A      0.800788    56A      0.804927  
	  57A      0.810899    58A      0.841130    59A      0.845967  
	  60A      0.855883    61A      0.868186    62A      0.890780  
	  63A      0.901167    64A      0.945072    65A      0.947860  
	  66A      0.976126    67A      1.070624    68A      1.157204  
	  69A      1.201367    70A      1.257295    71A      1.357584  
	  72A      1.508753    73A      1.529871    74A      1.725888  
	  75A      1.762066    76A      1.822800    77A      1.842994  
	  78A      1.845477    79A      1.923504    80A      1.942168  
	  81A      1.966398    82A      2.018235    83A      2.026778  
	  84A      2.045328    85A      2.060130    86A      2.081355  
	  87A      2.091733    88A      2.138323    89A      2.164854  
	  90A      2.270110    91A      2.287006    92A      2.311406  
	  93A      2.341834    94A      2.359343    95A      2.373013  
	  96A      2.411980    97A      2.470500    98A      2.504131  
	  99A      2.586827   100A      2.624392   101A      2.636863  
	 102A      2.674484   103A      2.739932   104A      2.771177  
	 105A      2.840544   106A      2.931048   107A      3.005785  
	 108A      3.007297   109A      3.028717   110A      3.192386  
	 111A      3.202214   112A      3.230314   113A      3.329093  
	 114A      3.706916   115A      3.731509   116A      3.812826  
	 117A      4.057465   118A      4.212639   119A      4.326645  
	 120A      5.134830   121A      5.137237   122A      6.811461  
	 123A     18.408269   124A     20.419067   125A     20.756724  
	 126A     21.004405   127A    138.000799  

	Final Occupation by Irrep:
	          A 
	DOCC [     5 ]

  Energy converged.

  @RHF Final Energy:   -76.04140183071451

   => Energetics <=

    Nuclear Repulsion Energy =              9.1743042074484755
    One-Electron Energy =                -122.9383595986010818
    Two-Electron Energy =                  37.7226535604380615
    DFT Exchange-Correlation Energy =       0.0000000000000000
    Empirical Dispersion Energy =           0.0000000000000000
    Total Energy =                        -76.0414018307145483



Properties will be evaluated at   0.000000,   0.000000,   0.000000 Bohr
  ==> Properties <==


Properties computed using the SCF density density matrix
  Nuclear Dipole Moment: (a.u.)
     X:    53.3355      Y:     3.5860      Z:     0.5606

  Electronic Dipole Moment: (a.u.)
     X:   -52.5669      Y:    -3.7626      Z:    -0.5035

  Dipole Moment: (a.u.)
     X:     0.7686      Y:    -0.1766      Z:     0.0572     Total:     0.7907

  Dipole Moment: (Debye)
     X:     1.9537      Y:    -0.4490      Z:     0.1453     Total:     2.0099


  Saving occupied orbitals to File 180.

  Saving SAPT 2-MONOMER_B file.

*** tstop() called on node137.bme.utexas.edu at Fri May 16 18:52:41 2014
Module time:
	user time   =      10.79 seconds =       0.18 minutes
	system time =       0.16 seconds =       0.00 minutes
	total time  =          1 seconds =       0.02 minutes
Total time:
	user time   =      42.56 seconds =       0.71 minutes
	system time =       0.70 seconds =       0.01 minutes
	total time  =          6 seconds =       0.10 minutes
  No DF_BASIS_SAPT auxiliary basis selected, defaulting to aug-cc-pvdz-ri

  //>>>>>>>>>>>>>>>>>>>>>>>>>>>>>>>>>>>//
  //               SAPT2+              //
  //<<<<<<<<<<<<<<<<<<<<<<<<<<<<<<<<<<<//


*** tstart() called on node137.bme.utexas.edu
*** at Fri May 16 18:52:41 2014

        SAPT2+  
    Ed Hohenstein
     6 June 2009

      Orbital Information
  --------------------------
    NSO        =       127
    NMO        =       127
    NRI        =       374
    NOCC A     =        13
    NOCC B     =         5
    FOCC A     =         6
    FOCC B     =         1
    NVIR A     =       114
    NVIR B     =       122

    Estimated memory usage: 104.9 MB

    Elst10,r            =    -0.004306765110 H
    Exch10 (S^2)        =     0.003335767332 H
    Exch10              =     0.003345104215 H
    Ind20,r (A<-B)      =    -0.000853013567 H
    Ind20,r (B<-A)      =    -0.000370458888 H
    Ind20,r             =    -0.001223472455 H
    Exch-Ind20,r (A<-B) =     0.000418855931 H
    Exch-Ind20,r (B<-A) =     0.000169461252 H
    Exch-Ind20,r        =     0.000588317182 H
    Disp20              =    -0.002193850630 H
    Exch-Disp20         =     0.000261772900 H
    Elst12,r            =     0.000030461940 H
    Exch11              =     0.000013222816 H
    Exch12              =     0.000507694984 H
    Ind22               =    -0.000103478367 H
    Disp21              =     0.000170480542 H
    Disp22 (SDQ)        =    -0.000037840333 H

    (i =   1 of   4)          5 seconds
    (i =   2 of   4)         10 seconds
    (i =   3 of   4)         15 seconds
    (i =   4 of   4)         20 seconds

    Disp220 (T)         =    -0.000139736964 H

    (i =   1 of   7)          3 seconds
    (i =   2 of   7)          7 seconds
    (i =   3 of   7)         10 seconds
    (i =   4 of   7)         13 seconds
    (i =   5 of   7)         16 seconds
    (i =   6 of   7)         20 seconds
    (i =   7 of   7)         23 seconds

    Disp202 (T)         =    -0.000190312201 H

    Disp22 (T)          =    -0.000330049165 H

    SAPT Results  
  -----------------------------------------------------------------------
    Electrostatics          -4.27630317 mH      -2.68342086 kcal mol^-1
      Elst10,r              -4.30676511 mH      -2.70253602 kcal mol^-1
      Elst12,r               0.03046194 mH       0.01911516 kcal mol^-1

    Exchange                 3.86602201 mH       2.42596554 kcal mol^-1
      Exch10                 3.34510422 mH       2.09908467 kcal mol^-1
      Exch10(S^2)            3.33576733 mH       2.09322569 kcal mol^-1
      Exch11(S^2)            0.01322282 mH       0.00829744 kcal mol^-1
      Exch12(S^2)            0.50769498 mH       0.31858343 kcal mol^-1

    Induction               -1.11889233 mH      -0.70211557 kcal mol^-1
      Ind20,r               -1.22347246 mH      -0.76774059 kcal mol^-1
      Ind22                 -0.10347837 mH      -0.06493366 kcal mol^-1
      Exch-Ind20,r           0.58831718 mH       0.36917462 kcal mol^-1
      Exch-Ind22             0.04975846 mH       0.03122390 kcal mol^-1
      delta HF,r (2)        -0.43001715 mH      -0.26983985 kcal mol^-1

    Dispersion              -2.12948669 mH      -1.33627313 kcal mol^-1
      Disp20                -2.19385063 mH      -1.37666211 kcal mol^-1
      Disp21                 0.17048054 mH       0.10697816 kcal mol^-1
      Disp22 (SDQ)          -0.03784033 mH      -0.02374517 kcal mol^-1
      Disp22 (T)            -0.33004916 mH      -0.20710899 kcal mol^-1
      Exch-Disp20            0.26177290 mH       0.16426498 kcal mol^-1

    Total HF                -2.02683332 mH      -1.27185716 kcal mol^-1
    Total SAPT0             -3.95891105 mH      -2.48425429 kcal mol^-1
    Total SAPT2             -3.46125122 mH      -2.17196802 kcal mol^-1
    Total SAPT2+            -3.65866017 mH      -2.29584402 kcal mol^-1

*** tstop() called on node137.bme.utexas.edu at Fri May 16 18:53:45 2014
Module time:
	user time   =     490.71 seconds =       8.18 minutes
	system time =       6.16 seconds =       0.10 minutes
	total time  =         64 seconds =       1.07 minutes
Total time:
	user time   =     533.30 seconds =       8.89 minutes
	system time =       6.86 seconds =       0.11 minutes
	total time  =         70 seconds =       1.17 minutes

*** PSI4 exiting successfully. Buy a developer a beer!
