    -----------------------------------------------------------------------
          PSI4: An Open-Source Ab Initio Electronic Structure Package
                              PSI 4.0.0-beta4 Driver

    J. M. Turney, A. C. Simmonett, R. M. Parrish, E. G. Hohenstein,
    F. A. Evangelista, J. T. Fermann, B. J. Mintz, L. A. Burns, J. J. Wilke,
    M. L. Abrams, N. J. Russ, M. L. Leininger, C. L. Janssen, E. T. Seidl,
    W. D. Allen, H. F. Schaefer, R. A. King, E. F. Valeev, C. D. Sherrill,
    and T. D. Crawford, WIREs Comput. Mol. Sci., (2011) (doi: 10.1002/wcms.93)

                         Additional Contributions by
    A. E. DePrince, M. Saitow, U. Bozkaya, A. Yu. Sokolov
    -----------------------------------------------------------------------

    Process ID:   3945
    PSI4DATADIR: /home/xzhu216/psi4/psi4-install/share/psi

    Using LocalCommunicator (Number of processes = 1)

    Memory level set to 256.000 MB

  ==> Input File <==

--------------------------------------------------------------------------
#psi4
#
memory 7 gb

molecule CH3SH_CH3SH {
0 1
    C     0.794821000    -0.002736000    -0.413600000
    S     0.780279000     1.808498000    -0.282015000
    H     1.198609000     1.874300000     0.985121000
    H     0.053816000    -0.448810000     0.243536000
    H     0.541254000    -0.232542000    -1.444973000
    H     1.782470000    -0.400099000    -0.203580000

--
0 1

    C    -2.810684024     0.457532771    -0.693316816
    S    -2.474474024     0.555359771     1.087284184
    H    -1.463006024     1.425487771     0.981819184
    H    -1.947667024     0.083865771    -1.236189816
    H    -3.108949024     1.423122771    -1.088640816
    H    -3.632379024    -0.242590229    -0.815669816

units angstrom
no_reorient  #important for SAPT in psi4, default
symmetry c1  #important for SAPT in psi4, default
}

set {
basis aug-cc-pVDZ
scf_type DF
freeze_core True
}
energy('sapt2+')
--------------------------------------------------------------------------

  Memory set to   7.000 GiB by Python script.

  //>>>>>>>>>>>>>>>>>>>>>>>>>>>>>>>>>>>//
  //              Dimer HF             //
  //<<<<<<<<<<<<<<<<<<<<<<<<<<<<<<<<<<<//


  No DF_BASIS_SCF auxiliary basis selected, defaulting to aug-cc-pvdz-jkfit


*** tstart() called on node129.bme.utexas.edu
*** at Fri May 16 18:57:57 2014


         ---------------------------------------------------------
                                   SCF
            by Justin Turney, Rob Parrish, and Andy Simmonett
                              RHF Reference
                        8 Threads,   7000 MiB Core
         ---------------------------------------------------------

  ==> Geometry <==

    Molecular point group: c1
    Full point group: C1

    Geometry (in Angstrom), charge = 0, multiplicity = 1:

       Center              X                  Y                   Z       
    ------------   -----------------  -----------------  -----------------
           C          1.680014958625    -0.883351000054    -0.516346607027
           S          1.665472958625     0.927882999946    -0.384761607027
           H          2.083802958625     0.993684999946     0.882374392973
           H          0.939009958625    -1.329425000054     0.140789392973
           H          1.426447958625    -1.113157000054    -1.547719607027
           H          2.667663958625    -1.280714000054    -0.306326607027
           C         -1.925490065375    -0.423082229054    -0.796063423027
           S         -1.589280065375    -0.325255229054     0.984537576973
           H         -0.577812065375     0.544872770946     0.879072576973
           H         -1.062473065375    -0.796749229054    -1.338936423027
           H         -2.223755065375     0.542507770946    -1.191387423027
           H         -2.747185065375    -1.123205229054    -0.918416423027

  Running in c1 symmetry.

  Nuclear repulsion =  209.330763962973521

  Charge       = 0
  Multiplicity = 1
  Electrons    = 52
  Nalpha       = 26
  Nbeta        = 26

  ==> Algorithm <==

  SCF Algorithm Type is DF.
  DIIS enabled.
  MOM disabled.
  Fractional occupation disabled.
  Guess Type is CORE.
  Energy threshold   = 1.00e-08
  Density threshold  = 1.00e-08
  Integral threshold = 0.00e+00

  ==> Primary Basis <==

  Basis Set: AUG-CC-PVDZ
    Number of shells: 80
    Number of basis function: 172
    Number of Cartesian functions: 180
    Spherical Harmonics?: true
    Max angular momentum: 2

  ==> Pre-Iterations <==

   -------------------------------------------------------
    Irrep   Nso     Nmo     Nalpha   Nbeta   Ndocc  Nsocc
   -------------------------------------------------------
     A        172     172       0       0       0       0
   -------------------------------------------------------
    Total     172     172      26      26      26       0
   -------------------------------------------------------

 OEINTS: Wrapper to libmints.
   by Justin Turney

   Calculation information:
      Number of atoms:                  12
      Number of AO shells:              80
      Number of SO shells:              80
      Number of primitives:            212
      Number of atomic orbitals:       180
      Number of basis functions:       172

      Number of irreps:                  1
      Number of functions per irrep: [ 172 ]

      Overlap, kinetic, potential, dipole, and quadrupole integrals
        stored in file 35.

  ==> Integral Setup <==

  ==> DFJK: Density-Fitted J/K Matrices <==

    J tasked:                  Yes
    K tasked:                  Yes
    wK tasked:                  No
    OpenMP threads:              8
    Integrals threads:           8
    Memory (MB):              5006
    Algorithm:                Core
    Integral Cache:           SAVE
    Schwarz Cutoff:          0E+00
    Fitting Condition:       1E-12

   => Auxiliary Basis Set <=

  Basis Set: aug-cc-pvdz-jkfit
    Number of shells: 232
    Number of basis function: 684
    Number of Cartesian functions: 782
    Spherical Harmonics?: true
    Max angular momentum: 3

  Minimum eigenvalue in the overlap matrix is 3.3744185794E-04.
  Using Symmetric Orthogonalization.
  SCF Guess: Core (One-Electron) Hamiltonian.

  Guess energy:  -640.13129071888795

  ==> Iterations <==

                        Total Energy        Delta E     RMS |[F,P]|

   @RHF iter   1:  -842.37760797849239   -8.42378e+02   2.87923e-02 
   @RHF iter   2:  -835.92163821523320    6.45597e+00   2.79873e-02 DIIS
   @RHF iter   3:  -854.90546459246514   -1.89838e+01   2.03195e-02 DIIS
   @RHF iter   4:  -862.37325920429805   -7.46779e+00   1.76894e-02 DIIS
   @RHF iter   5:  -875.14803366289163   -1.27748e+01   3.74372e-03 DIIS
   @RHF iter   6:  -875.40554844905489   -2.57515e-01   1.58540e-03 DIIS
   @RHF iter   7:  -875.44755749976832   -4.20091e-02   5.58751e-04 DIIS
   @RHF iter   8:  -875.45552845973759   -7.97096e-03   2.29982e-04 DIIS
   @RHF iter   9:  -875.45703019432165   -1.50173e-03   5.15873e-05 DIIS
   @RHF iter  10:  -875.45711867398211   -8.84797e-05   1.59054e-05 DIIS
   @RHF iter  11:  -875.45712802545961   -9.35148e-06   4.19278e-06 DIIS
   @RHF iter  12:  -875.45712859231014   -5.66851e-07   1.42407e-06 DIIS
   @RHF iter  13:  -875.45712869520582   -1.02896e-07   3.81476e-07 DIIS
   @RHF iter  14:  -875.45712870305749   -7.85167e-09   1.14181e-07 DIIS
   @RHF iter  15:  -875.45712870377872   -7.21229e-10   3.13304e-08 DIIS
   @RHF iter  16:  -875.45712870384580   -6.70752e-11   9.12230e-09 DIIS

  ==> Post-Iterations <==

	Orbital Energies (a.u.)
	-----------------------

	Doubly Occupied:                                                      

	   1A    -91.963359     2A    -91.946955     3A    -11.266971  
	   4A    -11.260483     5A     -8.965328     6A     -8.949315  
	   7A     -6.647469     8A     -6.646079     9A     -6.643987  
	  10A     -6.631465    11A     -6.630163    12A     -6.628026  
	  13A     -1.049830    14A     -1.034253    15A     -0.875886  
	  16A     -0.863772    17A     -0.618206    18A     -0.612359  
	  19A     -0.597088    20A     -0.579190    21A     -0.534268  
	  22A     -0.522384    23A     -0.466935    24A     -0.457203  
	  25A     -0.363137    26A     -0.351485  

	Virtual:                                                              

	  27A      0.034985    28A      0.042714    29A      0.049074  
	  30A      0.056344    31A      0.065821    32A      0.070556  
	  33A      0.078403    34A      0.101617    35A      0.102681  
	  36A      0.112655    37A      0.129950    38A      0.133552  
	  39A      0.149207    40A      0.152802    41A      0.154838  
	  42A      0.156353    43A      0.169187    44A      0.179636  
	  45A      0.187986    46A      0.190569    47A      0.198583  
	  48A      0.203365    49A      0.216106    50A      0.224088  
	  51A      0.247927    52A      0.255709    53A      0.262693  
	  54A      0.282517    55A      0.290042    56A      0.310553  
	  57A      0.314630    58A      0.328318    59A      0.347428  
	  60A      0.359130    61A      0.377689    62A      0.380981  
	  63A      0.397184    64A      0.402372    65A      0.415607  
	  66A      0.434231    67A      0.446285    68A      0.452495  
	  69A      0.464147    70A      0.475054    71A      0.481498  
	  72A      0.482258    73A      0.499122    74A      0.517735  
	  75A      0.527005    76A      0.532799    77A      0.550391  
	  78A      0.561243    79A      0.567415    80A      0.575544  
	  81A      0.584062    82A      0.599003    83A      0.602448  
	  84A      0.609830    85A      0.619078    86A      0.632872  
	  87A      0.645038    88A      0.651073    89A      0.653275  
	  90A      0.667070    91A      0.681097    92A      0.694682  
	  93A      0.706924    94A      0.718181    95A      0.734392  
	  96A      0.763369    97A      0.774126    98A      0.776437  
	  99A      0.789170   100A      0.802914   101A      0.811427  
	 102A      0.817548   103A      0.827343   104A      0.866731  
	 105A      0.960598   106A      0.983070   107A      1.020266  
	 108A      1.058890   109A      1.071182   110A      1.080892  
	 111A      1.114412   112A      1.135752   113A      1.141306  
	 114A      1.152002   115A      1.172527   116A      1.199371  
	 117A      1.211054   118A      1.224586   119A      1.229096  
	 120A      1.247103   121A      1.254057   122A      1.269810  
	 123A      1.293119   124A      1.301045   125A      1.329490  
	 126A      1.358281   127A      1.420162   128A      1.431371  
	 129A      1.442042   130A      1.474030   131A      1.493671  
	 132A      1.533756   133A      1.548692   134A      1.629361  
	 135A      1.732195   136A      1.765015   137A      1.811135  
	 138A      1.830480   139A      1.840511   140A      1.861942  
	 141A      1.912277   142A      1.935875   143A      1.961930  
	 144A      1.978773   145A      1.993947   146A      2.021568  
	 147A      2.067937   148A      2.115154   149A      2.125427  
	 150A      2.136148   151A      2.153327   152A      2.196118  
	 153A      2.219641   154A      2.236338   155A      2.247558  
	 156A      2.284503   157A      2.312679   158A      2.349453  
	 159A      2.425972   160A      2.471078   161A      2.491170  
	 162A      2.499162   163A      2.551102   164A      2.567116  
	 165A      2.589190   166A      2.601327   167A      2.859022  
	 168A      2.869295   169A      2.975735   170A      2.990307  
	 171A      3.006721   172A      3.026041  

	Final Occupation by Irrep:
	          A 
	DOCC [    26 ]

  Energy converged.

  @RHF Final Energy:  -875.45712870384580

   => Energetics <=

    Nuclear Repulsion Energy =            209.3307639629735206
    One-Electron Energy =               -1623.3645890152070024
    Two-Electron Energy =                 538.5766963483893051
    DFT Exchange-Correlation Energy =       0.0000000000000000
    Empirical Dispersion Energy =           0.0000000000000000
    Total Energy =                       -875.4571287038440914



Properties will be evaluated at   0.000000,   0.000000,   0.000000 Bohr
  ==> Properties <==


Properties computed using the SCF density density matrix
  Nuclear Dipole Moment: (a.u.)
     X:     0.4761      Y:    -3.3235      Z:    -3.1721

  Electronic Dipole Moment: (a.u.)
     X:    -0.1401      Y:     2.9369      Z:     2.7805

  Dipole Moment: (a.u.)
     X:     0.3359      Y:    -0.3867      Z:    -0.3915     Total:     0.6447

  Dipole Moment: (Debye)
     X:     0.8539      Y:    -0.9828      Z:    -0.9952     Total:     1.6387


  Saving occupied orbitals to File 180.

  Saving SAPT 2-DIMER file.

*** tstop() called on node129.bme.utexas.edu at Fri May 16 18:58:04 2014
Module time:
	user time   =      46.12 seconds =       0.77 minutes
	system time =       0.58 seconds =       0.01 minutes
	total time  =          7 seconds =       0.12 minutes
Total time:
	user time   =      46.12 seconds =       0.77 minutes
	system time =       0.58 seconds =       0.01 minutes
	total time  =          7 seconds =       0.12 minutes

  //>>>>>>>>>>>>>>>>>>>>>>>>>>>>>>>>>>>//
  //            Monomer A HF           //
  //<<<<<<<<<<<<<<<<<<<<<<<<<<<<<<<<<<<//


  No DF_BASIS_SCF auxiliary basis selected, defaulting to aug-cc-pvdz-jkfit


*** tstart() called on node129.bme.utexas.edu
*** at Fri May 16 18:58:04 2014


         ---------------------------------------------------------
                                   SCF
            by Justin Turney, Rob Parrish, and Andy Simmonett
                              RHF Reference
                        8 Threads,   7000 MiB Core
         ---------------------------------------------------------

  ==> Geometry <==

    Molecular point group: c1
    Full point group: C1

    Geometry (in Angstrom), charge = 0, multiplicity = 1:

       Center              X                  Y                   Z       
    ------------   -----------------  -----------------  -----------------
           C          1.680014958625    -0.883351000054    -0.516346607027
           S          1.665472958625     0.927882999946    -0.384761607027
           H          2.083802958625     0.993684999946     0.882374392973
           H          0.939009958625    -1.329425000054     0.140789392973
           H          1.426447958625    -1.113157000054    -1.547719607027
           H          2.667663958625    -1.280714000054    -0.306326607027
           C(Gh)     -1.925490065375    -0.423082229054    -0.796063423027
           S(Gh)     -1.589280065375    -0.325255229054     0.984537576973
           H(Gh)     -0.577812065375     0.544872770946     0.879072576973
           H(Gh)     -1.062473065375    -0.796749229054    -1.338936423027
           H(Gh)     -2.223755065375     0.542507770946    -1.191387423027
           H(Gh)     -2.747185065375    -1.123205229054    -0.918416423027

  Running in c1 symmetry.

  Nuclear repulsion =   56.432684484561513

  Charge       = 0
  Multiplicity = 1
  Electrons    = 26
  Nalpha       = 13
  Nbeta        = 13

  ==> Algorithm <==

  SCF Algorithm Type is DF.
  DIIS enabled.
  MOM disabled.
  Fractional occupation disabled.
  Guess Type is CORE.
  Energy threshold   = 1.00e-08
  Density threshold  = 1.00e-08
  Integral threshold = 0.00e+00

  ==> Primary Basis <==

  Basis Set: AUG-CC-PVDZ
    Number of shells: 80
    Number of basis function: 172
    Number of Cartesian functions: 180
    Spherical Harmonics?: true
    Max angular momentum: 2

  ==> Pre-Iterations <==

   -------------------------------------------------------
    Irrep   Nso     Nmo     Nalpha   Nbeta   Ndocc  Nsocc
   -------------------------------------------------------
     A        172     172       0       0       0       0
   -------------------------------------------------------
    Total     172     172      13      13      13       0
   -------------------------------------------------------

 OEINTS: Wrapper to libmints.
   by Justin Turney

   Calculation information:
      Number of atoms:                  12
      Number of AO shells:              80
      Number of SO shells:              80
      Number of primitives:            212
      Number of atomic orbitals:       180
      Number of basis functions:       172

      Number of irreps:                  1
      Number of functions per irrep: [ 172 ]

      Overlap, kinetic, potential, dipole, and quadrupole integrals
        stored in file 35.

  ==> Integral Setup <==

  ==> DFJK: Density-Fitted J/K Matrices <==

    J tasked:                  Yes
    K tasked:                  Yes
    wK tasked:                  No
    OpenMP threads:              8
    Integrals threads:           8
    Memory (MB):              5006
    Algorithm:                Core
    Integral Cache:           LOAD
    Schwarz Cutoff:          0E+00
    Fitting Condition:       1E-12

   => Auxiliary Basis Set <=

  Basis Set: aug-cc-pvdz-jkfit
    Number of shells: 232
    Number of basis function: 684
    Number of Cartesian functions: 782
    Spherical Harmonics?: true
    Max angular momentum: 3

  Minimum eigenvalue in the overlap matrix is 3.3744185794E-04.
  Using Symmetric Orthogonalization.
  SCF Guess: Core (One-Electron) Hamiltonian.

  Guess energy:  -319.84952141953363

  ==> Iterations <==

                        Total Energy        Delta E     RMS |[F,P]|

   @RHF iter   1:  -419.67496905040872   -4.19675e+02   2.14673e-02 
   @RHF iter   2:  -422.47360749149141   -2.79864e+00   1.73334e-02 DIIS
   @RHF iter   3:  -435.31454811722011   -1.28409e+01   1.01699e-02 DIIS
   @RHF iter   4:  -437.58252461965321   -2.26798e+00   2.59466e-03 DIIS
   @RHF iter   5:  -437.70130609225259   -1.18781e-01   1.16866e-03 DIIS
   @RHF iter   6:  -437.72911993567743   -2.78138e-02   2.19528e-04 DIIS
   @RHF iter   7:  -437.73068944453883   -1.56951e-03   5.20263e-05 DIIS
   @RHF iter   8:  -437.73078613756616   -9.66930e-05   2.12271e-05 DIIS
   @RHF iter   9:  -437.73080131628831   -1.51787e-05   4.45220e-06 DIIS
   @RHF iter  10:  -437.73080244856538   -1.13228e-06   8.70120e-07 DIIS
   @RHF iter  11:  -437.73080249207794   -4.35126e-08   2.09092e-07 DIIS
   @RHF iter  12:  -437.73080249455722   -2.47928e-09   4.78335e-08 DIIS
   @RHF iter  13:  -437.73080249469643   -1.39210e-10   1.24152e-08 DIIS
   @RHF iter  14:  -437.73080249470644   -1.00044e-11   3.52925e-09 DIIS

  ==> Post-Iterations <==

	Orbital Energies (a.u.)
	-----------------------

	Doubly Occupied:                                                      

	   1A    -91.956059     2A    -11.264681     3A     -8.957674  
	   4A     -6.639845     5A     -6.638462     6A     -6.636269  
	   7A     -1.040759     8A     -0.868911     9A     -0.609006  
	  10A     -0.593697    11A     -0.527921    12A     -0.459545  
	  13A     -0.356712  

	Virtual:                                                              

	  14A      0.028322    15A      0.042513    16A      0.047000  
	  17A      0.052220    18A      0.066252    19A      0.066880  
	  20A      0.076479    21A      0.096869    22A      0.104925  
	  23A      0.108898    24A      0.119763    25A      0.125516  
	  26A      0.138503    27A      0.143032    28A      0.150329  
	  29A      0.156661    30A      0.163453    31A      0.164192  
	  32A      0.178557    33A      0.184018    34A      0.192775  
	  35A      0.194184    36A      0.201706    37A      0.223626  
	  38A      0.255290    39A      0.273827    40A      0.286226  
	  41A      0.291833    42A      0.316169    43A      0.334443  
	  44A      0.341692    45A      0.359386    46A      0.365616  
	  47A      0.388201    48A      0.390491    49A      0.391536  
	  50A      0.411432    51A      0.413452    52A      0.431175  
	  53A      0.439585    54A      0.453246    55A      0.461088  
	  56A      0.472031    57A      0.481847    58A      0.491029  
	  59A      0.498411    60A      0.508822    61A      0.522593  
	  62A      0.534568    63A      0.543456    64A      0.561418  
	  65A      0.572219    66A      0.576000    67A      0.589758  
	  68A      0.604868    69A      0.611258    70A      0.620269  
	  71A      0.643860    72A      0.648466    73A      0.652584  
	  74A      0.657286    75A      0.664894    76A      0.684342  
	  77A      0.692396    78A      0.717146    79A      0.724858  
	  80A      0.751824    81A      0.757712    82A      0.780928  
	  83A      0.792760    84A      0.803412    85A      0.810319  
	  86A      0.826464    87A      0.833194    88A      0.841462  
	  89A      0.849736    90A      0.873602    91A      0.886270  
	  92A      0.886542    93A      0.896343    94A      0.923362  
	  95A      0.932849    96A      0.965592    97A      1.009724  
	  98A      1.021992    99A      1.062158   100A      1.085901  
	 101A      1.146449   102A      1.150363   103A      1.183861  
	 104A      1.192487   105A      1.225645   106A      1.267590  
	 107A      1.283210   108A      1.287108   109A      1.352033  
	 110A      1.433651   111A      1.457227   112A      1.475261  
	 113A      1.598105   114A      1.716074   115A      1.781900  
	 116A      1.809246   117A      1.841458   118A      1.852780  
	 119A      1.881299   120A      1.900604   121A      1.928151  
	 122A      1.933545   123A      1.963971   124A      1.988283  
	 125A      2.017522   126A      2.030745   127A      2.051920  
	 128A      2.062919   129A      2.075568   130A      2.116722  
	 131A      2.119994   132A      2.135917   133A      2.165567  
	 134A      2.173608   135A      2.229790   136A      2.254802  
	 137A      2.283713   138A      2.313117   139A      2.337524  
	 140A      2.348977   141A      2.361114   142A      2.395499  
	 143A      2.421002   144A      2.424716   145A      2.487152  
	 146A      2.505619   147A      2.549061   148A      2.560000  
	 149A      2.586699   150A      2.600480   151A      2.697562  
	 152A      2.802120   153A      2.879259   154A      2.892384  
	 155A      2.969513   156A      2.999776   157A      3.012812  
	 158A      3.040344   159A      3.056898   160A      3.225059  
	 161A      3.231795   162A      3.308987   163A      3.342568  
	 164A      4.223797   165A      5.135733   166A      5.140891  
	 167A      6.797280   168A     18.407666   169A     20.555197  
	 170A     20.784105   171A     21.009442   172A    137.986783  

	Final Occupation by Irrep:
	          A 
	DOCC [    13 ]

  Energy converged.

  @RHF Final Energy:  -437.73080249470644

   => Energetics <=

    Nuclear Repulsion Energy =             56.4326844845615128
    One-Electron Energy =                -715.2278949916233159
    Two-Electron Energy =                 221.0644080123550168
    DFT Exchange-Correlation Energy =       0.0000000000000000
    Empirical Dispersion Energy =           0.0000000000000000
    Total Energy =                       -437.7308024947068361



Properties will be evaluated at   0.000000,   0.000000,   0.000000 Bohr
  ==> Properties <==


Properties computed using the SCF density density matrix
  Nuclear Dipole Moment: (a.u.)
     X:    82.8543      Y:    12.8811      Z:   -19.0582

  Electronic Dipole Moment: (a.u.)
     X:   -82.7506      Y:   -13.4982      Z:    19.3070

  Dipole Moment: (a.u.)
     X:     0.1037      Y:    -0.6171      Z:     0.2489     Total:     0.6734

  Dipole Moment: (Debye)
     X:     0.2636      Y:    -1.5684      Z:     0.6325     Total:     1.7116


  Saving occupied orbitals to File 180.

  Saving SAPT 2-MONOMER_A file.

*** tstop() called on node129.bme.utexas.edu at Fri May 16 18:58:09 2014
Module time:
	user time   =      28.81 seconds =       0.48 minutes
	system time =       0.34 seconds =       0.01 minutes
	total time  =          5 seconds =       0.08 minutes
Total time:
	user time   =      75.09 seconds =       1.25 minutes
	system time =       0.93 seconds =       0.02 minutes
	total time  =         12 seconds =       0.20 minutes

  //>>>>>>>>>>>>>>>>>>>>>>>>>>>>>>>>>>>//
  //            Monomer B HF           //
  //<<<<<<<<<<<<<<<<<<<<<<<<<<<<<<<<<<<//


  No DF_BASIS_SCF auxiliary basis selected, defaulting to aug-cc-pvdz-jkfit


*** tstart() called on node129.bme.utexas.edu
*** at Fri May 16 18:58:09 2014


         ---------------------------------------------------------
                                   SCF
            by Justin Turney, Rob Parrish, and Andy Simmonett
                              RHF Reference
                        8 Threads,   7000 MiB Core
         ---------------------------------------------------------

  ==> Geometry <==

    Molecular point group: c1
    Full point group: C1

    Geometry (in Angstrom), charge = 0, multiplicity = 1:

       Center              X                  Y                   Z       
    ------------   -----------------  -----------------  -----------------
           C(Gh)      1.680014958625    -0.883351000054    -0.516346607027
           S(Gh)      1.665472958625     0.927882999946    -0.384761607027
           H(Gh)      2.083802958625     0.993684999946     0.882374392973
           H(Gh)      0.939009958625    -1.329425000054     0.140789392973
           H(Gh)      1.426447958625    -1.113157000054    -1.547719607027
           H(Gh)      2.667663958625    -1.280714000054    -0.306326607027
           C         -1.925490065375    -0.423082229054    -0.796063423027
           S         -1.589280065375    -0.325255229054     0.984537576973
           H         -0.577812065375     0.544872770946     0.879072576973
           H         -1.062473065375    -0.796749229054    -1.338936423027
           H         -2.223755065375     0.542507770946    -1.191387423027
           H         -2.747185065375    -1.123205229054    -0.918416423027

  Running in c1 symmetry.

  Nuclear repulsion =   56.451077363382609

  Charge       = 0
  Multiplicity = 1
  Electrons    = 26
  Nalpha       = 13
  Nbeta        = 13

  ==> Algorithm <==

  SCF Algorithm Type is DF.
  DIIS enabled.
  MOM disabled.
  Fractional occupation disabled.
  Guess Type is CORE.
  Energy threshold   = 1.00e-08
  Density threshold  = 1.00e-08
  Integral threshold = 0.00e+00

  ==> Primary Basis <==

  Basis Set: AUG-CC-PVDZ
    Number of shells: 80
    Number of basis function: 172
    Number of Cartesian functions: 180
    Spherical Harmonics?: true
    Max angular momentum: 2

  ==> Pre-Iterations <==

   -------------------------------------------------------
    Irrep   Nso     Nmo     Nalpha   Nbeta   Ndocc  Nsocc
   -------------------------------------------------------
     A        172     172       0       0       0       0
   -------------------------------------------------------
    Total     172     172      13      13      13       0
   -------------------------------------------------------

 OEINTS: Wrapper to libmints.
   by Justin Turney

   Calculation information:
      Number of atoms:                  12
      Number of AO shells:              80
      Number of SO shells:              80
      Number of primitives:            212
      Number of atomic orbitals:       180
      Number of basis functions:       172

      Number of irreps:                  1
      Number of functions per irrep: [ 172 ]

      Overlap, kinetic, potential, dipole, and quadrupole integrals
        stored in file 35.

  ==> Integral Setup <==

  ==> DFJK: Density-Fitted J/K Matrices <==

    J tasked:                  Yes
    K tasked:                  Yes
    wK tasked:                  No
    OpenMP threads:              8
    Integrals threads:           8
    Memory (MB):              5006
    Algorithm:                Core
    Integral Cache:           LOAD
    Schwarz Cutoff:          0E+00
    Fitting Condition:       1E-12

   => Auxiliary Basis Set <=

  Basis Set: aug-cc-pvdz-jkfit
    Number of shells: 232
    Number of basis function: 684
    Number of Cartesian functions: 782
    Spherical Harmonics?: true
    Max angular momentum: 3

  Minimum eigenvalue in the overlap matrix is 3.3744185794E-04.
  Using Symmetric Orthogonalization.
  SCF Guess: Core (One-Electron) Hamiltonian.

  Guess energy:  -319.75705440449565

  ==> Iterations <==

                        Total Energy        Delta E     RMS |[F,P]|

   @RHF iter   1:  -420.02883758596715   -4.20029e+02   2.13610e-02 
   @RHF iter   2:  -422.53166229044029   -2.50282e+00   1.71692e-02 DIIS
   @RHF iter   3:  -435.50373024670989   -1.29721e+01   9.88741e-03 DIIS
   @RHF iter   4:  -437.57844536511629   -2.07472e+00   2.58611e-03 DIIS
   @RHF iter   5:  -437.69708168505190   -1.18636e-01   1.22446e-03 DIIS
   @RHF iter   6:  -437.72853507816490   -3.14534e-02   2.27990e-04 DIIS
   @RHF iter   7:  -437.73030697700221   -1.77190e-03   5.68379e-05 DIIS
   @RHF iter   8:  -437.73042295924370   -1.15982e-04   2.36511e-05 DIIS
   @RHF iter   9:  -437.73044263599832   -1.96768e-05   5.05379e-06 DIIS
   @RHF iter  10:  -437.73044415022605   -1.51423e-06   1.02071e-06 DIIS
   @RHF iter  11:  -437.73044420998940   -5.97634e-08   2.36171e-07 DIIS
   @RHF iter  12:  -437.73044421290660   -2.91720e-09   5.10188e-08 DIIS
   @RHF iter  13:  -437.73044421305281   -1.46201e-10   1.18754e-08 DIIS
   @RHF iter  14:  -437.73044421306054   -7.73070e-12   2.76458e-09 DIIS

  ==> Post-Iterations <==

	Orbital Energies (a.u.)
	-----------------------

	Doubly Occupied:                                                      

	   1A    -91.956195     2A    -11.264485     3A     -8.957923  
	   4A     -6.640071     5A     -6.638717     6A     -6.636496  
	   7A     -1.041159     8A     -0.868674     9A     -0.609461  
	  10A     -0.592392    11A     -0.527016    12A     -0.461318  
	  13A     -0.356742  

	Virtual:                                                              

	  14A      0.026114    15A      0.041103    16A      0.046790  
	  17A      0.054092    18A      0.065105    19A      0.069705  
	  20A      0.078521    21A      0.092245    22A      0.103770  
	  23A      0.107871    24A      0.114357    25A      0.130929  
	  26A      0.132735    27A      0.141952    28A      0.148582  
	  29A      0.150676    30A      0.153268    31A      0.167215  
	  32A      0.177793    33A      0.189318    34A      0.190017  
	  35A      0.194782    36A      0.206370    37A      0.234276  
	  38A      0.252619    39A      0.278516    40A      0.285451  
	  41A      0.299424    42A      0.315213    43A      0.325135  
	  44A      0.343203    45A      0.348991    46A      0.365015  
	  47A      0.368868    48A      0.384718    49A      0.396685  
	  50A      0.402552    51A      0.413756    52A      0.426046  
	  53A      0.436970    54A      0.441299    55A      0.449406  
	  56A      0.458781    57A      0.473019    58A      0.487962  
	  59A      0.505363    60A      0.514083    61A      0.522760  
	  62A      0.536343    63A      0.550821    64A      0.559615  
	  65A      0.567119    66A      0.582513    67A      0.589429  
	  68A      0.600179    69A      0.603239    70A      0.611454  
	  71A      0.640053    72A      0.648205    73A      0.654702  
	  74A      0.664266    75A      0.679157    76A      0.694449  
	  77A      0.701507    78A      0.712366    79A      0.730522  
	  80A      0.751320    81A      0.761364    82A      0.769291  
	  83A      0.784347    84A      0.794472    85A      0.799128  
	  86A      0.816997    87A      0.829493    88A      0.840459  
	  89A      0.858452    90A      0.868721    91A      0.880190  
	  92A      0.884717    93A      0.898173    94A      0.900508  
	  95A      0.952445    96A      0.955349    97A      0.992325  
	  98A      1.045732    99A      1.054303   100A      1.103328  
	 101A      1.108793   102A      1.153894   103A      1.175370  
	 104A      1.192045   105A      1.200278   106A      1.231505  
	 107A      1.262748   108A      1.298844   109A      1.321030  
	 110A      1.426571   111A      1.463272   112A      1.480418  
	 113A      1.525290   114A      1.720862   115A      1.763408  
	 116A      1.814093   117A      1.818694   118A      1.842581  
	 119A      1.894823   120A      1.902929   121A      1.930786  
	 122A      1.952263   123A      1.970704   124A      2.006340  
	 125A      2.016889   126A      2.037347   127A      2.051456  
	 128A      2.067022   129A      2.083503   130A      2.098584  
	 131A      2.107267   132A      2.131424   133A      2.186135  
	 134A      2.220482   135A      2.239246   136A      2.265949  
	 137A      2.299836   138A      2.306276   139A      2.333865  
	 140A      2.343888   141A      2.368475   142A      2.403416  
	 143A      2.411760   144A      2.433924   145A      2.452733  
	 146A      2.504883   147A      2.515929   148A      2.567035  
	 149A      2.595525   150A      2.614058   151A      2.667196  
	 152A      2.802381   153A      2.852807   154A      2.886662  
	 155A      2.976503   156A      2.981424   157A      3.011051  
	 158A      3.017336   159A      3.042896   160A      3.203488  
	 161A      3.242428   162A      3.297761   163A      3.338409  
	 164A      4.214013   165A      5.123166   166A      5.156442  
	 167A      6.777017   168A     18.412147   169A     20.653847  
	 170A     20.752687   171A     21.037135   172A    137.950472  

	Final Occupation by Irrep:
	          A 
	DOCC [    13 ]

  Energy converged.

  @RHF Final Energy:  -437.73044421306054

   => Energetics <=

    Nuclear Repulsion Energy =             56.4510773633826091
    One-Electron Energy =                -715.2617472111990082
    Two-Electron Energy =                 221.0802256347554646
    DFT Exchange-Correlation Energy =       0.0000000000000000
    Empirical Dispersion Energy =           0.0000000000000000
    Total Energy =                       -437.7304442130608777



Properties will be evaluated at   0.000000,   0.000000,   0.000000 Bohr
  ==> Properties <==


Properties computed using the SCF density density matrix
  Nuclear Dipole Moment: (a.u.)
     X:   -82.3782      Y:   -16.2047      Z:    15.8861

  Electronic Dipole Moment: (a.u.)
     X:    82.4949      Y:    16.3704      Z:   -16.5271

  Dipole Moment: (a.u.)
     X:     0.1167      Y:     0.1657      Z:    -0.6410     Total:     0.6723

  Dipole Moment: (Debye)
     X:     0.2967      Y:     0.4212      Z:    -1.6292     Total:     1.7087


  Saving occupied orbitals to File 180.

  Saving SAPT 2-MONOMER_B file.

*** tstop() called on node115.bme.utexas.edu at Fri May 16 18:56:02 2014
Module time:
	user time   =      28.93 seconds =       0.48 minutes
	system time =       0.39 seconds =       0.01 minutes
	total time  =          4 seconds =       0.07 minutes
Total time:
	user time   =     103.47 seconds =       1.72 minutes
	system time =       1.37 seconds =       0.02 minutes
	total time  =         15 seconds =       0.25 minutes
  No DF_BASIS_SAPT auxiliary basis selected, defaulting to aug-cc-pvdz-ri

  //>>>>>>>>>>>>>>>>>>>>>>>>>>>>>>>>>>>//
  //               SAPT2+              //
  //<<<<<<<<<<<<<<<<<<<<<<<<<<<<<<<<<<<//


*** tstart() called on node115.bme.utexas.edu
*** at Fri May 16 18:56:02 2014

        SAPT2+  
    Ed Hohenstein
     6 June 2009

      Orbital Information
  --------------------------
    NSO        =       172
    NMO        =       172
    NRI        =       512
    NOCC A     =        13
    NOCC B     =        13
    FOCC A     =         6
    FOCC B     =         6
    NVIR A     =       159
    NVIR B     =       159

    Estimated memory usage: 206.1 MB

    Elst10,r            =    -0.008652344412 H
    Exch10 (S^2)        =     0.015807935928 H
    Exch10              =     0.015934458248 H
    Ind20,r (A<-B)      =    -0.003470627723 H
    Ind20,r (B<-A)      =    -0.003023831342 H
    Ind20,r             =    -0.006494459065 H
    Exch-Ind20,r (A<-B) =     0.002765189108 H
    Exch-Ind20,r (B<-A) =     0.002554622526 H
    Exch-Ind20,r        =     0.005319811634 H
    Disp20              =    -0.010051857484 H
    Exch-Disp20         =     0.001388890536 H
    Elst12,r            =    -0.000723086587 H
    Exch11              =     0.000642708835 H
    Exch12              =     0.001101660075 H
    Ind22               =    -0.000808823814 H
    Disp21              =     0.001175509074 H
    Disp22 (SDQ)        =     0.000174823506 H

    (i =   1 of   7)         17 seconds
    (i =   2 of   7)         34 seconds
    (i =   3 of   7)         51 seconds
    (i =   4 of   7)         68 seconds
    (i =   5 of   7)         86 seconds
    (i =   6 of   7)        103 seconds
    (i =   7 of   7)        120 seconds

    Disp220 (T)         =    -0.000666973297 H

    (i =   1 of   7)         17 seconds
    (i =   2 of   7)         34 seconds
    (i =   3 of   7)         51 seconds
    (i =   4 of   7)         68 seconds
    (i =   5 of   7)         85 seconds
    (i =   6 of   7)        102 seconds
    (i =   7 of   7)        118 seconds

    Disp202 (T)         =    -0.000687879884 H

    Disp22 (T)          =    -0.001354853182 H

    SAPT Results  
  -----------------------------------------------------------------------
    Electrostatics          -9.37543100 mH      -5.88317202 kcal mol^-1
      Elst10,r              -8.65234441 mH      -5.42942832 kcal mol^-1
      Elst12,r              -0.72308659 mH      -0.45374370 kcal mol^-1

    Exchange                17.67882716 mH      11.09363199 kcal mol^-1
      Exch10                15.93445825 mH       9.99902393 kcal mol^-1
      Exch10(S^2)           15.80793593 mH       9.91962997 kcal mol^-1
      Exch11(S^2)            0.64270884 mH       0.40330590 kcal mol^-1
      Exch12(S^2)            1.10166008 mH       0.69130216 kcal mol^-1

    Induction               -3.31040121 mH      -2.07730821 kcal mol^-1
      Ind20,r               -6.49445907 mH      -4.07533476 kcal mol^-1
      Ind22                 -0.80882381 mH      -0.50754463 kcal mol^-1
      Exch-Ind20,r           5.31981163 mH       3.33823234 kcal mol^-1
      Exch-Ind22             0.66253252 mH       0.41574545 kcal mol^-1
      delta HF,r (2)        -1.98946248 mH      -1.24840661 kcal mol^-1

    Dispersion              -8.66748755 mH      -5.43893078 kcal mol^-1
      Disp20               -10.05185748 mH      -6.30763606 kcal mol^-1
      Disp21                 1.17550907 mH       0.73764311 kcal mol^-1
      Disp22 (SDQ)           0.17482351 mH       0.10970341 kcal mol^-1
      Disp22 (T)            -1.35485318 mH      -0.85018324 kcal mol^-1
      Exch-Disp20            1.38889054 mH       0.87154201 kcal mol^-1

    Total HF                 4.11800392 mH       2.58408658 kcal mol^-1
    Total SAPT0             -4.54496303 mH      -2.85200748 kcal mol^-1
    Total SAPT2             -3.66997200 mH      -2.30294229 kcal mol^-1
    Total SAPT2+            -3.67449260 mH      -2.30577901 kcal mol^-1

*** tstop() called on node129.bme.utexas.edu at Fri May 16 19:03:19 2014
Module time:
	user time   =    2391.28 seconds =      39.85 minutes
	system time =      21.56 seconds =       0.36 minutes
	total time  =        306 seconds =       5.10 minutes
Total time:
	user time   =    2495.72 seconds =      41.60 minutes
	system time =      22.85 seconds =       0.38 minutes
	total time  =        322 seconds =       5.37 minutes

*** PSI4 exiting successfully. Buy a developer a beer!
