    -----------------------------------------------------------------------
          PSI4: An Open-Source Ab Initio Electronic Structure Package
                              PSI 4.0.0-beta4 Driver

    J. M. Turney, A. C. Simmonett, R. M. Parrish, E. G. Hohenstein,
    F. A. Evangelista, J. T. Fermann, B. J. Mintz, L. A. Burns, J. J. Wilke,
    M. L. Abrams, N. J. Russ, M. L. Leininger, C. L. Janssen, E. T. Seidl,
    W. D. Allen, H. F. Schaefer, R. A. King, E. F. Valeev, C. D. Sherrill,
    and T. D. Crawford, WIREs Comput. Mol. Sci., (2011) (doi: 10.1002/wcms.93)

                         Additional Contributions by
    A. E. DePrince, M. Saitow, U. Bozkaya, A. Yu. Sokolov
    -----------------------------------------------------------------------

    Process ID:  20861
    PSI4DATADIR: /home/xzhu216/psi4/psi4-install/share/psi

    Using LocalCommunicator (Number of processes = 1)

    Memory level set to 256.000 MB

  ==> Input File <==

--------------------------------------------------------------------------
#psi4
#
memory 7 gb

molecule CH3SH_CH3SH  {
0 1
    C     0.794821000    -0.002736000    -0.413600000
    S     0.780279000     1.808498000    -0.282015000
    H     1.198609000     1.874300000     0.985121000
    H     0.053816000    -0.448810000     0.243536000
    H     0.541254000    -0.232542000    -1.444973000
    H     1.782470000    -0.400099000    -0.203580000

--
0 1

C    -2.119295185     0.597696440    -0.859391772
    S    -1.783085185     0.695523440     0.921209228
    H    -0.771617185     1.565651440     0.815744228
    H    -1.256278185     0.224029440    -1.402264772
    H    -2.417560185     1.563286440    -1.254715772
    H    -2.940990185    -0.102426560    -0.981744772


units angstrom
no_reorient  #important for SAPT in psi4, default
symmetry c1  #important for SAPT in psi4, default
}

set {
basis aug-cc-pVDZ
scf_type DF
freeze_core True
}
energy('sapt2+')
--------------------------------------------------------------------------

  Memory set to   7.000 GiB by Python script.

  //>>>>>>>>>>>>>>>>>>>>>>>>>>>>>>>>>>>//
  //              Dimer HF             //
  //<<<<<<<<<<<<<<<<<<<<<<<<<<<<<<<<<<<//


  No DF_BASIS_SCF auxiliary basis selected, defaulting to aug-cc-pvdz-jkfit


*** tstart() called on node142.bme.utexas.edu
*** at Fri May 16 18:52:25 2014


         ---------------------------------------------------------
                                   SCF
            by Justin Turney, Rob Parrish, and Andy Simmonett
                              RHF Reference
                        8 Threads,   7000 MiB Core
         ---------------------------------------------------------

  ==> Geometry <==

    Molecular point group: c1
    Full point group: C1

    Geometry (in Angstrom), charge = 0, multiplicity = 1:

       Center              X                  Y                   Z       
    ------------   -----------------  -----------------  -----------------
           C          1.334320539125    -0.953432834554    -0.433309129027
           S          1.319778539125     0.857801165446    -0.301724129027
           H          1.738108539125     0.923603165446     0.965411870973
           H          0.593315539125    -1.399506834554     0.223826870973
           H          1.080753539125    -1.183238834554    -1.464682129027
           H          2.321969539125    -1.350795834554    -0.223289129027
           C         -1.579795645875    -0.353000394554    -0.879100901027
           S         -1.243585645875    -0.255173394554     0.901500098973
           H         -0.232117645875     0.614954605446     0.796035098973
           H         -0.716778645875    -0.726667394554    -1.421973901027
           H         -1.878060645875     0.612589605446    -1.274424901027
           H         -2.401490645875    -1.053123394554    -1.001453901027

  Running in c1 symmetry.

  Nuclear repulsion =  230.553164466695364

  Charge       = 0
  Multiplicity = 1
  Electrons    = 52
  Nalpha       = 26
  Nbeta        = 26

  ==> Algorithm <==

  SCF Algorithm Type is DF.
  DIIS enabled.
  MOM disabled.
  Fractional occupation disabled.
  Guess Type is CORE.
  Energy threshold   = 1.00e-08
  Density threshold  = 1.00e-08
  Integral threshold = 0.00e+00

  ==> Primary Basis <==

  Basis Set: AUG-CC-PVDZ
    Number of shells: 80
    Number of basis function: 172
    Number of Cartesian functions: 180
    Spherical Harmonics?: true
    Max angular momentum: 2

  ==> Pre-Iterations <==

   -------------------------------------------------------
    Irrep   Nso     Nmo     Nalpha   Nbeta   Ndocc  Nsocc
   -------------------------------------------------------
     A        172     172       0       0       0       0
   -------------------------------------------------------
    Total     172     172      26      26      26       0
   -------------------------------------------------------

 OEINTS: Wrapper to libmints.
   by Justin Turney

   Calculation information:
      Number of atoms:                  12
      Number of AO shells:              80
      Number of SO shells:              80
      Number of primitives:            212
      Number of atomic orbitals:       180
      Number of basis functions:       172

      Number of irreps:                  1
      Number of functions per irrep: [ 172 ]

      Overlap, kinetic, potential, dipole, and quadrupole integrals
        stored in file 35.

  ==> Integral Setup <==

  ==> DFJK: Density-Fitted J/K Matrices <==

    J tasked:                  Yes
    K tasked:                  Yes
    wK tasked:                  No
    OpenMP threads:              8
    Integrals threads:           8
    Memory (MB):              5006
    Algorithm:                Core
    Integral Cache:           SAVE
    Schwarz Cutoff:          0E+00
    Fitting Condition:       1E-12

   => Auxiliary Basis Set <=

  Basis Set: aug-cc-pvdz-jkfit
    Number of shells: 232
    Number of basis function: 684
    Number of Cartesian functions: 782
    Spherical Harmonics?: true
    Max angular momentum: 3

  Minimum eigenvalue in the overlap matrix is 1.9934112372E-04.
  Using Symmetric Orthogonalization.
  SCF Guess: Core (One-Electron) Hamiltonian.

  Guess energy:  -641.94690603158165

  ==> Iterations <==

                        Total Energy        Delta E     RMS |[F,P]|

   @RHF iter   1:  -841.69038801488273   -8.41690e+02   2.87632e-02 
   @RHF iter   2:  -831.11771152037159    1.05727e+01   3.09965e-02 DIIS
   @RHF iter   3:  -858.54110311397858   -2.74234e+01   1.93878e-02 DIIS
   @RHF iter   4:  -860.22327851694399   -1.68218e+00   2.26232e-02 DIIS
   @RHF iter   5:  -875.13720279987137   -1.49139e+01   3.46167e-03 DIIS
   @RHF iter   6:  -875.36852790617468   -2.31325e-01   1.34230e-03 DIIS
   @RHF iter   7:  -875.39946695654453   -3.09391e-02   6.06718e-04 DIIS
   @RHF iter   8:  -875.40890527810598   -9.43832e-03   1.55628e-04 DIIS
   @RHF iter   9:  -875.40968022711263   -7.74949e-04   5.04465e-05 DIIS
   @RHF iter  10:  -875.40976527756948   -8.50505e-05   1.35016e-05 DIIS
   @RHF iter  11:  -875.40977377362992   -8.49606e-06   4.05769e-06 DIIS
   @RHF iter  12:  -875.40977447931095   -7.05681e-07   1.49863e-06 DIIS
   @RHF iter  13:  -875.40977459071064   -1.11400e-07   4.97402e-07 DIIS
   @RHF iter  14:  -875.40977459952319   -8.81255e-09   1.02636e-07 DIIS
   @RHF iter  15:  -875.40977460006616   -5.42968e-10   2.60555e-08 DIIS
   @RHF iter  16:  -875.40977460010845   -4.22915e-11   9.08114e-09 DIIS

  ==> Post-Iterations <==

	Orbital Energies (a.u.)
	-----------------------

	Doubly Occupied:                                                      

	   1A    -91.967928     2A    -91.927180     3A    -11.263914  
	   4A    -11.254845     5A     -8.971584     6A     -8.931853  
	   7A     -6.653414     8A     -6.652050     9A     -6.650425  
	  10A     -6.613835    11A     -6.612729    12A     -6.610693  
	  13A     -1.073264    14A     -1.020123    15A     -0.891215  
	  16A     -0.858295    17A     -0.641457    18A     -0.618691  
	  19A     -0.598091    20A     -0.560038    21A     -0.539166  
	  22A     -0.524450    23A     -0.474705    24A     -0.460344  
	  25A     -0.346941    26A     -0.338304  

	Virtual:                                                              

	  27A      0.035211    28A      0.042614    29A      0.048856  
	  30A      0.056998    31A      0.067481    32A      0.073023  
	  33A      0.078409    34A      0.098742    35A      0.104159  
	  36A      0.111438    37A      0.133973    38A      0.138111  
	  39A      0.149644    40A      0.150482    41A      0.157185  
	  42A      0.161242    43A      0.168311    44A      0.182243  
	  45A      0.186553    46A      0.195248    47A      0.200959  
	  48A      0.204102    49A      0.212848    50A      0.234389  
	  51A      0.248371    52A      0.263152    53A      0.275777  
	  54A      0.293636    55A      0.305376    56A      0.315120  
	  57A      0.324960    58A      0.355055    59A      0.364688  
	  60A      0.375670    61A      0.387070    62A      0.394805  
	  63A      0.412893    64A      0.413798    65A      0.421382  
	  66A      0.442521    67A      0.455339    68A      0.471863  
	  69A      0.475928    70A      0.489694    71A      0.501780  
	  72A      0.508007    73A      0.514857    74A      0.529949  
	  75A      0.539702    76A      0.553898    77A      0.562697  
	  78A      0.569969    79A      0.586515    80A      0.589649  
	  81A      0.595039    82A      0.607937    83A      0.624404  
	  84A      0.634635    85A      0.643960    86A      0.648042  
	  87A      0.667684    88A      0.679051    89A      0.693376  
	  90A      0.702925    91A      0.716351    92A      0.733788  
	  93A      0.734143    94A      0.749363    95A      0.766974  
	  96A      0.780073    97A      0.804050    98A      0.808368  
	  99A      0.815173   100A      0.830224   101A      0.843369  
	 102A      0.844881   103A      0.864207   104A      0.865678  
	 105A      0.979741   106A      1.047160   107A      1.056292  
	 108A      1.092452   109A      1.119810   110A      1.126843  
	 111A      1.150377   112A      1.163763   113A      1.177993  
	 114A      1.193970   115A      1.214371   116A      1.217846  
	 117A      1.225865   118A      1.238249   119A      1.245443  
	 120A      1.271735   121A      1.294601   122A      1.321274  
	 123A      1.339802   124A      1.345734   125A      1.379419  
	 126A      1.400278   127A      1.438303   128A      1.461116  
	 129A      1.488999   130A      1.511766   131A      1.553160  
	 132A      1.604183   133A      1.670175   134A      1.697880  
	 135A      1.745454   136A      1.795537   137A      1.805680  
	 138A      1.850416   139A      1.866569   140A      1.894115  
	 141A      1.927174   142A      1.961396   143A      1.984793  
	 144A      1.995070   145A      2.005655   146A      2.051022  
	 147A      2.091564   148A      2.114558   149A      2.122268  
	 150A      2.173633   151A      2.214613   152A      2.232204  
	 153A      2.249199   154A      2.268444   155A      2.285066  
	 156A      2.338448   157A      2.369597   158A      2.407396  
	 159A      2.458467   160A      2.484440   161A      2.535059  
	 162A      2.576406   163A      2.595771   164A      2.628362  
	 165A      2.644911   166A      2.760343   167A      2.877189  
	 168A      2.885800   169A      2.993393   170A      3.036369  
	 171A      3.039617   172A      3.126180  

	Final Occupation by Irrep:
	          A 
	DOCC [    26 ]

  Energy converged.

  @RHF Final Energy:  -875.40977460010845

   => Energetics <=

    Nuclear Repulsion Energy =            230.5531644666953639
    One-Electron Energy =               -1665.8148126690666686
    Two-Electron Energy =                 559.8518736022635949
    DFT Exchange-Correlation Energy =       0.0000000000000000
    Empirical Dispersion Energy =           0.0000000000000000
    Total Energy =                       -875.4097746001077667



Properties will be evaluated at   0.000000,   0.000000,   0.000000 Bohr
  ==> Properties <==


Properties computed using the SCF density density matrix
  Nuclear Dipole Moment: (a.u.)
     X:     0.4761      Y:    -3.3235      Z:    -3.1721

  Electronic Dipole Moment: (a.u.)
     X:     0.0239      Y:     3.0022      Z:     2.7505

  Dipole Moment: (a.u.)
     X:     0.5000      Y:    -0.3214      Z:    -0.4216     Total:     0.7287

  Dipole Moment: (Debye)
     X:     1.2709      Y:    -0.8168      Z:    -1.0716     Total:     1.8522


  Saving occupied orbitals to File 180.

  Saving SAPT 2-DIMER file.

*** tstop() called on node142.bme.utexas.edu at Fri May 16 18:52:33 2014
Module time:
	user time   =      46.37 seconds =       0.77 minutes
	system time =       0.88 seconds =       0.01 minutes
	total time  =          8 seconds =       0.13 minutes
Total time:
	user time   =      46.37 seconds =       0.77 minutes
	system time =       0.88 seconds =       0.01 minutes
	total time  =          8 seconds =       0.13 minutes

  //>>>>>>>>>>>>>>>>>>>>>>>>>>>>>>>>>>>//
  //            Monomer A HF           //
  //<<<<<<<<<<<<<<<<<<<<<<<<<<<<<<<<<<<//


  No DF_BASIS_SCF auxiliary basis selected, defaulting to aug-cc-pvdz-jkfit


*** tstart() called on node142.bme.utexas.edu
*** at Fri May 16 18:52:33 2014


         ---------------------------------------------------------
                                   SCF
            by Justin Turney, Rob Parrish, and Andy Simmonett
                              RHF Reference
                        8 Threads,   7000 MiB Core
         ---------------------------------------------------------

  ==> Geometry <==

    Molecular point group: c1
    Full point group: C1

    Geometry (in Angstrom), charge = 0, multiplicity = 1:

       Center              X                  Y                   Z       
    ------------   -----------------  -----------------  -----------------
           C          1.334320539125    -0.953432834554    -0.433309129027
           S          1.319778539125     0.857801165446    -0.301724129027
           H          1.738108539125     0.923603165446     0.965411870973
           H          0.593315539125    -1.399506834554     0.223826870973
           H          1.080753539125    -1.183238834554    -1.464682129027
           H          2.321969539125    -1.350795834554    -0.223289129027
           C(Gh)     -1.579795645875    -0.353000394554    -0.879100901027
           S(Gh)     -1.243585645875    -0.255173394554     0.901500098973
           H(Gh)     -0.232117645875     0.614954605446     0.796035098973
           H(Gh)     -0.716778645875    -0.726667394554    -1.421973901027
           H(Gh)     -1.878060645875     0.612589605446    -1.274424901027
           H(Gh)     -2.401490645875    -1.053123394554    -1.001453901027

  Running in c1 symmetry.

  Nuclear repulsion =   56.432684484561506

  Charge       = 0
  Multiplicity = 1
  Electrons    = 26
  Nalpha       = 13
  Nbeta        = 13

  ==> Algorithm <==

  SCF Algorithm Type is DF.
  DIIS enabled.
  MOM disabled.
  Fractional occupation disabled.
  Guess Type is CORE.
  Energy threshold   = 1.00e-08
  Density threshold  = 1.00e-08
  Integral threshold = 0.00e+00

  ==> Primary Basis <==

  Basis Set: AUG-CC-PVDZ
    Number of shells: 80
    Number of basis function: 172
    Number of Cartesian functions: 180
    Spherical Harmonics?: true
    Max angular momentum: 2

  ==> Pre-Iterations <==

   -------------------------------------------------------
    Irrep   Nso     Nmo     Nalpha   Nbeta   Ndocc  Nsocc
   -------------------------------------------------------
     A        172     172       0       0       0       0
   -------------------------------------------------------
    Total     172     172      13      13      13       0
   -------------------------------------------------------

 OEINTS: Wrapper to libmints.
   by Justin Turney

   Calculation information:
      Number of atoms:                  12
      Number of AO shells:              80
      Number of SO shells:              80
      Number of primitives:            212
      Number of atomic orbitals:       180
      Number of basis functions:       172

      Number of irreps:                  1
      Number of functions per irrep: [ 172 ]

      Overlap, kinetic, potential, dipole, and quadrupole integrals
        stored in file 35.

  ==> Integral Setup <==

  ==> DFJK: Density-Fitted J/K Matrices <==

    J tasked:                  Yes
    K tasked:                  Yes
    wK tasked:                  No
    OpenMP threads:              8
    Integrals threads:           8
    Memory (MB):              5006
    Algorithm:                Core
    Integral Cache:           LOAD
    Schwarz Cutoff:          0E+00
    Fitting Condition:       1E-12

   => Auxiliary Basis Set <=

  Basis Set: aug-cc-pvdz-jkfit
    Number of shells: 232
    Number of basis function: 684
    Number of Cartesian functions: 782
    Spherical Harmonics?: true
    Max angular momentum: 3

  Minimum eigenvalue in the overlap matrix is 1.9934112372E-04.
  Using Symmetric Orthogonalization.
  SCF Guess: Core (One-Electron) Hamiltonian.

  Guess energy:  -320.08623147266150

  ==> Iterations <==

                        Total Energy        Delta E     RMS |[F,P]|

   @RHF iter   1:  -419.12039729816627   -4.19120e+02   2.18983e-02 
   @RHF iter   2:  -422.17717581217721   -3.05678e+00   1.78905e-02 DIIS
   @RHF iter   3:  -434.32167334647909   -1.21445e+01   1.11098e-02 DIIS
   @RHF iter   4:  -437.51695058338248   -3.19528e+00   3.38030e-03 DIIS
   @RHF iter   5:  -437.71188721272858   -1.94937e-01   9.75535e-04 DIIS
   @RHF iter   6:  -437.73003255369645   -1.81453e-02   1.93817e-04 DIIS
   @RHF iter   7:  -437.73119008102458   -1.15753e-03   4.83088e-05 DIIS
   @RHF iter   8:  -437.73128084081429   -9.07598e-05   1.43105e-05 DIIS
   @RHF iter   9:  -437.73128917553254   -8.33472e-06   3.60341e-06 DIIS
   @RHF iter  10:  -437.73128998448624   -8.08954e-07   9.82358e-07 DIIS
   @RHF iter  11:  -437.73129003945644   -5.49702e-08   2.19593e-07 DIIS
   @RHF iter  12:  -437.73129004284317   -3.38673e-09   5.79430e-08 DIIS
   @RHF iter  13:  -437.73129004308078   -2.37605e-10   1.76434e-08 DIIS
   @RHF iter  14:  -437.73129004310294   -2.21689e-11   6.23361e-09 DIIS

  ==> Post-Iterations <==

	Orbital Energies (a.u.)
	-----------------------

	Doubly Occupied:                                                      

	   1A    -91.956565     2A    -11.264573     3A     -8.957883  
	   4A     -6.640068     5A     -6.638700     6A     -6.636540  
	   7A     -1.040664     8A     -0.868809     9A     -0.608952  
	  10A     -0.593679    11A     -0.527767    12A     -0.459404  
	  13A     -0.356671  

	Virtual:                                                              

	  14A      0.029328    15A      0.043299    16A      0.047652  
	  17A      0.052627    18A      0.068626    19A      0.069376  
	  20A      0.076579    21A      0.097089    22A      0.106833  
	  23A      0.109663    24A      0.122378    25A      0.131115  
	  26A      0.143650    27A      0.146357    28A      0.152815  
	  29A      0.157358    30A      0.163921    31A      0.167576  
	  32A      0.181519    33A      0.186891    34A      0.193558  
	  35A      0.197635    36A      0.209765    37A      0.226157  
	  38A      0.254700    39A      0.285480    40A      0.299922  
	  41A      0.303742    42A      0.330887    43A      0.341937  
	  44A      0.351691    45A      0.371428    46A      0.374547  
	  47A      0.393297    48A      0.395387    49A      0.402347  
	  50A      0.421006    51A      0.428180    52A      0.445369  
	  53A      0.447641    54A      0.462121    55A      0.471986  
	  56A      0.490231    57A      0.501378    58A      0.504767  
	  59A      0.524030    60A      0.532349    61A      0.543672  
	  62A      0.559871    63A      0.567323    64A      0.588813  
	  65A      0.590717    66A      0.600389    67A      0.612224  
	  68A      0.619975    69A      0.643461    70A      0.647380  
	  71A      0.661156    72A      0.675330    73A      0.680929  
	  74A      0.686062    75A      0.693812    76A      0.714661  
	  77A      0.730199    78A      0.750771    79A      0.762279  
	  80A      0.772809    81A      0.793363    82A      0.802690  
	  83A      0.818011    84A      0.830456    85A      0.832630  
	  86A      0.858437    87A      0.865541    88A      0.876931  
	  89A      0.881711    90A      0.897682    91A      0.906166  
	  92A      0.927990    93A      0.935787    94A      0.949122  
	  95A      0.980304    96A      0.998104    97A      1.043297  
	  98A      1.070056    99A      1.104895   100A      1.117011  
	 101A      1.171245   102A      1.211762   103A      1.226367  
	 104A      1.231223   105A      1.267128   106A      1.278944  
	 107A      1.315370   108A      1.348102   109A      1.409431  
	 110A      1.456651   111A      1.497426   112A      1.577394  
	 113A      1.640004   114A      1.763089   115A      1.798984  
	 116A      1.821421   117A      1.853693   118A      1.905962  
	 119A      1.917045   120A      1.932709   121A      1.956023  
	 122A      1.963211   123A      2.003835   124A      2.021320  
	 125A      2.044045   126A      2.064774   127A      2.079350  
	 128A      2.094260   129A      2.125615   130A      2.143943  
	 131A      2.157743   132A      2.174142   133A      2.192053  
	 134A      2.234199   135A      2.265463   136A      2.281437  
	 137A      2.295043   138A      2.335650   139A      2.355191  
	 140A      2.385026   141A      2.413380   142A      2.431824  
	 143A      2.450560   144A      2.481843   145A      2.524076  
	 146A      2.564936   147A      2.596057   148A      2.608780  
	 149A      2.630622   150A      2.664820   151A      2.786830  
	 152A      2.871375   153A      2.936165   154A      2.954931  
	 155A      2.987341   156A      3.025635   157A      3.069326  
	 158A      3.107390   159A      3.162497   160A      3.258332  
	 161A      3.291968   162A      3.402100   163A      3.461189  
	 164A      4.234199   165A      5.146459   166A      5.155840  
	 167A      6.811675   168A     18.433667   169A     20.734512  
	 170A     20.862997   171A     21.042001   172A    138.019359  

	Final Occupation by Irrep:
	          A 
	DOCC [    13 ]

  Energy converged.

  @RHF Final Energy:  -437.73129004310294

   => Energetics <=

    Nuclear Repulsion Energy =             56.4326844845615057
    One-Electron Energy =                -715.2274007240697529
    Two-Electron Energy =                 221.0634261964047766
    DFT Exchange-Correlation Energy =       0.0000000000000000
    Empirical Dispersion Energy =           0.0000000000000000
    Total Energy =                       -437.7312900431035132



Properties will be evaluated at   0.000000,   0.000000,   0.000000 Bohr
  ==> Properties <==


Properties computed using the SCF density density matrix
  Nuclear Dipole Moment: (a.u.)
     X:    65.8693      Y:     9.4378      Z:   -14.9783

  Electronic Dipole Moment: (a.u.)
     X:   -65.7666      Y:   -10.0549      Z:    15.2268

  Dipole Moment: (a.u.)
     X:     0.1027      Y:    -0.6171      Z:     0.2485     Total:     0.6731

  Dipole Moment: (Debye)
     X:     0.2611      Y:    -1.5685      Z:     0.6316     Total:     1.7109


  Saving occupied orbitals to File 180.

  Saving SAPT 2-MONOMER_A file.

*** tstop() called on node142.bme.utexas.edu at Fri May 16 18:52:37 2014
Module time:
	user time   =      28.95 seconds =       0.48 minutes
	system time =       0.44 seconds =       0.01 minutes
	total time  =          4 seconds =       0.07 minutes
Total time:
	user time   =      75.49 seconds =       1.26 minutes
	system time =       1.32 seconds =       0.02 minutes
	total time  =         12 seconds =       0.20 minutes

  //>>>>>>>>>>>>>>>>>>>>>>>>>>>>>>>>>>>//
  //            Monomer B HF           //
  //<<<<<<<<<<<<<<<<<<<<<<<<<<<<<<<<<<<//


  No DF_BASIS_SCF auxiliary basis selected, defaulting to aug-cc-pvdz-jkfit


*** tstart() called on node142.bme.utexas.edu
*** at Fri May 16 18:52:37 2014


         ---------------------------------------------------------
                                   SCF
            by Justin Turney, Rob Parrish, and Andy Simmonett
                              RHF Reference
                        8 Threads,   7000 MiB Core
         ---------------------------------------------------------

  ==> Geometry <==

    Molecular point group: c1
    Full point group: C1

    Geometry (in Angstrom), charge = 0, multiplicity = 1:

       Center              X                  Y                   Z       
    ------------   -----------------  -----------------  -----------------
           C(Gh)      1.334320539125    -0.953432834554    -0.433309129027
           S(Gh)      1.319778539125     0.857801165446    -0.301724129027
           H(Gh)      1.738108539125     0.923603165446     0.965411870973
           H(Gh)      0.593315539125    -1.399506834554     0.223826870973
           H(Gh)      1.080753539125    -1.183238834554    -1.464682129027
           H(Gh)      2.321969539125    -1.350795834554    -0.223289129027
           C         -1.579795645875    -0.353000394554    -0.879100901027
           S         -1.243585645875    -0.255173394554     0.901500098973
           H         -0.232117645875     0.614954605446     0.796035098973
           H         -0.716778645875    -0.726667394554    -1.421973901027
           H         -1.878060645875     0.612589605446    -1.274424901027
           H         -2.401490645875    -1.053123394554    -1.001453901027

  Running in c1 symmetry.

  Nuclear repulsion =   56.451077363382623

  Charge       = 0
  Multiplicity = 1
  Electrons    = 26
  Nalpha       = 13
  Nbeta        = 13

  ==> Algorithm <==

  SCF Algorithm Type is DF.
  DIIS enabled.
  MOM disabled.
  Fractional occupation disabled.
  Guess Type is CORE.
  Energy threshold   = 1.00e-08
  Density threshold  = 1.00e-08
  Integral threshold = 0.00e+00

  ==> Primary Basis <==

  Basis Set: AUG-CC-PVDZ
    Number of shells: 80
    Number of basis function: 172
    Number of Cartesian functions: 180
    Spherical Harmonics?: true
    Max angular momentum: 2

  ==> Pre-Iterations <==

   -------------------------------------------------------
    Irrep   Nso     Nmo     Nalpha   Nbeta   Ndocc  Nsocc
   -------------------------------------------------------
     A        172     172       0       0       0       0
   -------------------------------------------------------
    Total     172     172      13      13      13       0
   -------------------------------------------------------

 OEINTS: Wrapper to libmints.
   by Justin Turney

   Calculation information:
      Number of atoms:                  12
      Number of AO shells:              80
      Number of SO shells:              80
      Number of primitives:            212
      Number of atomic orbitals:       180
      Number of basis functions:       172

      Number of irreps:                  1
      Number of functions per irrep: [ 172 ]

      Overlap, kinetic, potential, dipole, and quadrupole integrals
        stored in file 35.

  ==> Integral Setup <==

  ==> DFJK: Density-Fitted J/K Matrices <==

    J tasked:                  Yes
    K tasked:                  Yes
    wK tasked:                  No
    OpenMP threads:              8
    Integrals threads:           8
    Memory (MB):              5006
    Algorithm:                Core
    Integral Cache:           LOAD
    Schwarz Cutoff:          0E+00
    Fitting Condition:       1E-12

   => Auxiliary Basis Set <=

  Basis Set: aug-cc-pvdz-jkfit
    Number of shells: 232
    Number of basis function: 684
    Number of Cartesian functions: 782
    Spherical Harmonics?: true
    Max angular momentum: 3

  Minimum eigenvalue in the overlap matrix is 1.9934112372E-04.
  Using Symmetric Orthogonalization.
  SCF Guess: Core (One-Electron) Hamiltonian.

  Guess energy:  -319.96176608931614

  ==> Iterations <==

                        Total Energy        Delta E     RMS |[F,P]|

   @RHF iter   1:  -419.56901884001076   -4.19569e+02   2.17548e-02 
   @RHF iter   2:  -422.44070348347725   -2.87168e+00   1.73880e-02 DIIS
   @RHF iter   3:  -435.26072740019811   -1.28200e+01   1.03049e-02 DIIS
   @RHF iter   4:  -437.57414957832179   -2.31342e+00   2.66424e-03 DIIS
   @RHF iter   5:  -437.69856237115226   -1.24413e-01   1.22147e-03 DIIS
   @RHF iter   6:  -437.72906187890811   -3.04995e-02   2.30045e-04 DIIS
   @RHF iter   7:  -437.73080022886211   -1.73835e-03   5.41232e-05 DIIS
   @RHF iter   8:  -437.73090449429719   -1.04265e-04   2.22180e-05 DIIS
   @RHF iter   9:  -437.73092129475305   -1.68005e-05   4.77103e-06 DIIS
   @RHF iter  10:  -437.73092260878258   -1.31403e-06   9.42019e-07 DIIS
   @RHF iter  11:  -437.73092265986963   -5.10871e-08   2.27937e-07 DIIS
   @RHF iter  12:  -437.73092266278650   -2.91686e-09   5.29462e-08 DIIS
   @RHF iter  13:  -437.73092266295646   -1.69962e-10   1.39085e-08 DIIS
   @RHF iter  14:  -437.73092266297090   -1.44382e-11   4.02099e-09 DIIS

  ==> Post-Iterations <==

	Orbital Energies (a.u.)
	-----------------------

	Doubly Occupied:                                                      

	   1A    -91.956609     2A    -11.264334     3A     -8.958091  
	   4A     -6.640247     5A     -6.638899     6A     -6.636706  
	   7A     -1.041053     8A     -0.868567     9A     -0.609353  
	  10A     -0.592393    11A     -0.526855    12A     -0.461167  
	  13A     -0.356737  

	Virtual:                                                              

	  14A      0.027563    15A      0.042048    16A      0.047416  
	  17A      0.054819    18A      0.067262    19A      0.072641  
	  20A      0.079461    21A      0.091008    22A      0.105623  
	  23A      0.111844    24A      0.113050    25A      0.133640  
	  26A      0.140203    27A      0.144314    28A      0.149637  
	  29A      0.154526    30A      0.155001    31A      0.172119  
	  32A      0.181030    33A      0.188370    34A      0.195715  
	  35A      0.203813    36A      0.209829    37A      0.246236  
	  38A      0.254047    39A      0.280655    40A      0.297431  
	  41A      0.301199    42A      0.327363    43A      0.333033  
	  44A      0.351799    45A      0.366048    46A      0.372442  
	  47A      0.379730    48A      0.398692    49A      0.406372  
	  50A      0.412280    51A      0.424507    52A      0.435009  
	  53A      0.445656    54A      0.462513    55A      0.464261  
	  56A      0.474501    57A      0.489055    58A      0.506938  
	  59A      0.531197    60A      0.536610    61A      0.551156  
	  62A      0.566012    63A      0.568324    64A      0.581004  
	  65A      0.595141    66A      0.597630    67A      0.606497  
	  68A      0.621436    69A      0.623128    70A      0.646562  
	  71A      0.663745    72A      0.673740    73A      0.681830  
	  74A      0.703301    75A      0.714240    76A      0.724949  
	  77A      0.729853    78A      0.747633    79A      0.769345  
	  80A      0.781638    81A      0.786442    82A      0.788395  
	  83A      0.807236    84A      0.823240    85A      0.829561  
	  86A      0.836387    87A      0.848750    88A      0.875901  
	  89A      0.884679    90A      0.888314    91A      0.902692  
	  92A      0.911016    93A      0.942735    94A      0.954134  
	  95A      0.971100    96A      1.012906    97A      1.019136  
	  98A      1.063516    99A      1.118367   100A      1.132594  
	 101A      1.159925   102A      1.197000   103A      1.211927  
	 104A      1.226292   105A      1.238412   106A      1.279660  
	 107A      1.301857   108A      1.355885   109A      1.364640  
	 110A      1.461451   111A      1.499432   112A      1.558804  
	 113A      1.577543   114A      1.783618   115A      1.793927  
	 116A      1.834517   117A      1.838576   118A      1.866103  
	 119A      1.891965   120A      1.918743   121A      1.961786  
	 122A      1.970658   123A      2.001714   124A      2.026820  
	 125A      2.039650   126A      2.048333   127A      2.074292  
	 128A      2.097995   129A      2.117238   130A      2.146207  
	 131A      2.158078   132A      2.191328   133A      2.237325  
	 134A      2.243548   135A      2.274157   136A      2.296226  
	 137A      2.327503   138A      2.354549   139A      2.370134  
	 140A      2.389620   141A      2.403260   142A      2.424367  
	 143A      2.453592   144A      2.515773   145A      2.535163  
	 146A      2.554310   147A      2.594201   148A      2.615381  
	 149A      2.644143   150A      2.671734   151A      2.755680  
	 152A      2.847223   153A      2.864191   154A      2.933734  
	 155A      2.999304   156A      3.020070   157A      3.049929  
	 158A      3.085778   159A      3.113913   160A      3.249201  
	 161A      3.328265   162A      3.336344   163A      3.459469  
	 164A      4.239900   165A      5.136082   166A      5.179143  
	 167A      6.794170   168A     18.435995   169A     20.778807  
	 170A     20.836464   171A     21.133678   172A    138.001215  

	Final Occupation by Irrep:
	          A 
	DOCC [    13 ]

  Energy converged.

  @RHF Final Energy:  -437.73092266297090

   => Energetics <=

    Nuclear Repulsion Energy =             56.4510773633826233
    One-Electron Energy =                -715.2619777696888832
    Two-Electron Energy =                 221.0799777433344957
    DFT Exchange-Correlation Energy =       0.0000000000000000
    Empirical Dispersion Energy =           0.0000000000000000
    Total Energy =                       -437.7309226629717500



Properties will be evaluated at   0.000000,   0.000000,   0.000000 Bohr
  ==> Properties <==


Properties computed using the SCF density density matrix
  Nuclear Dipole Moment: (a.u.)
     X:   -65.3932      Y:   -12.7614      Z:    11.8062

  Electronic Dipole Moment: (a.u.)
     X:    65.5103      Y:    12.9269      Z:   -12.4470

  Dipole Moment: (a.u.)
     X:     0.1171      Y:     0.1655      Z:    -0.6408     Total:     0.6721

  Dipole Moment: (Debye)
     X:     0.2977      Y:     0.4206      Z:    -1.6288     Total:     1.7084


  Saving occupied orbitals to File 180.

  Saving SAPT 2-MONOMER_B file.

*** tstop() called on node142.bme.utexas.edu at Fri May 16 18:52:42 2014
Module time:
	user time   =      29.00 seconds =       0.48 minutes
	system time =       0.43 seconds =       0.01 minutes
	total time  =          5 seconds =       0.08 minutes
Total time:
	user time   =     104.51 seconds =       1.74 minutes
	system time =       1.75 seconds =       0.03 minutes
	total time  =         17 seconds =       0.28 minutes
  No DF_BASIS_SAPT auxiliary basis selected, defaulting to aug-cc-pvdz-ri

  //>>>>>>>>>>>>>>>>>>>>>>>>>>>>>>>>>>>//
  //               SAPT2+              //
  //<<<<<<<<<<<<<<<<<<<<<<<<<<<<<<<<<<<//


*** tstart() called on node142.bme.utexas.edu
*** at Fri May 16 18:52:42 2014

        SAPT2+  
    Ed Hohenstein
     6 June 2009

      Orbital Information
  --------------------------
    NSO        =       172
    NMO        =       172
    NRI        =       512
    NOCC A     =        13
    NOCC B     =        13
    FOCC A     =         6
    FOCC B     =         6
    NVIR A     =       159
    NVIR B     =       159

    Estimated memory usage: 206.1 MB

    Elst10,r            =    -0.049618339591 H
    Exch10 (S^2)        =     0.117584996782 H
    Exch10              =     0.123217450712 H
    Ind20,r (A<-B)      =    -0.031880820935 H
    Ind20,r (B<-A)      =    -0.037098519193 H
    Ind20,r             =    -0.068979340129 H
    Exch-Ind20,r (A<-B) =     0.024144606163 H
    Exch-Ind20,r (B<-A) =     0.031507615447 H
    Exch-Ind20,r        =     0.055652221610 H
    Disp20              =    -0.034561258516 H
    Exch-Disp20         =     0.006950578378 H
    Elst12,r            =    -0.003896292999 H
    Exch11              =     0.002588877390 H
    Exch12              =     0.004006755568 H
    Ind22               =    -0.006903774439 H
    Disp21              =     0.004560857092 H
    Disp22 (SDQ)        =     0.000707401183 H

    (i =   1 of   7)         18 seconds
    (i =   2 of   7)         35 seconds
    (i =   3 of   7)         52 seconds
    (i =   4 of   7)         69 seconds
    (i =   5 of   7)         86 seconds
    (i =   6 of   7)        104 seconds
    (i =   7 of   7)        121 seconds

    Disp220 (T)         =    -0.002064534509 H

    (i =   1 of   7)         18 seconds
    (i =   2 of   7)         35 seconds
    (i =   3 of   7)         52 seconds
    (i =   4 of   7)         69 seconds
    (i =   5 of   7)         86 seconds
    (i =   6 of   7)        104 seconds
    (i =   7 of   7)        121 seconds

    Disp202 (T)         =    -0.002138947146 H

    Disp22 (T)          =    -0.004203481655 H

    SAPT Results  
  -----------------------------------------------------------------------
    Electrostatics         -53.51463259 mH     -33.58094034 kcal mol^-1
      Elst10,r             -49.61833959 mH     -31.13597947 kcal mol^-1
      Elst12,r              -3.89629300 mH      -2.44496087 kcal mol^-1

    Exchange               129.81308367 mH      81.45894323 kcal mol^-1
      Exch10               123.21745071 mH      77.32012089 kcal mol^-1
      Exch10(S^2)          117.58499678 mH      73.78570254 kcal mol^-1
      Exch11(S^2)            2.58887739 mH       1.62454516 kcal mol^-1
      Exch12(S^2)            4.00675557 mH       2.51427718 kcal mol^-1

    Induction              -22.49484540 mH     -14.11572919 kcal mol^-1
      Ind20,r              -68.97934013 mH     -43.28519123 kcal mol^-1
      Ind22                 -6.90377444 mH      -4.33218405 kcal mol^-1
      Exch-Ind20,r          55.65222161 mH      34.92229776 kcal mol^-1
      Exch-Ind22             5.56993419 mH       3.49518662 kcal mol^-1
      delta HF,r (2)        -7.83388664 mH      -4.91583829 kcal mol^-1

    Dispersion             -26.54590352 mH     -16.65780664 kcal mol^-1
      Disp20               -34.56125852 mH     -21.68751805 kcal mol^-1
      Disp21                 4.56085709 mH       2.86198115 kcal mol^-1
      Disp22 (SDQ)           0.70740118 mH       0.44390096 kcal mol^-1
      Disp22 (T)            -4.20348166 mH      -2.63772467 kcal mol^-1
      Exch-Disp20            6.95057838 mH       4.36155396 kcal mol^-1

    Total HF                52.43810597 mH      32.90540966 kcal mol^-1
    Total SAPT0             24.82742583 mH      15.57944557 kcal mol^-1
    Total SAPT2             26.19292554 mH      16.43630961 kcal mol^-1
    Total SAPT2+            27.25770216 mH      17.10446705 kcal mol^-1

*** tstop() called on node142.bme.utexas.edu at Fri May 16 18:57:56 2014
Module time:
	user time   =    2427.72 seconds =      40.46 minutes
	system time =      29.02 seconds =       0.48 minutes
	total time  =        314 seconds =       5.23 minutes
Total time:
	user time   =    2532.26 seconds =      42.20 minutes
	system time =      30.77 seconds =       0.51 minutes
	total time  =        331 seconds =       5.52 minutes

*** PSI4 exiting successfully. Buy a developer a beer!
