
    -----------------------------------------------------------------------
          Psi4: An Open-Source Ab Initio Electronic Structure Package
                               Psi4 1.4a2.dev224 

                         Git: Rev {master} e453b16 


    R. M. Parrish, L. A. Burns, D. G. A. Smith, A. C. Simmonett,
    A. E. DePrince III, E. G. Hohenstein, U. Bozkaya, A. Yu. Sokolov,
    R. Di Remigio, R. M. Richard, J. F. Gonthier, A. M. James,
    H. R. McAlexander, A. Kumar, M. Saitow, X. Wang, B. P. Pritchard,
    P. Verma, H. F. Schaefer III, K. Patkowski, R. A. King, E. F. Valeev,
    F. A. Evangelista, J. M. Turney, T. D. Crawford, and C. D. Sherrill,
    J. Chem. Theory Comput. 13(7) pp 3185--3197 (2017).
    (doi: 10.1021/acs.jctc.7b00174)


                         Additional Contributions by
    P. Kraus, H. Kruse, M. H. Lechner, M. C. Schieber, R. A. Shaw,
    A. Alenaizan, R. Galvelis, Z. L. Glick, S. Lehtola, and J. P. Misiewicz

    -----------------------------------------------------------------------


    Psi4 started on: Thursday, 23 April 2020 05:18PM

    Process ID: 121063
    Host:       node58.bme.utexas.edu
    PSIDATADIR: /home/liuchw/anaconda3/envs/psi4env/share/psi4
    Memory:     500.0 MiB
    Threads:    8
    
  ==> Input File <==

--------------------------------------------------------------------------
#Generated by lconvert.py for sapt job

memory 20 GB

molecule  {
0 1
  C      -3.546780   -0.481930    0.591520
  O      -1.627660    0.158050   -1.132410
  S      -2.263920    0.691080    0.115120
  C      -1.152930    0.298440    1.478990
  H      -3.959580   -0.193980    1.555570
  H      -4.312990   -0.438870   -0.178060
  H      -3.103700   -1.475720    0.616600
  H      -1.627580    0.566200    2.420110
  H      -0.916340   -0.762660    1.427500
  H      -0.250770    0.885380    1.327910
--
0 1
  O      -4.559100    3.828760    3.547040
  H      -4.385560    4.255580    2.703740
  H      -4.977230    4.514420    4.072080
units angstrom
no_reorient
symmetry c1
}

set {
scf_type DF
basis aug-cc-pvdz
freeze_core True
guess SAD
}
energy('sapt2+')
--------------------------------------------------------------------------

  Memory set to  18.626 GiB by Python driver.

Scratch directory: /scratch/liuchw/

  //>>>>>>>>>>>>>>>>>>>>>>>>>>>>>>>>>>>//
  //              Dimer HF             //
  //<<<<<<<<<<<<<<<<<<<<<<<<<<<<<<<<<<<//


*** tstart() called on node58.bme.utexas.edu
*** at Thu Apr 23 17:18:09 2020

   => Loading Basis Set <=

    Name: AUG-CC-PVDZ
    Role: ORBITAL
    Keyword: BASIS
    atoms 1, 4        entry C          line   182 file /home/liuchw/anaconda3/envs/psi4env/share/psi4/basis/aug-cc-pvdz.gbs 
    atoms 2, 11       entry O          line   254 file /home/liuchw/anaconda3/envs/psi4env/share/psi4/basis/aug-cc-pvdz.gbs 
    atoms 3           entry S          line   702 file /home/liuchw/anaconda3/envs/psi4env/share/psi4/basis/aug-cc-pvdz.gbs 
    atoms 5-10, 12-13 entry H          line    40 file /home/liuchw/anaconda3/envs/psi4env/share/psi4/basis/aug-cc-pvdz.gbs 


         ---------------------------------------------------------
                                   SCF
               by Justin Turney, Rob Parrish, Andy Simmonett
                          and Daniel G. A. Smith
                              RHF Reference
                        8 Threads,  19073 MiB Core
         ---------------------------------------------------------

  ==> Geometry <==

    Molecular point group: c1
    Full point group: C1

    Geometry (in Angstrom), charge = 0, multiplicity = 1:

       Center              X                  Y                   Z               Mass       
    ------------   -----------------  -----------------  -----------------  -----------------
         C           -0.928142777843    -1.430333069952    -0.254130001296    12.000000000000
         O            0.990977222157    -0.790353069952    -1.978060001296    15.994914619570
         S            0.354717222157    -0.257323069952    -0.730530001296    31.972071174400
         C            1.465707222157    -0.649963069952     0.633339998704    12.000000000000
         H           -1.340942777843    -1.142383069952     0.709919998704     1.007825032230
         H           -1.694352777843    -1.387273069952    -1.023710001296     1.007825032230
         H           -0.485062777843    -2.424123069952    -0.229050001296     1.007825032230
         H            0.991057222157    -0.382203069952     1.574459998704     1.007825032230
         H            1.702297222157    -1.711063069952     0.581849998704     1.007825032230
         H            2.367867222157    -0.063023069952     0.482259998704     1.007825032230
         O           -1.940462777843     2.880356930048     2.701389998704    15.994914619570
         H           -1.766922777843     3.307176930048     1.858089998704     1.007825032230
         H           -2.358592777843     3.566016930048     3.226429998704     1.007825032230

  Running in c1 symmetry.

  Rotational constants: A =      0.16399  B =      0.03299  C =      0.03198 [cm^-1]
  Rotational constants: A =   4916.26548  B =    989.02600  C =    958.58820 [MHz]
  Nuclear repulsion =  233.735450589735478

  Charge       = 0
  Multiplicity = 1
  Electrons    = 52
  Nalpha       = 26
  Nbeta        = 26

  ==> Algorithm <==

  SCF Algorithm Type is DF.
  DIIS enabled.
  MOM disabled.
  Fractional occupation disabled.
  Guess Type is SAD.
  Energy threshold   = 1.00e-08
  Density threshold  = 1.00e-08
  Integral threshold = 0.00e+00

  ==> Primary Basis <==

  Basis Set: AUG-CC-PVDZ
    Blend: AUG-CC-PVDZ
    Number of shells: 87
    Number of basis function: 191
    Number of Cartesian functions: 201
    Spherical Harmonics?: true
    Max angular momentum: 2

   => Loading Basis Set <=

    Name: (AUG-CC-PVDZ AUX)
    Role: JKFIT
    Keyword: DF_BASIS_SCF
    atoms 1, 4        entry C          line   154 file /home/liuchw/anaconda3/envs/psi4env/share/psi4/basis/aug-cc-pvdz-jkfit.gbs 
    atoms 2, 11       entry O          line   270 file /home/liuchw/anaconda3/envs/psi4env/share/psi4/basis/aug-cc-pvdz-jkfit.gbs 
    atoms 3           entry S          line   690 file /home/liuchw/anaconda3/envs/psi4env/share/psi4/basis/aug-cc-pvdz-jkfit.gbs 
    atoms 5-10, 12-13 entry H          line    70 file /home/liuchw/anaconda3/envs/psi4env/share/psi4/basis/aug-cc-pvdz-jkfit.gbs 

  ==> Pre-Iterations <==

   -------------------------------------------------------
    Irrep   Nso     Nmo     Nalpha   Nbeta   Ndocc  Nsocc
   -------------------------------------------------------
     A        191     191       0       0       0       0
   -------------------------------------------------------
    Total     191     191      26      26      26       0
   -------------------------------------------------------

  ==> Integral Setup <==

  ==> DiskDFJK: Density-Fitted J/K Matrices <==

    J tasked:                  Yes
    K tasked:                  Yes
    wK tasked:                  No
    OpenMP threads:              8
    Integrals threads:           8
    Memory [MiB]:            14305
    Algorithm:                Core
    Integral Cache:           SAVE
    Schwarz Cutoff:          1E-12
    Fitting Condition:       1E-10

   => Auxiliary Basis Set <=

  Basis Set: (AUG-CC-PVDZ AUX)
    Blend: AUG-CC-PVDZ-JKFIT
    Number of shells: 248
    Number of basis function: 728
    Number of Cartesian functions: 834
    Spherical Harmonics?: true
    Max angular momentum: 3

  Minimum eigenvalue in the overlap matrix is 2.8547669555E-04.
  Using Symmetric Orthogonalization.

  SCF Guess: Superposition of Atomic Densities via on-the-fly atomic UHF.

  ==> Iterations <==

                           Total Energy        Delta E     RMS |[F,P]|

   @DF-RHF iter SAD:  -626.68146041859575   -6.26681e+02   0.00000e+00 
   @DF-RHF iter   1:  -627.35571695799570   -6.74257e-01   3.89598e-03 DIIS
   @DF-RHF iter   2:  -627.53272199319554   -1.77005e-01   2.52792e-03 DIIS
   @DF-RHF iter   3:  -627.62002791797090   -8.73059e-02   3.88821e-04 DIIS
   @DF-RHF iter   4:  -627.62328528243631   -3.25736e-03   1.60151e-04 DIIS
   @DF-RHF iter   5:  -627.62390253124761   -6.17249e-04   3.73402e-05 DIIS
   @DF-RHF iter   6:  -627.62393526325400   -3.27320e-05   1.05019e-05 DIIS
   @DF-RHF iter   7:  -627.62393901605469   -3.75280e-06   2.75819e-06 DIIS
   @DF-RHF iter   8:  -627.62393944469943   -4.28645e-07   8.90484e-07 DIIS
   @DF-RHF iter   9:  -627.62393949663010   -5.19307e-08   2.27676e-07 DIIS
   @DF-RHF iter  10:  -627.62393949987654   -3.24644e-09   5.95560e-08 DIIS
   @DF-RHF iter  11:  -627.62393950007151   -1.94973e-10   1.63150e-08 DIIS
   @DF-RHF iter  12:  -627.62393950008459   -1.30740e-11   5.41677e-09 DIIS
  Energy and wave function converged.


  ==> Post-Iterations <==

    Orbital Energies [Eh]
    ---------------------

    Doubly Occupied:                                                      

       1A    -92.073055     2A    -20.585725     3A    -20.508735  
       4A    -11.265935     5A    -11.265918     6A     -9.062401  
       7A     -6.744838     8A     -6.744040     9A     -6.741959  
      10A     -1.363297    11A     -1.336436    12A     -1.067014  
      13A     -0.975267    14A     -0.815986    15A     -0.724382  
      16A     -0.642952    17A     -0.627836    18A     -0.619645  
      19A     -0.594515    20A     -0.584423    21A     -0.559391  
      22A     -0.542167    23A     -0.517299    24A     -0.510473  
      25A     -0.412538    26A     -0.363101  

    Virtual:                                                              

      27A      0.028528    28A      0.041414    29A      0.046969  
      30A      0.051966    31A      0.064934    32A      0.068689  
      33A      0.075233    34A      0.079234    35A      0.100183  
      36A      0.129833    37A      0.137149    38A      0.139532  
      39A      0.150035    40A      0.161695    41A      0.166184  
      42A      0.168008    43A      0.174095    44A      0.187698  
      45A      0.193853    46A      0.208943    47A      0.211374  
      48A      0.221244    49A      0.228986    50A      0.232766  
      51A      0.247923    52A      0.256172    53A      0.263898  
      54A      0.272279    55A      0.276939    56A      0.298470  
      57A      0.317160    58A      0.330563    59A      0.331517  
      60A      0.345218    61A      0.346853    62A      0.356015  
      63A      0.377107    64A      0.377740    65A      0.405329  
      66A      0.409044    67A      0.427484    68A      0.433243  
      69A      0.435271    70A      0.441150    71A      0.449087  
      72A      0.456624    73A      0.466600    74A      0.473683  
      75A      0.494477    76A      0.503789    77A      0.508744  
      78A      0.531582    79A      0.546252    80A      0.555520  
      81A      0.564262    82A      0.575321    83A      0.584512  
      84A      0.588267    85A      0.601079    86A      0.604335  
      87A      0.616943    88A      0.638646    89A      0.643910  
      90A      0.649165    91A      0.657622    92A      0.661392  
      93A      0.689500    94A      0.700563    95A      0.716272  
      96A      0.726768    97A      0.747108    98A      0.765344  
      99A      0.771288   100A      0.802712   101A      0.825160  
     102A      0.852614   103A      0.867097   104A      0.870136  
     105A      0.883988   106A      0.948507   107A      0.954213  
     108A      1.012627   109A      1.051034   110A      1.061635  
     111A      1.099505   112A      1.102400   113A      1.109491  
     114A      1.117667   115A      1.138704   116A      1.142290  
     117A      1.154970   118A      1.177817   119A      1.195137  
     120A      1.216531   121A      1.231393   122A      1.272032  
     123A      1.285718   124A      1.301197   125A      1.313587  
     126A      1.336013   127A      1.364427   128A      1.408952  
     129A      1.417678   130A      1.457692   131A      1.470076  
     132A      1.475113   133A      1.484865   134A      1.495249  
     135A      1.533392   136A      1.536573   137A      1.615420  
     138A      1.646873   139A      1.705487   140A      1.775781  
     141A      1.791965   142A      1.817546   143A      1.829367  
     144A      1.902496   145A      1.915496   146A      1.929943  
     147A      1.953131   148A      1.974929   149A      2.008263  
     150A      2.013365   151A      2.057067   152A      2.067614  
     153A      2.109439   154A      2.132873   155A      2.160977  
     156A      2.173933   157A      2.197743   158A      2.218570  
     159A      2.237729   160A      2.245656   161A      2.288430  
     162A      2.313679   163A      2.356315   164A      2.361419  
     165A      2.463249   166A      2.476636   167A      2.499999  
     168A      2.550873   169A      2.609045   170A      2.618299  
     171A      2.633189   172A      2.740111   173A      2.757955  
     174A      2.838705   175A      2.869912   176A      2.913694  
     177A      2.972637   178A      2.979784   179A      3.010961  
     180A      3.028775   181A      3.230726   182A      3.673061  
     183A      3.696027   184A      3.702542   185A      3.744209  
     186A      3.776390   187A      3.815752   188A      3.841930  
     189A      3.883413   190A      4.014323   191A      4.303672  

    Final Occupation by Irrep:
              A 
    DOCC [    26 ]

  @DF-RHF Final Energy:  -627.62393950008459

   => Energetics <=

    Nuclear Repulsion Energy =            233.7354505897354784
    One-Electron Energy =               -1328.2201287729708383
    Two-Electron Energy =                 466.8607386831506005
    Total Energy =                       -627.6239395000845889

Computation Completed


Properties will be evaluated at   0.000000,   0.000000,   0.000000 [a0]

Properties computed using the SCF density matrix

  Nuclear Dipole Moment: [e a0]
     X:    -2.4182      Y:    -0.2188      Z:     6.7155

  Electronic Dipole Moment: [e a0]
     X:     1.6271      Y:     0.8599      Z:    -5.1449

  Dipole Moment: [e a0]
     X:    -0.7912      Y:     0.6410      Z:     1.5705     Total:     1.8718

  Dipole Moment: [D]
     X:    -2.0110      Y:     1.6294      Z:     3.9919     Total:     4.7575


*** tstop() called on node58.bme.utexas.edu at Thu Apr 23 17:18:13 2020
Module time:
	user time   =      26.14 seconds =       0.44 minutes
	system time =       0.98 seconds =       0.02 minutes
	total time  =          4 seconds =       0.07 minutes
Total time:
	user time   =      26.14 seconds =       0.44 minutes
	system time =       0.98 seconds =       0.02 minutes
	total time  =          4 seconds =       0.07 minutes

  //>>>>>>>>>>>>>>>>>>>>>>>>>>>>>>>>>>>//
  //            Monomer A HF           //
  //<<<<<<<<<<<<<<<<<<<<<<<<<<<<<<<<<<<//


*** tstart() called on node58.bme.utexas.edu
*** at Thu Apr 23 17:18:13 2020

   => Loading Basis Set <=

    Name: AUG-CC-PVDZ
    Role: ORBITAL
    Keyword: BASIS
    atoms 1, 4        entry C          line   182 file /home/liuchw/anaconda3/envs/psi4env/share/psi4/basis/aug-cc-pvdz.gbs 
    atoms 2, 11       entry O          line   254 file /home/liuchw/anaconda3/envs/psi4env/share/psi4/basis/aug-cc-pvdz.gbs 
    atoms 3           entry S          line   702 file /home/liuchw/anaconda3/envs/psi4env/share/psi4/basis/aug-cc-pvdz.gbs 
    atoms 5-10, 12-13 entry H          line    40 file /home/liuchw/anaconda3/envs/psi4env/share/psi4/basis/aug-cc-pvdz.gbs 


         ---------------------------------------------------------
                                   SCF
               by Justin Turney, Rob Parrish, Andy Simmonett
                          and Daniel G. A. Smith
                              RHF Reference
                        8 Threads,  19073 MiB Core
         ---------------------------------------------------------

  ==> Geometry <==

    Molecular point group: c1
    Full point group: C1

    Geometry (in Angstrom), charge = 0, multiplicity = 1:

       Center              X                  Y                   Z               Mass       
    ------------   -----------------  -----------------  -----------------  -----------------
         C           -0.928142777843    -1.430333069952    -0.254130001296    12.000000000000
         O            0.990977222157    -0.790353069952    -1.978060001296    15.994914619570
         S            0.354717222157    -0.257323069952    -0.730530001296    31.972071174400
         C            1.465707222157    -0.649963069952     0.633339998704    12.000000000000
         H           -1.340942777843    -1.142383069952     0.709919998704     1.007825032230
         H           -1.694352777843    -1.387273069952    -1.023710001296     1.007825032230
         H           -0.485062777843    -2.424123069952    -0.229050001296     1.007825032230
         H            0.991057222157    -0.382203069952     1.574459998704     1.007825032230
         H            1.702297222157    -1.711063069952     0.581849998704     1.007825032230
         H            2.367867222157    -0.063023069952     0.482259998704     1.007825032230
      Gh(O)          -1.940462777843     2.880356930048     2.701389998704    15.994914619570
      Gh(H)          -1.766922777843     3.307176930048     1.858089998704     1.007825032230
      Gh(H)          -2.358592777843     3.566016930048     3.226429998704     1.007825032230

  Running in c1 symmetry.

  Rotational constants: A =      0.16399  B =      0.03299  C =      0.03198 [cm^-1]
  Rotational constants: A =   4916.26548  B =    989.02600  C =    958.58820 [MHz]
  Nuclear repulsion =  184.467939001781559

  Charge       = 0
  Multiplicity = 1
  Electrons    = 42
  Nalpha       = 21
  Nbeta        = 21

  ==> Algorithm <==

  SCF Algorithm Type is DF.
  DIIS enabled.
  MOM disabled.
  Fractional occupation disabled.
  Guess Type is SAD.
  Energy threshold   = 1.00e-08
  Density threshold  = 1.00e-08
  Integral threshold = 0.00e+00

  ==> Primary Basis <==

  Basis Set: AUG-CC-PVDZ
    Blend: AUG-CC-PVDZ
    Number of shells: 87
    Number of basis function: 191
    Number of Cartesian functions: 201
    Spherical Harmonics?: true
    Max angular momentum: 2

   => Loading Basis Set <=

    Name: (AUG-CC-PVDZ AUX)
    Role: JKFIT
    Keyword: DF_BASIS_SCF
    atoms 1, 4        entry C          line   154 file /home/liuchw/anaconda3/envs/psi4env/share/psi4/basis/aug-cc-pvdz-jkfit.gbs 
    atoms 2, 11       entry O          line   270 file /home/liuchw/anaconda3/envs/psi4env/share/psi4/basis/aug-cc-pvdz-jkfit.gbs 
    atoms 3           entry S          line   690 file /home/liuchw/anaconda3/envs/psi4env/share/psi4/basis/aug-cc-pvdz-jkfit.gbs 
    atoms 5-10, 12-13 entry H          line    70 file /home/liuchw/anaconda3/envs/psi4env/share/psi4/basis/aug-cc-pvdz-jkfit.gbs 

  ==> Pre-Iterations <==

   -------------------------------------------------------
    Irrep   Nso     Nmo     Nalpha   Nbeta   Ndocc  Nsocc
   -------------------------------------------------------
     A        191     191       0       0       0       0
   -------------------------------------------------------
    Total     191     191      21      21      21       0
   -------------------------------------------------------

  ==> Integral Setup <==

  ==> DiskDFJK: Density-Fitted J/K Matrices <==

    J tasked:                  Yes
    K tasked:                  Yes
    wK tasked:                  No
    OpenMP threads:              8
    Integrals threads:           8
    Memory [MiB]:            14305
    Algorithm:                Core
    Integral Cache:           LOAD
    Schwarz Cutoff:          1E-12
    Fitting Condition:       1E-10

   => Auxiliary Basis Set <=

  Basis Set: (AUG-CC-PVDZ AUX)
    Blend: AUG-CC-PVDZ-JKFIT
    Number of shells: 248
    Number of basis function: 728
    Number of Cartesian functions: 834
    Spherical Harmonics?: true
    Max angular momentum: 3

  Minimum eigenvalue in the overlap matrix is 2.8547669555E-04.
  Using Symmetric Orthogonalization.

  SCF Guess: Superposition of Atomic Densities via on-the-fly atomic UHF.

  ==> Iterations <==

                           Total Energy        Delta E     RMS |[F,P]|

   @DF-RHF iter SAD:  -551.21666711730336   -5.51217e+02   0.00000e+00 
   @DF-RHF iter   1:  -551.39566180868746   -1.78995e-01   3.10255e-03 DIIS
   @DF-RHF iter   2:  -551.51951289843055   -1.23851e-01   2.02220e-03 DIIS
   @DF-RHF iter   3:  -551.57757531949665   -5.80624e-02   3.83254e-04 DIIS
   @DF-RHF iter   4:  -551.58070407728155   -3.12876e-03   1.23190e-04 DIIS
   @DF-RHF iter   5:  -551.58116991605561   -4.65839e-04   2.22908e-05 DIIS
   @DF-RHF iter   6:  -551.58118757729994   -1.76612e-05   5.00582e-06 DIIS
   @DF-RHF iter   7:  -551.58118906069149   -1.48339e-06   1.47561e-06 DIIS
   @DF-RHF iter   8:  -551.58118921354321   -1.52852e-07   4.78606e-07 DIIS
   @DF-RHF iter   9:  -551.58118922994913   -1.64059e-08   1.17290e-07 DIIS
   @DF-RHF iter  10:  -551.58118923061113   -6.61998e-10   3.45692e-08 DIIS
   @DF-RHF iter  11:  -551.58118923067229   -6.11635e-11   8.66436e-09 DIIS
  Energy and wave function converged.


  ==> Post-Iterations <==

    Orbital Energies [Eh]
    ---------------------

    Doubly Occupied:                                                      

       1A    -92.076386     2A    -20.511807     3A    -11.270083  
       4A    -11.270066     5A     -9.065717     6A     -6.748141  
       7A     -6.747353     8A     -6.745260     9A     -1.339448  
      10A     -1.070890    11A     -0.979383    12A     -0.819663  
      13A     -0.646873    14A     -0.631987    15A     -0.623589  
      16A     -0.588694    17A     -0.562774    18A     -0.545965  
      19A     -0.513630    20A     -0.415748    21A     -0.366122  

    Virtual:                                                              

      22A      0.023496    23A      0.040174    24A      0.043455  
      25A      0.051885    26A      0.060379    27A      0.069623  
      28A      0.070229    29A      0.075133    30A      0.099656  
      31A      0.117313    32A      0.136438    33A      0.136886  
      34A      0.139392    35A      0.156657    36A      0.161394  
      37A      0.162507    38A      0.163304    39A      0.172027  
      40A      0.184722    41A      0.187264    42A      0.187669  
      43A      0.198870    44A      0.216045    45A      0.226726  
      46A      0.243996    47A      0.251825    48A      0.259820  
      49A      0.264126    50A      0.275623    51A      0.294346  
      52A      0.322644    53A      0.327006    54A      0.336152  
      55A      0.344457    56A      0.369530    57A      0.380411  
      58A      0.394736    59A      0.414493    60A      0.416515  
      61A      0.423634    62A      0.429780    63A      0.432994  
      64A      0.437718    65A      0.442626    66A      0.447267  
      67A      0.454605    68A      0.470073    69A      0.478540  
      70A      0.480474    71A      0.495455    72A      0.503307  
      73A      0.507960    74A      0.534141    75A      0.544884  
      76A      0.557053    77A      0.560193    78A      0.569828  
      79A      0.580587    80A      0.584982    81A      0.599487  
      82A      0.599557    83A      0.612869    84A      0.616407  
      85A      0.640754    86A      0.644905    87A      0.651630  
      88A      0.686289    89A      0.696317    90A      0.709751  
      91A      0.722543    92A      0.743323    93A      0.760434  
      94A      0.767222    95A      0.801291    96A      0.824906  
      97A      0.863168    98A      0.866356    99A      0.869925  
     100A      0.882717   101A      0.884379   102A      0.946783  
     103A      1.009350   104A      1.047824   105A      1.058638  
     106A      1.092744   107A      1.101987   108A      1.102035  
     109A      1.120185   110A      1.141729   111A      1.173281  
     112A      1.189971   113A      1.191605   114A      1.213264  
     115A      1.227133   116A      1.256986   117A      1.269585  
     118A      1.284214   119A      1.302418   120A      1.309804  
     121A      1.315358   122A      1.331824   123A      1.334075  
     124A      1.357014   125A      1.398612   126A      1.406005  
     127A      1.415267   128A      1.461167   129A      1.480890  
     130A      1.491559   131A      1.529557   132A      1.537461  
     133A      1.643359   134A      1.692757   135A      1.771576  
     136A      1.787825   137A      1.813476   138A      1.825361  
     139A      1.894877   140A      1.910753   141A      1.925659  
     142A      1.949930   143A      1.971277   144A      2.038726  
     145A      2.053273   146A      2.063677   147A      2.128253  
     148A      2.156256   149A      2.170166   150A      2.193584  
     151A      2.214131   152A      2.232502   153A      2.241044  
     154A      2.261045   155A      2.284219   156A      2.310063  
     157A      2.357103   158A      2.373861   159A      2.459225  
     160A      2.462622   161A      2.496178   162A      2.547098  
     163A      2.560510   164A      2.605733   165A      2.629534  
     166A      2.700706   167A      2.754108   168A      2.834407  
     169A      2.865417   170A      2.908897   171A      2.968638  
     172A      3.006874   173A      3.024375   174A      3.227554  
     175A      3.374500   176A      3.741381   177A      3.773569  
     178A      3.812746   179A      3.839063   180A      3.880317  
     181A      3.932308   182A      4.012151   183A      4.889718  
     184A      4.936825   185A      4.956622   186A      5.082144  
     187A      5.387314   188A      5.582043   189A      6.589212  
     190A      7.039941   191A     33.541675  

    Final Occupation by Irrep:
              A 
    DOCC [    21 ]

  @DF-RHF Final Energy:  -551.58118923067229

   => Energetics <=

    Nuclear Repulsion Energy =            184.4679390017815592
    One-Electron Energy =               -1125.0190939886056185
    Two-Electron Energy =                 388.9699657561516801
    Total Energy =                       -551.5811892306724076

Computation Completed


Properties will be evaluated at   0.000000,   0.000000,   0.000000 [a0]

Properties computed using the SCF density matrix

  Nuclear Dipole Moment: [e a0]
     X:    34.7134      Y:   -56.7520      Z:   -43.7320

  Electronic Dipole Moment: [e a0]
     X:   -35.3216      Y:    56.6369      Z:    45.4738

  Dipole Moment: [e a0]
     X:    -0.6082      Y:    -0.1150      Z:     1.7418     Total:     1.8485

  Dipole Moment: [D]
     X:    -1.5460      Y:    -0.2923      Z:     4.4271     Total:     4.6984


*** tstop() called on node58.bme.utexas.edu at Thu Apr 23 17:18:16 2020
Module time:
	user time   =      17.59 seconds =       0.29 minutes
	system time =       0.91 seconds =       0.02 minutes
	total time  =          3 seconds =       0.05 minutes
Total time:
	user time   =      43.78 seconds =       0.73 minutes
	system time =       1.90 seconds =       0.03 minutes
	total time  =          7 seconds =       0.12 minutes

  //>>>>>>>>>>>>>>>>>>>>>>>>>>>>>>>>>>>//
  //            Monomer B HF           //
  //<<<<<<<<<<<<<<<<<<<<<<<<<<<<<<<<<<<//


*** tstart() called on node58.bme.utexas.edu
*** at Thu Apr 23 17:18:16 2020

   => Loading Basis Set <=

    Name: AUG-CC-PVDZ
    Role: ORBITAL
    Keyword: BASIS
    atoms 1, 4        entry C          line   182 file /home/liuchw/anaconda3/envs/psi4env/share/psi4/basis/aug-cc-pvdz.gbs 
    atoms 2, 11       entry O          line   254 file /home/liuchw/anaconda3/envs/psi4env/share/psi4/basis/aug-cc-pvdz.gbs 
    atoms 3           entry S          line   702 file /home/liuchw/anaconda3/envs/psi4env/share/psi4/basis/aug-cc-pvdz.gbs 
    atoms 5-10, 12-13 entry H          line    40 file /home/liuchw/anaconda3/envs/psi4env/share/psi4/basis/aug-cc-pvdz.gbs 


         ---------------------------------------------------------
                                   SCF
               by Justin Turney, Rob Parrish, Andy Simmonett
                          and Daniel G. A. Smith
                              RHF Reference
                        8 Threads,  19073 MiB Core
         ---------------------------------------------------------

  ==> Geometry <==

    Molecular point group: c1
    Full point group: C1

    Geometry (in Angstrom), charge = 0, multiplicity = 1:

       Center              X                  Y                   Z               Mass       
    ------------   -----------------  -----------------  -----------------  -----------------
      Gh(C)          -0.928142777843    -1.430333069952    -0.254130001296    12.000000000000
      Gh(O)           0.990977222157    -0.790353069952    -1.978060001296    15.994914619570
      Gh(S)           0.354717222157    -0.257323069952    -0.730530001296    31.972071174400
      Gh(C)           1.465707222157    -0.649963069952     0.633339998704    12.000000000000
      Gh(H)          -1.340942777843    -1.142383069952     0.709919998704     1.007825032230
      Gh(H)          -1.694352777843    -1.387273069952    -1.023710001296     1.007825032230
      Gh(H)          -0.485062777843    -2.424123069952    -0.229050001296     1.007825032230
      Gh(H)           0.991057222157    -0.382203069952     1.574459998704     1.007825032230
      Gh(H)           1.702297222157    -1.711063069952     0.581849998704     1.007825032230
      Gh(H)           2.367867222157    -0.063023069952     0.482259998704     1.007825032230
         O           -1.940462777843     2.880356930048     2.701389998704    15.994914619570
         H           -1.766922777843     3.307176930048     1.858089998704     1.007825032230
         H           -2.358592777843     3.566016930048     3.226429998704     1.007825032230

  Running in c1 symmetry.

  Rotational constants: A =      0.16399  B =      0.03299  C =      0.03198 [cm^-1]
  Rotational constants: A =   4916.26548  B =    989.02600  C =    958.58820 [MHz]
  Nuclear repulsion =    9.167267612121256

  Charge       = 0
  Multiplicity = 1
  Electrons    = 10
  Nalpha       = 5
  Nbeta        = 5

  ==> Algorithm <==

  SCF Algorithm Type is DF.
  DIIS enabled.
  MOM disabled.
  Fractional occupation disabled.
  Guess Type is SAD.
  Energy threshold   = 1.00e-08
  Density threshold  = 1.00e-08
  Integral threshold = 0.00e+00

  ==> Primary Basis <==

  Basis Set: AUG-CC-PVDZ
    Blend: AUG-CC-PVDZ
    Number of shells: 87
    Number of basis function: 191
    Number of Cartesian functions: 201
    Spherical Harmonics?: true
    Max angular momentum: 2

   => Loading Basis Set <=

    Name: (AUG-CC-PVDZ AUX)
    Role: JKFIT
    Keyword: DF_BASIS_SCF
    atoms 1, 4        entry C          line   154 file /home/liuchw/anaconda3/envs/psi4env/share/psi4/basis/aug-cc-pvdz-jkfit.gbs 
    atoms 2, 11       entry O          line   270 file /home/liuchw/anaconda3/envs/psi4env/share/psi4/basis/aug-cc-pvdz-jkfit.gbs 
    atoms 3           entry S          line   690 file /home/liuchw/anaconda3/envs/psi4env/share/psi4/basis/aug-cc-pvdz-jkfit.gbs 
    atoms 5-10, 12-13 entry H          line    70 file /home/liuchw/anaconda3/envs/psi4env/share/psi4/basis/aug-cc-pvdz-jkfit.gbs 

  ==> Pre-Iterations <==

   -------------------------------------------------------
    Irrep   Nso     Nmo     Nalpha   Nbeta   Ndocc  Nsocc
   -------------------------------------------------------
     A        191     191       0       0       0       0
   -------------------------------------------------------
    Total     191     191       5       5       5       0
   -------------------------------------------------------

  ==> Integral Setup <==

  ==> DiskDFJK: Density-Fitted J/K Matrices <==

    J tasked:                  Yes
    K tasked:                  Yes
    wK tasked:                  No
    OpenMP threads:              8
    Integrals threads:           8
    Memory [MiB]:            14305
    Algorithm:                Core
    Integral Cache:           LOAD
    Schwarz Cutoff:          1E-12
    Fitting Condition:       1E-10

   => Auxiliary Basis Set <=

  Basis Set: (AUG-CC-PVDZ AUX)
    Blend: AUG-CC-PVDZ-JKFIT
    Number of shells: 248
    Number of basis function: 728
    Number of Cartesian functions: 834
    Spherical Harmonics?: true
    Max angular momentum: 3

  Minimum eigenvalue in the overlap matrix is 2.8547669555E-04.
  Using Symmetric Orthogonalization.

  SCF Guess: Superposition of Atomic Densities via on-the-fly atomic UHF.

  ==> Iterations <==

                           Total Energy        Delta E     RMS |[F,P]|

   @DF-RHF iter SAD:   -75.46317597600027   -7.54632e+01   0.00000e+00 
   @DF-RHF iter   1:   -75.95697632955161   -4.93800e-01   2.37204e-03 DIIS
   @DF-RHF iter   2:   -76.01016041734876   -5.31841e-02   1.55037e-03 DIIS
   @DF-RHF iter   3:   -76.04084581383366   -3.06854e-02   1.11282e-04 DIIS
   @DF-RHF iter   4:   -76.04122394685190   -3.78133e-04   2.50207e-05 DIIS
   @DF-RHF iter   5:   -76.04124539846573   -2.14516e-05   5.65601e-06 DIIS
   @DF-RHF iter   6:   -76.04124709925657   -1.70079e-06   1.13829e-06 DIIS
   @DF-RHF iter   7:   -76.04124717214202   -7.28855e-08   1.88724e-07 DIIS
   @DF-RHF iter   8:   -76.04124717398901   -1.84698e-09   2.92065e-08 DIIS
   @DF-RHF iter   9:   -76.04124717402787   -3.88667e-11   7.60236e-09 DIIS
  Energy and wave function converged.


  ==> Post-Iterations <==

    Orbital Energies [Eh]
    ---------------------

    Doubly Occupied:                                                      

       1A    -20.578007     2A     -1.355510     3A     -0.716614  
       4A     -0.586129     5A     -0.509336  

    Virtual:                                                              

       6A      0.025040     7A      0.038842     8A      0.044713  
       9A      0.051364    10A      0.066307    11A      0.070165  
      12A      0.078817    13A      0.081245    14A      0.085312  
      15A      0.113135    16A      0.113591    17A      0.135837  
      18A      0.141383    19A      0.150712    20A      0.159392  
      21A      0.161450    22A      0.170298    23A      0.171588  
      24A      0.195130    25A      0.205092    26A      0.209499  
      27A      0.212891    28A      0.232538    29A      0.234923  
      30A      0.243696    31A      0.268951    32A      0.277658  
      33A      0.287199    34A      0.295988    35A      0.314770  
      36A      0.319995    37A      0.335885    38A      0.356127  
      39A      0.360655    40A      0.361273    41A      0.393277  
      42A      0.394174    43A      0.397616    44A      0.416769  
      45A      0.421216    46A      0.440098    47A      0.446038  
      48A      0.447535    49A      0.452996    50A      0.459483  
      51A      0.471436    52A      0.486787    53A      0.513223  
      54A      0.533705    55A      0.534530    56A      0.554349  
      57A      0.554810    58A      0.574498    59A      0.593231  
      60A      0.603487    61A      0.621426    62A      0.622638  
      63A      0.650152    64A      0.666848    65A      0.674855  
      66A      0.675755    67A      0.694487    68A      0.704219  
      69A      0.715375    70A      0.736128    71A      0.745632  
      72A      0.770605    73A      0.779978    74A      0.794178  
      75A      0.797504    76A      0.818307    77A      0.826080  
      78A      0.826566    79A      0.844446    80A      0.851041  
      81A      0.858263    82A      0.877499    83A      0.879412  
      84A      0.898026    85A      0.903991    86A      0.925630  
      87A      0.954643    88A      0.961059    89A      0.964815  
      90A      0.995807    91A      1.024356    92A      1.036998  
      93A      1.053114    94A      1.107836    95A      1.114535  
      96A      1.134674    97A      1.147864    98A      1.151208  
      99A      1.157449   100A      1.264035   101A      1.307288  
     102A      1.325491   103A      1.405766   104A      1.412468  
     105A      1.463528   106A      1.477257   107A      1.482664  
     108A      1.553445   109A      1.625532   110A      1.642282  
     111A      1.862760   112A      1.880568   113A      1.905759  
     114A      1.949477   115A      1.976602   116A      2.016659  
     117A      2.016709   118A      2.036466   119A      2.084780  
     120A      2.113798   121A      2.116562   122A      2.132680  
     123A      2.167757   124A      2.184186   125A      2.221037  
     126A      2.241523   127A      2.270948   128A      2.271142  
     129A      2.284804   130A      2.310889   131A      2.331225  
     132A      2.343995   133A      2.347267   134A      2.362481  
     135A      2.364247   136A      2.381220   137A      2.399946  
     138A      2.410735   139A      2.482775   140A      2.551518  
     141A      2.612465   142A      2.625637   143A      2.627483  
     144A      2.681767   145A      2.740522   146A      2.748121  
     147A      2.779222   148A      2.858009   149A      2.868041  
     150A      2.946797   151A      2.972546   152A      2.987049  
     153A      2.989367   154A      3.028835   155A      3.065163  
     156A      3.080392   157A      3.177281   158A      3.179510  
     159A      3.232293   160A      3.302624   161A      3.355718  
     162A      3.404518   163A      3.524083   164A      3.681355  
     165A      3.704111   166A      3.710699   167A      4.022118  
     168A      4.045317   169A      4.165706   170A      4.311684  
     171A      4.316068   172A      4.906291   173A      4.938663  
     174A      4.985426   175A      5.002935   176A      5.059310  
     177A      5.120077   178A      5.135784   179A      5.158115  
     180A      5.230067   181A      5.938267   182A      6.117548  
     183A      6.272704   184A      6.909266   185A     18.438004  
     186A     18.465414   187A     20.796805   188A     21.021376  
     189A     21.609421   190A     33.500344   191A    138.060589  

    Final Occupation by Irrep:
              A 
    DOCC [     5 ]

  @DF-RHF Final Energy:   -76.04124717402787

   => Energetics <=

    Nuclear Repulsion Energy =              9.1672676121212557
    One-Electron Energy =                -122.9258362409518099
    Two-Electron Energy =                  37.7173214548026721
    Total Energy =                        -76.0412471740278875

Computation Completed


Properties will be evaluated at   0.000000,   0.000000,   0.000000 [a0]

Properties computed using the SCF density matrix

  Nuclear Dipole Moment: [e a0]
     X:   -37.1316      Y:    56.5331      Z:    50.4474

  Electronic Dipole Moment: [e a0]
     X:    36.9681      Y:   -55.7889      Z:   -50.6606

  Dipole Moment: [e a0]
     X:    -0.1635      Y:     0.7442      Z:    -0.2131     Total:     0.7912

  Dipole Moment: [D]
     X:    -0.4157      Y:     1.8916      Z:    -0.5417     Total:     2.0110


*** tstop() called on node58.bme.utexas.edu at Thu Apr 23 17:18:19 2020
Module time:
	user time   =      11.46 seconds =       0.19 minutes
	system time =       0.62 seconds =       0.01 minutes
	total time  =          3 seconds =       0.05 minutes
Total time:
	user time   =      55.30 seconds =       0.92 minutes
	system time =       2.52 seconds =       0.04 minutes
	total time  =         10 seconds =       0.17 minutes
  Constructing Basis Sets for SAPT...

   => Loading Basis Set <=

    Name: (AUG-CC-PVDZ AUX)
    Role: RIFIT
    Keyword: DF_BASIS_SAPT
    atoms 1, 4        entry C          line   112 file /home/liuchw/anaconda3/envs/psi4env/share/psi4/basis/aug-cc-pvdz-ri.gbs 
    atoms 2, 11       entry O          line   204 file /home/liuchw/anaconda3/envs/psi4env/share/psi4/basis/aug-cc-pvdz-ri.gbs 
    atoms 3           entry S          line   516 file /home/liuchw/anaconda3/envs/psi4env/share/psi4/basis/aug-cc-pvdz-ri.gbs 
    atoms 5-10, 12-13 entry H          line    30 file /home/liuchw/anaconda3/envs/psi4env/share/psi4/basis/aug-cc-pvdz-ri.gbs 


  //>>>>>>>>>>>>>>>>>>>>>>>>>>>>>>>>>>>//
  //               SAPT2+              //
  //<<<<<<<<<<<<<<<<<<<<<<<<<<<<<<<<<<<//


*** tstart() called on node58.bme.utexas.edu
*** at Thu Apr 23 17:18:19 2020

        SAPT2+  
    Ed Hohenstein
     6 June 2009

      Orbital Information
  --------------------------
    NSO        =       191
    NMO        =       191
    NRI        =       564
    NOCC A     =        21
    NOCC B     =         5
    FOCC A     =         8
    FOCC B     =         1
    NVIR A     =       170
    NVIR B     =       186

    Estimated memory usage: 522.3 MB

    Natural Orbital Cutoff:   1.000E-06
    Disp(T3) Truncation:            Yes
    CCD (vv|vv) Truncation:         Yes
    MBPT T2 Truncation:             Yes

    Monomer A: 47 virtual orbitals dropped
    Monomer B: 152 virtual orbitals dropped

    Elst10,r            =    -0.001466116631 [Eh]
    Exch10 (S^2)        =     0.000009292330 [Eh]
    Exch10              =     0.000009292386 [Eh]
    Ind20,r (A<-B)      =    -0.000034573738 [Eh]
    Ind20,r (B<-A)      =    -0.000012949181 [Eh]
    Ind20,r             =    -0.000047522919 [Eh]
    Exch-Ind20,r (A<-B) =     0.000002465521 [Eh]
    Exch-Ind20,r (B<-A) =     0.000000134935 [Eh]
    Exch-Ind20,r        =     0.000002600456 [Eh]
    Disp20              =    -0.000227179182 [Eh]
    Disp20 (NO)         =    -0.000218889948 [Eh]
    Exch-Disp20         =     0.000001335034 [Eh]
    Elst12,r            =     0.000226012821 [Eh]
    Exch11              =    -0.000000226476 [Eh]
    Exch12              =     0.000004838994 [Eh]
    Ind22               =     0.000002371460 [Eh]
    Disp21              =     0.000033416032 [Eh]
    Disp22 (SDQ)        =    -0.000010543001 [Eh]

    (i =   1 of   4)          2 seconds
    (i =   2 of   4)          3 seconds
    (i =   3 of   4)          5 seconds
    (i =   4 of   4)          6 seconds

    Disp220 (T)         =    -0.000017991244 [Eh]

    (i =   1 of  13)          0 seconds
    (i =   2 of  13)          0 seconds
    (i =   3 of  13)          0 seconds
    (i =   4 of  13)          0 seconds
    (i =   5 of  13)          0 seconds
    (i =   6 of  13)          0 seconds
    (i =   7 of  13)          0 seconds
    (i =   8 of  13)          1 seconds
    (i =   9 of  13)          1 seconds
    (i =  10 of  13)          1 seconds
    (i =  11 of  13)          1 seconds
    (i =  12 of  13)          1 seconds
    (i =  13 of  13)          1 seconds

    Disp202 (T)         =    -0.000019274807 [Eh]

    Disp22 (T)          =    -0.000037266051 [Eh]

    Est. Disp220 (T)    =    -0.000018672562 [Eh]
    Est. Disp202 (T)    =    -0.000020004732 [Eh]

    Est. Disp22 (T)     =    -0.000038677294 [Eh]

    SAPT Results 
  --------------------------------------------------------------------------------------------------------
    Electrostatics                 -1.24010381 [mEh]      -0.77817689 [kcal/mol]      -3.25589210 [kJ/mol]
      Elst10,r                     -1.46611663 [mEh]      -0.92000208 [kcal/mol]      -3.84928868 [kJ/mol]
      Elst12,r                      0.22601282 [mEh]       0.14182519 [kcal/mol]       0.59339658 [kJ/mol]

    Exchange                        0.01390490 [mEh]       0.00872546 [kcal/mol]       0.03650732 [kJ/mol]
      Exch10                        0.00929239 [mEh]       0.00583106 [kcal/mol]       0.02439716 [kJ/mol]
      Exch10(S^2)                   0.00929233 [mEh]       0.00583103 [kcal/mol]       0.02439701 [kJ/mol]
      Exch11(S^2)                  -0.00022648 [mEh]      -0.00014212 [kcal/mol]      -0.00059461 [kJ/mol]
      Exch12(S^2)                   0.00483899 [mEh]       0.00303651 [kcal/mol]       0.01270478 [kJ/mol]

    Induction                      -0.04402945 [mEh]      -0.02762889 [kcal/mol]      -0.11559929 [kJ/mol]
      Ind20,r                      -0.04752292 [mEh]      -0.02982108 [kcal/mol]      -0.12477141 [kJ/mol]
      Ind22                         0.00237146 [mEh]       0.00148811 [kcal/mol]       0.00622627 [kJ/mol]
      Exch-Ind20,r                  0.00260046 [mEh]       0.00163181 [kcal/mol]       0.00682750 [kJ/mol]
      Exch-Ind22                   -0.00012977 [mEh]      -0.00008143 [kcal/mol]      -0.00034070 [kJ/mol]
      delta HF,r (2)               -0.00134868 [mEh]      -0.00084631 [kcal/mol]      -0.00354095 [kJ/mol]

    Dispersion                     -0.24164841 [mEh]      -0.15163667 [kcal/mol]      -0.63444782 [kJ/mol]
      Disp20                       -0.22717918 [mEh]      -0.14255709 [kcal/mol]      -0.59645886 [kJ/mol]
      Disp21                        0.03341603 [mEh]       0.02096888 [kcal/mol]       0.08773378 [kJ/mol]
      Disp22 (SDQ)                 -0.01054300 [mEh]      -0.00661583 [kcal/mol]      -0.02768065 [kJ/mol]
      Disp22 (T)                   -0.03726605 [mEh]      -0.02338480 [kcal/mol]      -0.09784200 [kJ/mol]
      Est. Disp22 (T)              -0.03867729 [mEh]      -0.02427037 [kcal/mol]      -0.10154722 [kJ/mol]
      Exch-Disp20                   0.00133503 [mEh]       0.00083775 [kcal/mol]       0.00350513 [kJ/mol]

  Total HF                         -1.50309538 [mEh]      -0.94320659 [kcal/mol]      -3.94637639 [kJ/mol]
  Total SAPT0                      -1.72893953 [mEh]      -1.08492594 [kcal/mol]      -4.53933012 [kJ/mol]
  Total SAPT2                      -1.49607250 [mEh]      -0.93879967 [kcal/mol]      -3.92793781 [kJ/mol]
  Total SAPT2+                     -1.51187676 [mEh]      -0.94871699 [kcal/mol]      -3.96943189 [kJ/mol]

  Special recipe for scaled SAPT0 (see Manual):
    Electrostatics sSAPT0          -1.46611663 [mEh]      -0.92000208 [kcal/mol]      -3.84928868 [kJ/mol]
    Exchange sSAPT0                 0.00929239 [mEh]       0.00583106 [kcal/mol]       0.02439716 [kJ/mol]
    Induction sSAPT0               -0.04627114 [mEh]      -0.02903558 [kcal/mol]      -0.12148486 [kJ/mol]
    Dispersion sSAPT0              -0.22584415 [mEh]      -0.14171934 [kcal/mol]      -0.59295373 [kJ/mol]
  Total sSAPT0                     -1.72893953 [mEh]      -1.08492594 [kcal/mol]      -4.53933012 [kJ/mol]
  --------------------------------------------------------------------------------------------------------

*** tstop() called on node58.bme.utexas.edu at Thu Apr 23 17:18:44 2020
Module time:
	user time   =     187.71 seconds =       3.13 minutes
	system time =      10.23 seconds =       0.17 minutes
	total time  =         25 seconds =       0.42 minutes
Total time:
	user time   =     243.79 seconds =       4.06 minutes
	system time =      12.81 seconds =       0.21 minutes
	total time  =         35 seconds =       0.58 minutes

    Psi4 stopped on: Thursday, 23 April 2020 05:18PM
    Psi4 wall time for execution: 0:00:34.96

*** Psi4 exiting successfully. Buy a developer a beer!
