    -----------------------------------------------------------------------
          PSI4: An Open-Source Ab Initio Electronic Structure Package
                              PSI 4.0.0-beta4 Driver

    J. M. Turney, A. C. Simmonett, R. M. Parrish, E. G. Hohenstein,
    F. A. Evangelista, J. T. Fermann, B. J. Mintz, L. A. Burns, J. J. Wilke,
    M. L. Abrams, N. J. Russ, M. L. Leininger, C. L. Janssen, E. T. Seidl,
    W. D. Allen, H. F. Schaefer, R. A. King, E. F. Valeev, C. D. Sherrill,
    and T. D. Crawford, WIREs Comput. Mol. Sci., (2011) (doi: 10.1002/wcms.93)

                         Additional Contributions by
    A. E. DePrince, M. Saitow, U. Bozkaya, A. Yu. Sokolov
    -----------------------------------------------------------------------

    Process ID:   2439
    PSI4DATADIR: /home/xzhu216/psi4/psi4-install/share/psi

    Using LocalCommunicator (Number of processes = 1)

    Memory level set to 256.000 MB

  ==> Input File <==

--------------------------------------------------------------------------
#psi4
#
memory 7 gb

molecule PO4H3_Water {
0 1
    P    -0.330456000     0.164634000     0.264146000
    O     1.207781000     0.080239000     0.653429000
    O    -0.409690000     1.498144000    -0.614191000
    O    -1.256717000     0.048350000     1.408031000
    O    -0.596943000    -0.936715000    -0.851177000
    H    -0.273362000     2.285121000    -0.076063000
    H     0.051386000    -0.902002000    -1.562754000
    H     1.287548000    -0.331858000     1.545247000
--
0 1
    O     0.772830800    -0.951363100     2.923389100
    H     0.932708800    -0.636170100     3.814381100
    H    -0.130609200    -0.665897100     2.705996100
units angstrom
no_reorient  #important for SAPT in psi4, default
symmetry c1  #important for SAPT in psi4, default
}

set {
basis aug-cc-pVDZ
scf_type DF
freeze_core True
}
energy('sapt2+')
--------------------------------------------------------------------------

  Memory set to   7.000 GiB by Python script.

  //>>>>>>>>>>>>>>>>>>>>>>>>>>>>>>>>>>>//
  //              Dimer HF             //
  //<<<<<<<<<<<<<<<<<<<<<<<<<<<<<<<<<<<//


  No DF_BASIS_SCF auxiliary basis selected, defaulting to aug-cc-pvdz-jkfit


*** tstart() called on node33.bme.utexas.edu
*** at Mon Jul  7 19:27:21 2014


         ---------------------------------------------------------
                                   SCF
            by Justin Turney, Rob Parrish, and Andy Simmonett
                              RHF Reference
                        4 Threads,   7000 MiB Core
         ---------------------------------------------------------

  ==> Geometry <==

    Molecular point group: c1
    Full point group: C1

    Geometry (in Angstrom), charge = 0, multiplicity = 1:

       Center              X                  Y                   Z       
    ------------   -----------------  -----------------  -----------------
           P         -0.219447856845     0.158888784566    -0.347579544989
           O          1.318789143155     0.074493784566     0.041703455011
           O         -0.298681856845     1.492398784566    -1.225916544989
           O         -1.145708856845     0.042604784566     0.796305455011
           O         -0.485934856845    -0.942460215434    -1.462902544989
           H         -0.162353856845     2.279375784566    -0.687788544989
           H          0.162394143155    -0.907747215434    -2.174479544989
           H          1.398556143155    -0.337603215434     0.933521455011
           O          0.883838943155    -0.957108315434     2.311663555011
           H          1.043716943155    -0.641915315434     3.202655555011
           H         -0.019601056845    -0.671642315434     2.094270555011

  Running in c1 symmetry.

  Nuclear repulsion =  372.791600546872928

  Charge       = 0
  Multiplicity = 1
  Electrons    = 60
  Nalpha       = 30
  Nbeta        = 30

  ==> Algorithm <==

  SCF Algorithm Type is DF.
  DIIS enabled.
  MOM disabled.
  Fractional occupation disabled.
  Guess Type is CORE.
  Energy threshold   = 1.00e-08
  Density threshold  = 1.00e-08
  Integral threshold = 0.00e+00

  ==> Primary Basis <==

  Basis Set: AUG-CC-PVDZ
    Number of shells: 81
    Number of basis function: 187
    Number of Cartesian functions: 199
    Spherical Harmonics?: true
    Max angular momentum: 2

  ==> Pre-Iterations <==

   -------------------------------------------------------
    Irrep   Nso     Nmo     Nalpha   Nbeta   Ndocc  Nsocc
   -------------------------------------------------------
     A        187     187       0       0       0       0
   -------------------------------------------------------
    Total     187     187      30      30      30       0
   -------------------------------------------------------

 OEINTS: Wrapper to libmints.
   by Justin Turney

   Calculation information:
      Number of atoms:                  11
      Number of AO shells:              81
      Number of SO shells:              81
      Number of primitives:            213
      Number of atomic orbitals:       199
      Number of basis functions:       187

      Number of irreps:                  1
      Number of functions per irrep: [ 187 ]

      Overlap, kinetic, potential, dipole, and quadrupole integrals
        stored in file 35.

  ==> Integral Setup <==

  ==> DFJK: Density-Fitted J/K Matrices <==

    J tasked:                  Yes
    K tasked:                  Yes
    wK tasked:                  No
    OpenMP threads:              4
    Integrals threads:           4
    Memory (MB):              5006
    Algorithm:                Core
    Integral Cache:           SAVE
    Schwarz Cutoff:          0E+00
    Fitting Condition:       1E-12

   => Auxiliary Basis Set <=

  Basis Set: aug-cc-pvdz-jkfit
    Number of shells: 240
    Number of basis function: 718
    Number of Cartesian functions: 830
    Spherical Harmonics?: true
    Max angular momentum: 3

  Minimum eigenvalue in the overlap matrix is 4.3680306953E-04.
  Using Symmetric Orthogonalization.
  SCF Guess: Core (One-Electron) Hamiltonian.

  Guess energy:  -550.90094504220338

  ==> Iterations <==

                        Total Energy        Delta E     RMS |[F,P]|

   @RHF iter   1:  -637.05329837475767   -6.37053e+02   4.37451e-02 
   @RHF iter   2:  -329.88923774551279    3.07164e+02   9.69283e-02 DIIS
   @RHF iter   3:  -669.73291375330348   -3.39844e+02   3.64013e-02 DIIS
   @RHF iter   4:  -712.38980533953134   -4.26569e+01   1.81539e-02 DIIS
   @RHF iter   5:  -717.27783370368354   -4.88803e+00   7.22291e-03 DIIS
   @RHF iter   6:  -718.01091797244464   -7.33084e-01   2.67969e-03 DIIS
   @RHF iter   7:  -718.13084350584870   -1.19926e-01   7.06238e-04 DIIS
   @RHF iter   8:  -718.13969797117591   -8.85447e-03   2.51839e-04 DIIS
   @RHF iter   9:  -718.14103988985210   -1.34192e-03   6.73612e-05 DIIS
   @RHF iter  10:  -718.14114791141867   -1.08022e-04   2.43776e-05 DIIS
   @RHF iter  11:  -718.14116274893343   -1.48375e-05   7.69153e-06 DIIS
   @RHF iter  12:  -718.14116405748962   -1.30856e-06   1.99570e-06 DIIS
   @RHF iter  13:  -718.14116417258163   -1.15092e-07   4.13029e-07 DIIS
   @RHF iter  14:  -718.14116417922662   -6.64500e-09   1.59531e-07 DIIS
   @RHF iter  15:  -718.14116417996672   -7.40101e-10   5.95997e-08 DIIS
   @RHF iter  16:  -718.14116418007723   -1.10504e-10   1.49332e-08 DIIS
   @RHF iter  17:  -718.14116418008587   -8.64020e-12   3.98236e-09 DIIS

  ==> Post-Iterations <==

	Orbital Energies (a.u.)
	-----------------------

	Doubly Occupied:                                                      

	   1A    -80.147550     2A    -20.622663     3A    -20.618515  
	   4A    -20.596752     5A    -20.592678     6A    -20.538030  
	   7A     -7.664241     8A     -5.562654     9A     -5.562540  
	  10A     -5.562244    11A     -1.472604    12A     -1.398312  
	  13A     -1.397712    14A     -1.369816    15A     -1.320014  
	  16A     -0.871067    17A     -0.779589    18A     -0.760996  
	  19A     -0.746919    20A     -0.685794    21A     -0.654802  
	  22A     -0.616865    23A     -0.606572    24A     -0.593680  
	  25A     -0.574800    26A     -0.560118    27A     -0.529591  
	  28A     -0.523197    29A     -0.487566    30A     -0.482363  

	Virtual:                                                              

	  31A      0.028709    32A      0.042562    33A      0.047803  
	  34A      0.070543    35A      0.084656    36A      0.097969  
	  37A      0.107539    38A      0.114225    39A      0.138640  
	  40A      0.180085    41A      0.188747    42A      0.195774  
	  43A      0.201643    44A      0.212840    45A      0.217399  
	  46A      0.228589    47A      0.244982    48A      0.248775  
	  49A      0.264590    50A      0.269052    51A      0.282974  
	  52A      0.288755    53A      0.297186    54A      0.301792  
	  55A      0.312056    56A      0.314603    57A      0.317211  
	  58A      0.328461    59A      0.337768    60A      0.339697  
	  61A      0.356678    62A      0.385335    63A      0.397926  
	  64A      0.408766    65A      0.425927    66A      0.450120  
	  67A      0.453162    68A      0.463485    69A      0.479651  
	  70A      0.483134    71A      0.496858    72A      0.514696  
	  73A      0.537434    74A      0.549952    75A      0.565151  
	  76A      0.588859    77A      0.601476    78A      0.611969  
	  79A      0.622754    80A      0.642935    81A      0.651573  
	  82A      0.660867    83A      0.674727    84A      0.684003  
	  85A      0.700709    86A      0.732578    87A      0.755732  
	  88A      0.814670    89A      0.835478    90A      0.854111  
	  91A      0.866688    92A      0.881215    93A      0.908653  
	  94A      0.927859    95A      0.972273    96A      0.988733  
	  97A      0.992437    98A      1.036089    99A      1.056292  
	 100A      1.078728   101A      1.090476   102A      1.119289  
	 103A      1.143964   104A      1.162450   105A      1.169426  
	 106A      1.196401   107A      1.202032   108A      1.234822  
	 109A      1.254434   110A      1.286758   111A      1.304738  
	 112A      1.311664   113A      1.352505   114A      1.368832  
	 115A      1.400657   116A      1.403828   117A      1.432804  
	 118A      1.443812   119A      1.477131   120A      1.503323  
	 121A      1.521045   122A      1.547338   123A      1.567672  
	 124A      1.586022   125A      1.615977   126A      1.640284  
	 127A      1.644900   128A      1.663656   129A      1.717820  
	 130A      1.737314   131A      1.759931   132A      1.858456  
	 133A      1.903941   134A      1.931042   135A      1.979881  
	 136A      1.983251   137A      2.011067   138A      2.050620  
	 139A      2.077610   140A      2.149008   141A      2.174773  
	 142A      2.192671   143A      2.252832   144A      2.298468  
	 145A      2.329900   146A      2.347020   147A      2.366053  
	 148A      2.475416   149A      2.483704   150A      2.515453  
	 151A      2.606387   152A      2.722820   153A      2.749615  
	 154A      2.784462   155A      2.843033   156A      2.879824  
	 157A      3.021689   158A      3.043329   159A      3.079050  
	 160A      3.100284   161A      3.154248   162A      3.309881  
	 163A      3.621685   164A      3.648758   165A      3.651262  
	 166A      3.660743   167A      3.662737   168A      3.676621  
	 169A      3.693526   170A      3.702880   171A      3.716755  
	 172A      3.724932   173A      3.737987   174A      3.762245  
	 175A      3.782760   176A      3.803896   177A      3.833391  
	 178A      3.857951   179A      3.875926   180A      3.919630  
	 181A      3.932397   182A      3.990615   183A      4.151871  
	 184A      4.222338   185A      4.261339   186A      4.363736  
	 187A      4.430897  

	Final Occupation by Irrep:
	          A 
	DOCC [    30 ]

  Energy converged.

  @RHF Final Energy:  -718.14116418008587

   => Energetics <=

    Nuclear Repulsion Energy =            372.7916005468729281
    One-Electron Energy =               -1734.0650416064961519
    Two-Electron Energy =                 643.1322768795378124
    DFT Exchange-Correlation Energy =       0.0000000000000000
    Empirical Dispersion Energy =           0.0000000000000000
    Total Energy =                       -718.1411641800852976



Properties will be evaluated at   0.000000,   0.000000,   0.000000 Bohr
  ==> Properties <==


Properties computed using the SCF density density matrix
  Nuclear Dipole Moment: (a.u.)
     X:     2.4744      Y:    -0.4096      Z:     3.4796

  Electronic Dipole Moment: (a.u.)
     X:    -1.6183      Y:     1.1138      Z:    -3.3407

  Dipole Moment: (a.u.)
     X:     0.8562      Y:     0.7041      Z:     0.1389     Total:     1.1172

  Dipole Moment: (Debye)
     X:     2.1761      Y:     1.7897      Z:     0.3531     Total:     2.8396


  Saving occupied orbitals to File 180.

  Saving SAPT 2-DIMER file.

*** tstop() called on node33.bme.utexas.edu at Mon Jul  7 19:27:43 2014
Module time:
	user time   =      75.64 seconds =       1.26 minutes
	system time =       0.87 seconds =       0.01 minutes
	total time  =         22 seconds =       0.37 minutes
Total time:
	user time   =      75.64 seconds =       1.26 minutes
	system time =       0.87 seconds =       0.01 minutes
	total time  =         22 seconds =       0.37 minutes

  //>>>>>>>>>>>>>>>>>>>>>>>>>>>>>>>>>>>//
  //            Monomer A HF           //
  //<<<<<<<<<<<<<<<<<<<<<<<<<<<<<<<<<<<//


  No DF_BASIS_SCF auxiliary basis selected, defaulting to aug-cc-pvdz-jkfit


*** tstart() called on node33.bme.utexas.edu
*** at Mon Jul  7 19:27:43 2014


         ---------------------------------------------------------
                                   SCF
            by Justin Turney, Rob Parrish, and Andy Simmonett
                              RHF Reference
                        4 Threads,   7000 MiB Core
         ---------------------------------------------------------

  ==> Geometry <==

    Molecular point group: c1
    Full point group: C1

    Geometry (in Angstrom), charge = 0, multiplicity = 1:

       Center              X                  Y                   Z       
    ------------   -----------------  -----------------  -----------------
           P         -0.219447856845     0.158888784566    -0.347579544989
           O          1.318789143155     0.074493784566     0.041703455011
           O         -0.298681856845     1.492398784566    -1.225916544989
           O         -1.145708856845     0.042604784566     0.796305455011
           O         -0.485934856845    -0.942460215434    -1.462902544989
           H         -0.162353856845     2.279375784566    -0.687788544989
           H          0.162394143155    -0.907747215434    -2.174479544989
           H          1.398556143155    -0.337603215434     0.933521455011
           O(Gh)      0.883838943155    -0.957108315434     2.311663555011
           H(Gh)      1.043716943155    -0.641915315434     3.202655555011
           H(Gh)     -0.019601056845    -0.671642315434     2.094270555011

  Running in c1 symmetry.

  Nuclear repulsion =  280.216802249061971

  Charge       = 0
  Multiplicity = 1
  Electrons    = 50
  Nalpha       = 25
  Nbeta        = 25

  ==> Algorithm <==

  SCF Algorithm Type is DF.
  DIIS enabled.
  MOM disabled.
  Fractional occupation disabled.
  Guess Type is CORE.
  Energy threshold   = 1.00e-08
  Density threshold  = 1.00e-08
  Integral threshold = 0.00e+00

  ==> Primary Basis <==

  Basis Set: AUG-CC-PVDZ
    Number of shells: 81
    Number of basis function: 187
    Number of Cartesian functions: 199
    Spherical Harmonics?: true
    Max angular momentum: 2

  ==> Pre-Iterations <==

   -------------------------------------------------------
    Irrep   Nso     Nmo     Nalpha   Nbeta   Ndocc  Nsocc
   -------------------------------------------------------
     A        187     187       0       0       0       0
   -------------------------------------------------------
    Total     187     187      25      25      25       0
   -------------------------------------------------------

 OEINTS: Wrapper to libmints.
   by Justin Turney

   Calculation information:
      Number of atoms:                  11
      Number of AO shells:              81
      Number of SO shells:              81
      Number of primitives:            213
      Number of atomic orbitals:       199
      Number of basis functions:       187

      Number of irreps:                  1
      Number of functions per irrep: [ 187 ]

      Overlap, kinetic, potential, dipole, and quadrupole integrals
        stored in file 35.

  ==> Integral Setup <==

  ==> DFJK: Density-Fitted J/K Matrices <==

    J tasked:                  Yes
    K tasked:                  Yes
    wK tasked:                  No
    OpenMP threads:              4
    Integrals threads:           4
    Memory (MB):              5006
    Algorithm:                Core
    Integral Cache:           LOAD
    Schwarz Cutoff:          0E+00
    Fitting Condition:       1E-12

   => Auxiliary Basis Set <=

  Basis Set: aug-cc-pvdz-jkfit
    Number of shells: 240
    Number of basis function: 718
    Number of Cartesian functions: 830
    Spherical Harmonics?: true
    Max angular momentum: 3

  Minimum eigenvalue in the overlap matrix is 4.3680306953E-04.
  Using Symmetric Orthogonalization.
  SCF Guess: Core (One-Electron) Hamiltonian.

  Guess energy:  -481.41950057199688

  ==> Iterations <==

                        Total Energy        Delta E     RMS |[F,P]|

   @RHF iter   1:  -606.45679296078958   -6.06457e+02   3.79657e-02 
   @RHF iter   2:  -576.85762579973186    2.95992e+01   3.86842e-02 DIIS
   @RHF iter   3:  -638.25550649930096   -6.13979e+01   1.69823e-02 DIIS
   @RHF iter   4:  -641.17940896659854   -2.92390e+00   7.51718e-03 DIIS
   @RHF iter   5:  -642.03797707366141   -8.58568e-01   1.52388e-03 DIIS
   @RHF iter   6:  -642.07944759902875   -4.14705e-02   7.33623e-04 DIIS
   @RHF iter   7:  -642.08650261535797   -7.05502e-03   1.38151e-04 DIIS
   @RHF iter   8:  -642.08699666152950   -4.94046e-04   1.96274e-05 DIIS
   @RHF iter   9:  -642.08700906111824   -1.23996e-05   7.23776e-06 DIIS
   @RHF iter  10:  -642.08701038268794   -1.32157e-06   2.83121e-06 DIIS
   @RHF iter  11:  -642.08701059206942   -2.09381e-07   7.03137e-07 DIIS
   @RHF iter  12:  -642.08701060976045   -1.76910e-08   1.71102e-07 DIIS
   @RHF iter  13:  -642.08701061115926   -1.39880e-09   4.46839e-08 DIIS
   @RHF iter  14:  -642.08701061125055   -9.12905e-11   1.81033e-08 DIIS
   @RHF iter  15:  -642.08701061126055   -1.00044e-11   5.31536e-09 DIIS

  ==> Post-Iterations <==

	Orbital Energies (a.u.)
	-----------------------

	Doubly Occupied:                                                      

	   1A    -80.150150     2A    -20.633625     3A    -20.626614  
	   4A    -20.623767     5A    -20.528271     6A     -7.666979  
	   7A     -5.565314     8A     -5.565119     9A     -5.564982  
	  10A     -1.481036    11A     -1.408363    12A     -1.402305  
	  13A     -1.307299    14A     -0.877920    15A     -0.784750  
	  16A     -0.766088    17A     -0.686779    18A     -0.667532  
	  19A     -0.622889    20A     -0.596438    21A     -0.582158  
	  22A     -0.560583    23A     -0.543354    24A     -0.476036  
	  25A     -0.471023  

	Virtual:                                                              

	  26A      0.023942    27A      0.041518    28A      0.044812  
	  29A      0.067271    30A      0.081726    31A      0.097259  
	  32A      0.107824    33A      0.110699    34A      0.128575  
	  35A      0.148654    36A      0.167605    37A      0.188870  
	  38A      0.198553    39A      0.199812    40A      0.209246  
	  41A      0.213378    42A      0.225787    43A      0.242014  
	  44A      0.254741    45A      0.261876    46A      0.264345  
	  47A      0.284480    48A      0.298993    49A      0.305580  
	  50A      0.316197    51A      0.317534    52A      0.320574  
	  53A      0.331473    54A      0.334732    55A      0.339371  
	  56A      0.358241    57A      0.393384    58A      0.397345  
	  59A      0.400297    60A      0.421960    61A      0.441799  
	  62A      0.454970    63A      0.463048    64A      0.476351  
	  65A      0.480690    66A      0.485858    67A      0.505811  
	  68A      0.520643    69A      0.543363    70A      0.556930  
	  71A      0.580537    72A      0.585254    73A      0.589127  
	  74A      0.612096    75A      0.639867    76A      0.648418  
	  77A      0.657515    78A      0.681371    79A      0.689241  
	  80A      0.698263    81A      0.708790    82A      0.786394  
	  83A      0.813407    84A      0.837101    85A      0.843986  
	  86A      0.856038    87A      0.875183    88A      0.909390  
	  89A      0.936487    90A      0.976331    91A      0.993947  
	  92A      1.014351    93A      1.064218    94A      1.078890  
	  95A      1.085409    96A      1.119708    97A      1.133014  
	  98A      1.136752    99A      1.150058   100A      1.165230  
	 101A      1.192714   102A      1.201207   103A      1.237799  
	 104A      1.252552   105A      1.258188   106A      1.280392  
	 107A      1.297239   108A      1.347136   109A      1.363214  
	 110A      1.374235   111A      1.393058   112A      1.420393  
	 113A      1.434978   114A      1.458986   115A      1.483263  
	 116A      1.493268   117A      1.504598   118A      1.521895  
	 119A      1.546402   120A      1.597855   121A      1.616665  
	 122A      1.637154   123A      1.659549   124A      1.672774  
	 125A      1.708458   126A      1.716004   127A      1.816976  
	 128A      1.862281   129A      1.910432   130A      1.932021  
	 131A      1.976431   132A      1.992303   133A      2.046250  
	 134A      2.122150   135A      2.154261   136A      2.180326  
	 137A      2.277611   138A      2.297370   139A      2.325423  
	 140A      2.380683   141A      2.407110   142A      2.478507  
	 143A      2.491494   144A      2.543263   145A      2.625115  
	 146A      2.689793   147A      2.717342   148A      2.784254  
	 149A      2.824279   150A      2.881088   151A      3.011963  
	 152A      3.015925   153A      3.055340   154A      3.117962  
	 155A      3.197848   156A      3.602350   157A      3.613709  
	 158A      3.637959   159A      3.648372   160A      3.651160  
	 161A      3.670535   162A      3.678241   163A      3.697446  
	 164A      3.699711   165A      3.726779   166A      3.758385  
	 167A      3.768968   168A      3.815999   169A      3.852643  
	 170A      3.861629   171A      3.889835   172A      3.950307  
	 173A      3.988896   174A      4.021247   175A      4.134570  
	 176A      4.217960   177A      4.251630   178A      4.344800  
	 179A      4.961457   180A      5.040588   181A      5.057939  
	 182A      5.229534   183A      5.496202   184A      6.068302  
	 185A      6.713554   186A      7.065389   187A     33.548915  

	Final Occupation by Irrep:
	          A 
	DOCC [    25 ]

  Energy converged.

  @RHF Final Energy:  -642.08701061126055

   => Energetics <=

    Nuclear Repulsion Energy =            280.2168022490619705
    One-Electron Energy =               -1444.2888834966070135
    Two-Electron Energy =                 521.9850706362865367
    DFT Exchange-Correlation Energy =       0.0000000000000000
    Empirical Dispersion Energy =           0.0000000000000000
    Total Energy =                       -642.0870106112586200



Properties will be evaluated at   0.000000,   0.000000,   0.000000 Bohr
  ==> Properties <==


Properties computed using the SCF density density matrix
  Nuclear Dipole Moment: (a.u.)
     X:   -12.8226      Y:    16.5420      Z:   -41.4775

  Electronic Dipole Moment: (a.u.)
     X:    14.2368      Y:   -16.1686      Z:    40.9890

  Dipole Moment: (a.u.)
     X:     1.4142      Y:     0.3734      Z:    -0.4884     Total:     1.5421

  Dipole Moment: (Debye)
     X:     3.5945      Y:     0.9491      Z:    -1.2415     Total:     3.9195


  Saving occupied orbitals to File 180.

  Saving SAPT 2-MONOMER_A file.

*** tstop() called on node33.bme.utexas.edu at Mon Jul  7 19:27:58 2014
Module time:
	user time   =      57.80 seconds =       0.96 minutes
	system time =       0.70 seconds =       0.01 minutes
	total time  =         15 seconds =       0.25 minutes
Total time:
	user time   =     133.55 seconds =       2.23 minutes
	system time =       1.58 seconds =       0.03 minutes
	total time  =         37 seconds =       0.62 minutes

  //>>>>>>>>>>>>>>>>>>>>>>>>>>>>>>>>>>>//
  //            Monomer B HF           //
  //<<<<<<<<<<<<<<<<<<<<<<<<<<<<<<<<<<<//


  No DF_BASIS_SCF auxiliary basis selected, defaulting to aug-cc-pvdz-jkfit


*** tstart() called on node33.bme.utexas.edu
*** at Mon Jul  7 19:27:58 2014


         ---------------------------------------------------------
                                   SCF
            by Justin Turney, Rob Parrish, and Andy Simmonett
                              RHF Reference
                        4 Threads,   7000 MiB Core
         ---------------------------------------------------------

  ==> Geometry <==

    Molecular point group: c1
    Full point group: C1

    Geometry (in Angstrom), charge = 0, multiplicity = 1:

       Center              X                  Y                   Z       
    ------------   -----------------  -----------------  -----------------
           P(Gh)     -0.219447856845     0.158888784566    -0.347579544989
           O(Gh)      1.318789143155     0.074493784566     0.041703455011
           O(Gh)     -0.298681856845     1.492398784566    -1.225916544989
           O(Gh)     -1.145708856845     0.042604784566     0.796305455011
           O(Gh)     -0.485934856845    -0.942460215434    -1.462902544989
           H(Gh)     -0.162353856845     2.279375784566    -0.687788544989
           H(Gh)      0.162394143155    -0.907747215434    -2.174479544989
           H(Gh)      1.398556143155    -0.337603215434     0.933521455011
           O          0.883838943155    -0.957108315434     2.311663555011
           H          1.043716943155    -0.641915315434     3.202655555011
           H         -0.019601056845    -0.671642315434     2.094270555011

  Running in c1 symmetry.

  Nuclear repulsion =    9.116022906464503

  Charge       = 0
  Multiplicity = 1
  Electrons    = 10
  Nalpha       = 5
  Nbeta        = 5

  ==> Algorithm <==

  SCF Algorithm Type is DF.
  DIIS enabled.
  MOM disabled.
  Fractional occupation disabled.
  Guess Type is CORE.
  Energy threshold   = 1.00e-08
  Density threshold  = 1.00e-08
  Integral threshold = 0.00e+00

  ==> Primary Basis <==

  Basis Set: AUG-CC-PVDZ
    Number of shells: 81
    Number of basis function: 187
    Number of Cartesian functions: 199
    Spherical Harmonics?: true
    Max angular momentum: 2

  ==> Pre-Iterations <==

   -------------------------------------------------------
    Irrep   Nso     Nmo     Nalpha   Nbeta   Ndocc  Nsocc
   -------------------------------------------------------
     A        187     187       0       0       0       0
   -------------------------------------------------------
    Total     187     187       5       5       5       0
   -------------------------------------------------------

 OEINTS: Wrapper to libmints.
   by Justin Turney

   Calculation information:
      Number of atoms:                  11
      Number of AO shells:              81
      Number of SO shells:              81
      Number of primitives:            213
      Number of atomic orbitals:       199
      Number of basis functions:       187

      Number of irreps:                  1
      Number of functions per irrep: [ 187 ]

      Overlap, kinetic, potential, dipole, and quadrupole integrals
        stored in file 35.

  ==> Integral Setup <==

  ==> DFJK: Density-Fitted J/K Matrices <==

    J tasked:                  Yes
    K tasked:                  Yes
    wK tasked:                  No
    OpenMP threads:              4
    Integrals threads:           4
    Memory (MB):              5006
    Algorithm:                Core
    Integral Cache:           LOAD
    Schwarz Cutoff:          0E+00
    Fitting Condition:       1E-12

   => Auxiliary Basis Set <=

  Basis Set: aug-cc-pvdz-jkfit
    Number of shells: 240
    Number of basis function: 718
    Number of Cartesian functions: 830
    Spherical Harmonics?: true
    Max angular momentum: 3

  Minimum eigenvalue in the overlap matrix is 4.3680306953E-04.
  Using Symmetric Orthogonalization.
  SCF Guess: Core (One-Electron) Hamiltonian.

  Guess energy:   -58.71834244737875

  ==> Iterations <==

                        Total Energy        Delta E     RMS |[F,P]|

   @RHF iter   1:   -68.29191756028953   -6.82919e+01   1.86512e-02 
   @RHF iter   2:   -64.91547868777585    3.37644e+00   1.40385e-02 DIIS
   @RHF iter   3:   -74.98255374758273   -1.00671e+01   8.75278e-03 DIIS
   @RHF iter   4:   -75.82465513933002   -8.42101e-01   3.80064e-03 DIIS
   @RHF iter   5:   -76.03997604339862   -2.15321e-01   3.03107e-04 DIIS
   @RHF iter   6:   -76.04108009851156   -1.10406e-03   1.50495e-04 DIIS
   @RHF iter   7:   -76.04135106737920   -2.70969e-04   1.86483e-05 DIIS
   @RHF iter   8:   -76.04135718473894   -6.11736e-06   2.87888e-06 DIIS
   @RHF iter   9:   -76.04135745781407   -2.73075e-07   6.97327e-07 DIIS
   @RHF iter  10:   -76.04135746879766   -1.09836e-08   1.33188e-07 DIIS
   @RHF iter  11:   -76.04135746921476   -4.17103e-10   1.29254e-08 DIIS
   @RHF iter  12:   -76.04135746922158   -6.82121e-12   4.60179e-09 DIIS

  ==> Post-Iterations <==

	Orbital Energies (a.u.)
	-----------------------

	Doubly Occupied:                                                      

	   1A    -20.578387     2A     -1.351708     3A     -0.716422  
	   4A     -0.581884     5A     -0.508277  

	Virtual:                                                              

	   6A      0.024381     7A      0.043509     8A      0.053989  
	   9A      0.056744    10A      0.078644    11A      0.084330  
	  12A      0.097406    13A      0.098251    14A      0.109423  
	  15A      0.167862    16A      0.170812    17A      0.178151  
	  18A      0.185363    19A      0.199085    20A      0.207574  
	  21A      0.216032    22A      0.220669    23A      0.226431  
	  24A      0.232677    25A      0.245505    26A      0.257224  
	  27A      0.259102    28A      0.263626    29A      0.274584  
	  30A      0.282483    31A      0.304706    32A      0.324639  
	  33A      0.328791    34A      0.339154    35A      0.354666  
	  36A      0.412252    37A      0.425458    38A      0.438985  
	  39A      0.456127    40A      0.462448    41A      0.480314  
	  42A      0.489993    43A      0.497003    44A      0.501531  
	  45A      0.512656    46A      0.523634    47A      0.529412  
	  48A      0.551372    49A      0.554299    50A      0.563070  
	  51A      0.570729    52A      0.599787    53A      0.614601  
	  54A      0.625701    55A      0.632103    56A      0.650159  
	  57A      0.680720    58A      0.689026    59A      0.720506  
	  60A      0.743195    61A      0.762027    62A      0.770661  
	  63A      0.790380    64A      0.885876    65A      0.938438  
	  66A      0.963351    67A      0.980702    68A      0.992455  
	  69A      1.018812    70A      1.050878    71A      1.063052  
	  72A      1.097784    73A      1.118151    74A      1.152829  
	  75A      1.155926    76A      1.178056    77A      1.206377  
	  78A      1.209759    79A      1.226609    80A      1.233389  
	  81A      1.250171    82A      1.275946    83A      1.281299  
	  84A      1.298094    85A      1.314658    86A      1.322951  
	  87A      1.333975    88A      1.360720    89A      1.368023  
	  90A      1.387637    91A      1.392955    92A      1.411410  
	  93A      1.426465    94A      1.466543    95A      1.475066  
	  96A      1.503902    97A      1.513712    98A      1.539501  
	  99A      1.593007   100A      1.643851   101A      1.658288  
	 102A      1.662628   103A      1.689348   104A      1.723256  
	 105A      1.783271   106A      1.833225   107A      1.848393  
	 108A      1.871293   109A      1.966820   110A      1.985793  
	 111A      2.058379   112A      2.094175   113A      2.116211  
	 114A      2.229797   115A      2.263695   116A      2.290622  
	 117A      2.312163   118A      2.341715   119A      2.378197  
	 120A      2.430589   121A      2.461390   122A      2.488994  
	 123A      2.526321   124A      2.566428   125A      2.588774  
	 126A      2.600481   127A      2.655526   128A      2.766549  
	 129A      2.833374   130A      2.846986   131A      2.869419  
	 132A      2.899361   133A      3.106187   134A      3.286027  
	 135A      3.739901   136A      3.744267   137A      3.785927  
	 138A      3.804024   139A      3.822346   140A      3.929506  
	 141A      3.980068   142A      4.138516   143A      4.160765  
	 144A      4.195030   145A      4.287534   146A      4.407526  
	 147A      4.870727   148A      4.923779   149A      4.929048  
	 150A      4.940385   151A      4.954407   152A      4.962944  
	 153A      4.977346   154A      4.981588   155A      5.004967  
	 156A      5.032825   157A      5.039093   158A      5.078644  
	 159A      5.110934   160A      5.120239   161A      5.195318  
	 162A      5.217496   163A      5.235697   164A      5.431668  
	 165A      5.521770   166A      5.625610   167A      5.856921  
	 168A      5.911588   169A      5.940266   170A      5.980715  
	 171A      6.045226   172A      6.078011   173A      6.269356  
	 174A      6.342100   175A      6.416720   176A      6.533931  
	 177A      6.949617   178A      6.966194   179A      7.107195  
	 180A     18.340364   181A     18.433662   182A     18.736418  
	 183A     33.475267   184A     33.539844   185A     33.546751  
	 186A     33.571293   187A    120.580201  

	Final Occupation by Irrep:
	          A 
	DOCC [     5 ]

  Energy converged.

  @RHF Final Energy:   -76.04135746922158

   => Energetics <=

    Nuclear Repulsion Energy =              9.1160229064645026
    One-Electron Energy =                -122.8414012339839729
    Two-Electron Energy =                  37.6840208582977425
    DFT Exchange-Correlation Energy =       0.0000000000000000
    Empirical Dispersion Energy =           0.0000000000000000
    Total Energy =                        -76.0413574692217225



Properties will be evaluated at   0.000000,   0.000000,   0.000000 Bohr
  ==> Properties <==


Properties computed using the SCF density density matrix
  Nuclear Dipole Moment: (a.u.)
     X:    15.2970      Y:   -16.9516      Z:    44.9570

  Electronic Dipole Moment: (a.u.)
     X:   -15.7913      Y:    17.3535      Z:   -44.5084

  Dipole Moment: (a.u.)
     X:    -0.4943      Y:     0.4019      Z:     0.4486     Total:     0.7791

  Dipole Moment: (Debye)
     X:    -1.2563      Y:     1.0215      Z:     1.1402     Total:     1.9803


  Saving occupied orbitals to File 180.

  Saving SAPT 2-MONOMER_B file.

*** tstop() called on node33.bme.utexas.edu at Mon Jul  7 19:28:11 2014
Module time:
	user time   =      44.01 seconds =       0.73 minutes
	system time =       0.74 seconds =       0.01 minutes
	total time  =         13 seconds =       0.22 minutes
Total time:
	user time   =     177.64 seconds =       2.96 minutes
	system time =       2.33 seconds =       0.04 minutes
	total time  =         50 seconds =       0.83 minutes
  No DF_BASIS_SAPT auxiliary basis selected, defaulting to aug-cc-pvdz-ri

  //>>>>>>>>>>>>>>>>>>>>>>>>>>>>>>>>>>>//
  //               SAPT2+              //
  //<<<<<<<<<<<<<<<<<<<<<<<<<<<<<<<<<<<//


*** tstart() called on node33.bme.utexas.edu
*** at Mon Jul  7 19:28:11 2014

        SAPT2+  
    Ed Hohenstein
     6 June 2009

      Orbital Information
  --------------------------
    NSO        =       187
    NMO        =       187
    NRI        =       567
    NOCC A     =        25
    NOCC B     =         5
    FOCC A     =         9
    FOCC B     =         1
    NVIR A     =       162
    NVIR B     =       182

    Estimated memory usage: 647.1 MB

    Elst10,r            =    -0.048968136451 H
    Exch10 (S^2)        =     0.056747850420 H
    Exch10              =     0.057677680695 H
    Ind20,r (A<-B)      =    -0.011570688213 H
    Ind20,r (B<-A)      =    -0.018387858923 H
    Ind20,r             =    -0.029958547136 H
    Exch-Ind20,r (A<-B) =     0.007782201726 H
    Exch-Ind20,r (B<-A) =     0.009200669794 H
    Exch-Ind20,r        =     0.016982871521 H
    Disp20              =    -0.014463683837 H
    Exch-Disp20         =     0.003120527785 H
    Elst12,r            =     0.000281972711 H
    Exch11              =     0.000035200433 H
    Exch12              =     0.009006016921 H
    Ind22               =    -0.004992537990 H
    Disp21              =     0.001145093935 H
    Disp22 (SDQ)        =    -0.000778465797 H

    (i =   1 of   4)        181 seconds
    (i =   2 of   4)        311 seconds
    (i =   3 of   4)        406 seconds
    (i =   4 of   4)        501 seconds

    Disp220 (T)         =    -0.001275548914 H

    (i =   1 of  16)         18 seconds
    (i =   2 of  16)         36 seconds
    (i =   3 of  16)         54 seconds
    (i =   4 of  16)         72 seconds
    (i =   5 of  16)         89 seconds
    (i =   6 of  16)        107 seconds
    (i =   7 of  16)        125 seconds
    (i =   8 of  16)        143 seconds
    (i =   9 of  16)        160 seconds
    (i =  10 of  16)        178 seconds
    (i =  11 of  16)        196 seconds
    (i =  12 of  16)        213 seconds
    (i =  13 of  16)        231 seconds
    (i =  14 of  16)        249 seconds
    (i =  15 of  16)        267 seconds
    (i =  16 of  16)        284 seconds

    Disp202 (T)         =    -0.001054687672 H

    Disp22 (T)          =    -0.002330236586 H

    SAPT Results  
  -----------------------------------------------------------------------
    Electrostatics         -48.68616374 mH     -30.55103027 kcal mol^-1
      Elst10,r             -48.96813645 mH     -30.72797082 kcal mol^-1
      Elst12,r               0.28197271 mH       0.17694056 kcal mol^-1

    Exchange                66.71889805 mH      41.86674236 kcal mol^-1
      Exch10                57.67768070 mH      36.19329257 kcal mol^-1
      Exch10(S^2)           56.74785042 mH      35.60981524 kcal mol^-1
      Exch11(S^2)            0.03520043 mH       0.02208861 kcal mol^-1
      Exch12(S^2)            9.00601692 mH       5.65136117 kcal mol^-1

    Induction              -23.66801685 mH     -14.85190542 kcal mol^-1
      Ind20,r              -29.95854714 mH     -18.79927293 kcal mol^-1
      Ind22                 -4.99253799 mH      -3.13286502 kcal mol^-1
      Exch-Ind20,r          16.98287152 mH      10.65691322 kcal mol^-1
      Exch-Ind22             2.83016499 mH       1.77595542 kcal mol^-1
      delta HF,r (2)        -8.52996823 mH      -5.35263610 kcal mol^-1

    Dispersion             -13.30676450 mH      -8.35012114 kcal mol^-1
      Disp20               -14.46368384 mH      -9.07609901 kcal mol^-1
      Disp21                 1.14509393 mH       0.71855732 kcal mol^-1
      Disp22 (SDQ)          -0.77846580 mH      -0.48849468 kcal mol^-1
      Disp22 (T)            -2.33023659 mH      -1.46224559 kcal mol^-1
      Exch-Disp20            3.12052778 mH       1.95816083 kcal mol^-1

    Total HF               -12.79609960 mH      -8.02967406 kcal mol^-1
    Total SAPT0            -24.13925566 mH     -15.14761225 kcal mol^-1
    Total SAPT2            -16.97843859 mH     -10.65413151 kcal mol^-1
    Total SAPT2+           -18.94204704 mH     -11.88631447 kcal mol^-1

*** tstop() called on node33.bme.utexas.edu at Mon Jul  7 19:46:04 2014
Module time:
	user time   =    3887.81 seconds =      64.80 minutes
	system time =      53.29 seconds =       0.89 minutes
	total time  =       1073 seconds =      17.88 minutes
Total time:
	user time   =    4065.47 seconds =      67.76 minutes
	system time =      55.63 seconds =       0.93 minutes
	total time  =       1123 seconds =      18.72 minutes

*** PSI4 exiting successfully. Buy a developer a beer!
