    -----------------------------------------------------------------------
          PSI4: An Open-Source Ab Initio Electronic Structure Package
                              PSI 4.0.0-beta4 Driver

    J. M. Turney, A. C. Simmonett, R. M. Parrish, E. G. Hohenstein,
    F. A. Evangelista, J. T. Fermann, B. J. Mintz, L. A. Burns, J. J. Wilke,
    M. L. Abrams, N. J. Russ, M. L. Leininger, C. L. Janssen, E. T. Seidl,
    W. D. Allen, H. F. Schaefer, R. A. King, E. F. Valeev, C. D. Sherrill,
    and T. D. Crawford, WIREs Comput. Mol. Sci., (2011) (doi: 10.1002/wcms.93)

                         Additional Contributions by
    A. E. DePrince, M. Saitow, U. Bozkaya, A. Yu. Sokolov
    -----------------------------------------------------------------------

    Process ID:   3111
    PSI4DATADIR: /home/xzhu216/psi4/psi4-install/share/psi

    Using LocalCommunicator (Number of processes = 1)

    Memory level set to 256.000 MB

  ==> Input File <==

--------------------------------------------------------------------------
#psi4
#
memory 7 gb

molecule PO4H3_PO4H3 {
0 1
    P    -0.034539000    -0.218724000     1.198361000
    O     0.993977000    -0.661093000     0.063488000
    O     0.696451000     1.080589000     1.710835000
    O    -0.383498000    -1.249650000     2.200632000
    O    -1.353243000     0.254368000     0.433089000
    H     0.467834000     1.271443000     2.645306000
    H    -1.166891000     0.933211000    -0.225371000
    H     0.849665000    -1.579146000    -0.192288000
--
0 1
    P    -0.302522000     0.202105800     5.121362800
    O     0.840911000     0.550735800     6.179432800
    O    -0.212756000     1.402487800     4.010302800
    O    -1.656162000     0.110712800     5.695341800
    O     0.370552000    -0.984303200     4.360648800
    H    -0.954379000     2.000986800     4.161103800
    H    -0.013678000    -1.169837200     3.463004800
    H     0.431852000     0.717058800     7.035678800
units angstrom
no_reorient  #important for SAPT in psi4, default
symmetry c1  #important for SAPT in psi4, default
}

set {
basis aug-cc-pVDZ
scf_type DF
freeze_core True
}
energy('sapt2+')
--------------------------------------------------------------------------

  Memory set to   7.000 GiB by Python script.

  //>>>>>>>>>>>>>>>>>>>>>>>>>>>>>>>>>>>//
  //              Dimer HF             //
  //<<<<<<<<<<<<<<<<<<<<<<<<<<<<<<<<<<<//


  No DF_BASIS_SCF auxiliary basis selected, defaulting to aug-cc-pvdz-jkfit


*** tstart() called on node124.bme.utexas.edu
*** at Wed Jul  9 14:09:33 2014


         ---------------------------------------------------------
                                   SCF
            by Justin Turney, Rob Parrish, and Andy Simmonett
                              RHF Reference
                        4 Threads,   7000 MiB Core
         ---------------------------------------------------------

  ==> Geometry <==

    Molecular point group: c1
    Full point group: C1

    Geometry (in Angstrom), charge = 0, multiplicity = 1:

       Center              X                  Y                   Z       
    ------------   -----------------  -----------------  -----------------
           P          0.078168033650    -0.268404032012    -1.899819166848
           O          1.106684033650    -0.710773032012    -3.034692166848
           O          0.809158033650     1.030908967988    -1.387345166848
           O         -0.270790966350    -1.299330032012    -0.897548166848
           O         -1.240535966350     0.204687967988    -2.665091166848
           H          0.580541033650     1.221762967988    -0.452874166848
           H         -1.054183966350     0.883530967988    -3.323551166848
           H          0.962372033650    -1.628826032012    -3.290468166848
           P         -0.189814966350     0.152425767988     2.023182633152
           O          0.953618033650     0.501055767988     3.081252633152
           O         -0.100048966350     1.352807767988     0.912122633152
           O         -1.543454966350     0.061032767988     2.597161633152
           O          0.483259033650    -1.033983232012     1.262468633152
           H         -0.841671966350     1.951306767988     1.062923633152
           H          0.099029033650    -1.219517232012     0.364824633152
           H          0.544559033650     0.667378767988     3.937498633152

  Running in c1 symmetry.

  Nuclear repulsion =  890.710692959716312

  Charge       = 0
  Multiplicity = 1
  Electrons    = 100
  Nalpha       = 50
  Nbeta        = 50

  ==> Algorithm <==

  SCF Algorithm Type is DF.
  DIIS enabled.
  MOM disabled.
  Fractional occupation disabled.
  Guess Type is CORE.
  Energy threshold   = 1.00e-08
  Density threshold  = 1.00e-08
  Integral threshold = 0.00e+00

  ==> Primary Basis <==

  Basis Set: AUG-CC-PVDZ
    Number of shells: 124
    Number of basis function: 292
    Number of Cartesian functions: 312
    Spherical Harmonics?: true
    Max angular momentum: 2

  ==> Pre-Iterations <==

   -------------------------------------------------------
    Irrep   Nso     Nmo     Nalpha   Nbeta   Ndocc  Nsocc
   -------------------------------------------------------
     A        292     292       0       0       0       0
   -------------------------------------------------------
    Total     292     292      50      50      50       0
   -------------------------------------------------------

 OEINTS: Wrapper to libmints.
   by Justin Turney

   Calculation information:
      Number of atoms:                  16
      Number of AO shells:             124
      Number of SO shells:             124
      Number of primitives:            348
      Number of atomic orbitals:       312
      Number of basis functions:       292

      Number of irreps:                  1
      Number of functions per irrep: [ 292 ]

      Overlap, kinetic, potential, dipole, and quadrupole integrals
        stored in file 35.

  ==> Integral Setup <==

  ==> DFJK: Density-Fitted J/K Matrices <==

    J tasked:                  Yes
    K tasked:                  Yes
    wK tasked:                  No
    OpenMP threads:              4
    Integrals threads:           4
    Memory (MB):              5006
    Algorithm:                Core
    Integral Cache:           SAVE
    Schwarz Cutoff:          0E+00
    Fitting Condition:       1E-12

   => Auxiliary Basis Set <=

  Basis Set: aug-cc-pvdz-jkfit
    Number of shells: 376
    Number of basis function: 1136
    Number of Cartesian functions: 1318
    Spherical Harmonics?: true
    Max angular momentum: 3

  Minimum eigenvalue in the overlap matrix is 2.7441821148E-04.
  Using Symmetric Orthogonalization.
  SCF Guess: Core (One-Electron) Hamiltonian.

  Guess energy:  -974.75694364609092

  ==> Iterations <==

                        Total Energy        Delta E     RMS |[F,P]|

   @RHF iter   1: -1175.84097515450048   -1.17584e+03   3.48499e-02 
   @RHF iter   2: -1118.83288673995048    5.70081e+01   3.44773e-02 DIIS
   @RHF iter   3: -1214.00222105682542   -9.51693e+01   2.76646e-02 DIIS
   @RHF iter   4: -1264.80632044582626   -5.08041e+01   1.64117e-02 DIIS
   @RHF iter   5: -1245.44050127774017    1.93658e+01   1.96262e-02 DIIS
   @RHF iter   6: -1277.09458845786730   -3.16541e+01   8.40547e-03 DIIS
   @RHF iter   7: -1283.51618180297692   -6.42159e+00   4.27762e-03 DIIS
   @RHF iter   8: -1284.11545768515361   -5.99276e-01   1.14909e-03 DIIS
   @RHF iter   9: -1284.15682689702771   -4.13692e-02   6.64368e-04 DIIS
   @RHF iter  10: -1284.17116764157436   -1.43407e-02   3.95074e-04 DIIS
   @RHF iter  11: -1284.17654818474284   -5.38054e-03   1.99127e-04 DIIS
   @RHF iter  12: -1284.17796113527083   -1.41295e-03   8.81153e-05 DIIS
   @RHF iter  13: -1284.17828974867371   -3.28613e-04   3.11133e-05 DIIS
   @RHF iter  14: -1284.17833820557098   -4.84569e-05   1.04789e-05 DIIS
   @RHF iter  15: -1284.17834385731567   -5.65174e-06   2.49624e-06 DIIS
   @RHF iter  16: -1284.17834422756687   -3.70251e-07   7.61348e-07 DIIS
   @RHF iter  17: -1284.17834426470517   -3.71383e-08   1.84109e-07 DIIS
   @RHF iter  18: -1284.17834426792433   -3.21916e-09   7.29241e-08 DIIS
   @RHF iter  19: -1284.17834426826221   -3.37877e-10   2.53048e-08 DIIS
   @RHF iter  20: -1284.17834426831314   -5.09317e-11   6.38250e-09 DIIS

  ==> Post-Iterations <==

	Orbital Energies (a.u.)
	-----------------------

	Doubly Occupied:                                                      

	   1A    -80.175843     2A    -80.139600     3A    -20.642395  
	   4A    -20.639578     5A    -20.638872     6A    -20.615034  
	   7A    -20.611653     8A    -20.568190     9A    -20.567871  
	  10A    -20.527546    11A     -7.692241    12A     -7.656087  
	  13A     -5.591007    14A     -5.590493    15A     -5.590216  
	  16A     -5.554480    17A     -5.554203    18A     -5.554077  
	  19A     -1.496917    20A     -1.470804    21A     -1.419656  
	  22A     -1.415286    23A     -1.400590    24A     -1.388570  
	  25A     -1.348342    26A     -1.306700    27A     -0.905984  
	  28A     -0.870946    29A     -0.822112    30A     -0.779614  
	  31A     -0.767640    32A     -0.734647    33A     -0.710069  
	  34A     -0.691127    35A     -0.680423    36A     -0.672179  
	  37A     -0.649511    38A     -0.635069    39A     -0.608620  
	  40A     -0.587001    41A     -0.580085    42A     -0.573689  
	  43A     -0.569059    44A     -0.553441    45A     -0.539777  
	  46A     -0.533820    47A     -0.521635    48A     -0.502324  
	  49A     -0.472077    50A     -0.466245  

	Virtual:                                                              

	  51A      0.021385    52A      0.034505    53A      0.041629  
	  54A      0.054639    55A      0.070244    56A      0.079423  
	  57A      0.092502    58A      0.103332    59A      0.105835  
	  60A      0.117032    61A      0.123043    62A      0.135150  
	  63A      0.136702    64A      0.148092    65A      0.177701  
	  66A      0.186922    67A      0.187649    68A      0.195965  
	  69A      0.208541    70A      0.216435    71A      0.222017  
	  72A      0.234387    73A      0.238193    74A      0.243492  
	  75A      0.249891    76A      0.254537    77A      0.262816  
	  78A      0.264921    79A      0.269457    80A      0.280030  
	  81A      0.283999    82A      0.294550    83A      0.301079  
	  84A      0.302028    85A      0.304821    86A      0.312491  
	  87A      0.315281    88A      0.319154    89A      0.327524  
	  90A      0.329706    91A      0.335195    92A      0.339109  
	  93A      0.342810    94A      0.353884    95A      0.358621  
	  96A      0.362095    97A      0.370743    98A      0.379499  
	  99A      0.403298   100A      0.408920   101A      0.414632  
	 102A      0.415745   103A      0.428723   104A      0.435641  
	 105A      0.454284   106A      0.456808   107A      0.466846  
	 108A      0.480152   109A      0.489937   110A      0.495361  
	 111A      0.502339   112A      0.509818   113A      0.526788  
	 114A      0.531111   115A      0.542663   116A      0.549163  
	 117A      0.565995   118A      0.570966   119A      0.584099  
	 120A      0.595420   121A      0.603963   122A      0.618941  
	 123A      0.626644   124A      0.641524   125A      0.644317  
	 126A      0.646026   127A      0.652922   128A      0.660259  
	 129A      0.668377   130A      0.676706   131A      0.691992  
	 132A      0.700927   133A      0.713972   134A      0.726155  
	 135A      0.729942   136A      0.784840   137A      0.809104  
	 138A      0.853502   139A      0.857307   140A      0.869866  
	 141A      0.871990   142A      0.885387   143A      0.894890  
	 144A      0.902567   145A      0.914552   146A      0.930090  
	 147A      0.941125   148A      0.951051   149A      0.964592  
	 150A      0.970227   151A      0.986363   152A      1.001406  
	 153A      1.018548   154A      1.029757   155A      1.049475  
	 156A      1.068781   157A      1.081041   158A      1.092401  
	 159A      1.105855   160A      1.124102   161A      1.127670  
	 162A      1.148245   163A      1.172239   164A      1.180949  
	 165A      1.205535   166A      1.210378   167A      1.237879  
	 168A      1.241936   169A      1.245676   170A      1.262060  
	 171A      1.270601   172A      1.278686   173A      1.284361  
	 174A      1.293504   175A      1.295832   176A      1.300509  
	 177A      1.321023   178A      1.359148   179A      1.365920  
	 180A      1.392683   181A      1.412392   182A      1.415757  
	 183A      1.419655   184A      1.439240   185A      1.449088  
	 186A      1.456655   187A      1.494716   188A      1.514000  
	 189A      1.537111   190A      1.544898   191A      1.554652  
	 192A      1.586598   193A      1.595631   194A      1.607461  
	 195A      1.616787   196A      1.642635   197A      1.652768  
	 198A      1.664359   199A      1.674102   200A      1.700615  
	 201A      1.704978   202A      1.725513   203A      1.743929  
	 204A      1.768832   205A      1.782948   206A      1.803763  
	 207A      1.810027   208A      1.841231   209A      1.876361  
	 210A      1.919630   211A      1.938153   212A      1.949485  
	 213A      1.969989   214A      1.999392   215A      2.017650  
	 216A      2.019764   217A      2.083633   218A      2.117467  
	 219A      2.146295   220A      2.156948   221A      2.173652  
	 222A      2.184949   223A      2.216412   224A      2.247339  
	 225A      2.282958   226A      2.302087   227A      2.309615  
	 228A      2.369690   229A      2.445109   230A      2.465530  
	 231A      2.481614   232A      2.488968   233A      2.506702  
	 234A      2.528001   235A      2.538392   236A      2.598985  
	 237A      2.752818   238A      2.795375   239A      2.825252  
	 240A      2.855898   241A      2.888355   242A      2.910136  
	 243A      2.988617   244A      3.026092   245A      3.051935  
	 246A      3.070563   247A      3.089852   248A      3.110867  
	 249A      3.147886   250A      3.195389   251A      3.290298  
	 252A      3.371211   253A      3.610874   254A      3.612321  
	 255A      3.633885   256A      3.639855   257A      3.651176  
	 258A      3.655348   259A      3.658044   260A      3.662479  
	 261A      3.677229   262A      3.681799   263A      3.688543  
	 264A      3.695813   265A      3.704687   266A      3.715912  
	 267A      3.723572   268A      3.731839   269A      3.748830  
	 270A      3.750953   271A      3.779523   272A      3.782746  
	 273A      3.794886   274A      3.808443   275A      3.833747  
	 276A      3.840850   277A      3.862153   278A      3.877879  
	 279A      3.884117   280A      3.918023   281A      3.922102  
	 282A      3.933401   283A      3.947266   284A      3.979306  
	 285A      4.008746   286A      4.061484   287A      4.220167  
	 288A      4.233158   289A      4.252035   290A      4.262967  
	 291A      4.492175   292A      4.724143  

	Final Occupation by Irrep:
	          A 
	DOCC [    50 ]

  Energy converged.

  @RHF Final Energy: -1284.17834426831314

   => Energetics <=

    Nuclear Repulsion Energy =            890.7106929597163116
    One-Electron Energy =               -3548.6113799021632076
    Two-Electron Energy =                1373.7223426741320509
    DFT Exchange-Correlation Energy =       0.0000000000000000
    Empirical Dispersion Energy =           0.0000000000000000
    Total Energy =                      -1284.1783442683149588



Properties will be evaluated at   0.000000,   0.000000,   0.000000 Bohr
  ==> Properties <==


Properties computed using the SCF density density matrix
  Nuclear Dipole Moment: (a.u.)
     X:     0.3761      Y:     1.8656      Z:    -1.7094

  Electronic Dipole Moment: (a.u.)
     X:    -0.1767      Y:    -0.7769      Z:     0.1270

  Dipole Moment: (a.u.)
     X:     0.1994      Y:     1.0887      Z:    -1.5824     Total:     1.9310

  Dipole Moment: (Debye)
     X:     0.5069      Y:     2.7671      Z:    -4.0221     Total:     4.9082


  Saving occupied orbitals to File 180.

  Saving SAPT 2-DIMER file.

*** tstop() called on node124.bme.utexas.edu at Wed Jul  9 14:10:30 2014
Module time:
	user time   =     212.37 seconds =       3.54 minutes
	system time =       1.83 seconds =       0.03 minutes
	total time  =         57 seconds =       0.95 minutes
Total time:
	user time   =     212.37 seconds =       3.54 minutes
	system time =       1.83 seconds =       0.03 minutes
	total time  =         57 seconds =       0.95 minutes

  //>>>>>>>>>>>>>>>>>>>>>>>>>>>>>>>>>>>//
  //            Monomer A HF           //
  //<<<<<<<<<<<<<<<<<<<<<<<<<<<<<<<<<<<//


  No DF_BASIS_SCF auxiliary basis selected, defaulting to aug-cc-pvdz-jkfit


*** tstart() called on node124.bme.utexas.edu
*** at Wed Jul  9 14:10:30 2014


         ---------------------------------------------------------
                                   SCF
            by Justin Turney, Rob Parrish, and Andy Simmonett
                              RHF Reference
                        4 Threads,   7000 MiB Core
         ---------------------------------------------------------

  ==> Geometry <==

    Molecular point group: c1
    Full point group: C1

    Geometry (in Angstrom), charge = 0, multiplicity = 1:

       Center              X                  Y                   Z       
    ------------   -----------------  -----------------  -----------------
           P          0.078168033650    -0.268404032012    -1.899819166848
           O          1.106684033650    -0.710773032012    -3.034692166848
           O          0.809158033650     1.030908967988    -1.387345166848
           O         -0.270790966350    -1.299330032012    -0.897548166848
           O         -1.240535966350     0.204687967988    -2.665091166848
           H          0.580541033650     1.221762967988    -0.452874166848
           H         -1.054183966350     0.883530967988    -3.323551166848
           H          0.962372033650    -1.628826032012    -3.290468166848
           P(Gh)     -0.189814966350     0.152425767988     2.023182633152
           O(Gh)      0.953618033650     0.501055767988     3.081252633152
           O(Gh)     -0.100048966350     1.352807767988     0.912122633152
           O(Gh)     -1.543454966350     0.061032767988     2.597161633152
           O(Gh)      0.483259033650    -1.033983232012     1.262468633152
           H(Gh)     -0.841671966350     1.951306767988     1.062923633152
           H(Gh)      0.099029033650    -1.219517232012     0.364824633152
           H(Gh)      0.544559033650     0.667378767988     3.937498633152

  Running in c1 symmetry.

  Nuclear repulsion =  280.418444558346835

  Charge       = 0
  Multiplicity = 1
  Electrons    = 50
  Nalpha       = 25
  Nbeta        = 25

  ==> Algorithm <==

  SCF Algorithm Type is DF.
  DIIS enabled.
  MOM disabled.
  Fractional occupation disabled.
  Guess Type is CORE.
  Energy threshold   = 1.00e-08
  Density threshold  = 1.00e-08
  Integral threshold = 0.00e+00

  ==> Primary Basis <==

  Basis Set: AUG-CC-PVDZ
    Number of shells: 124
    Number of basis function: 292
    Number of Cartesian functions: 312
    Spherical Harmonics?: true
    Max angular momentum: 2

  ==> Pre-Iterations <==

   -------------------------------------------------------
    Irrep   Nso     Nmo     Nalpha   Nbeta   Ndocc  Nsocc
   -------------------------------------------------------
     A        292     292       0       0       0       0
   -------------------------------------------------------
    Total     292     292      25      25      25       0
   -------------------------------------------------------

 OEINTS: Wrapper to libmints.
   by Justin Turney

   Calculation information:
      Number of atoms:                  16
      Number of AO shells:             124
      Number of SO shells:             124
      Number of primitives:            348
      Number of atomic orbitals:       312
      Number of basis functions:       292

      Number of irreps:                  1
      Number of functions per irrep: [ 292 ]

      Overlap, kinetic, potential, dipole, and quadrupole integrals
        stored in file 35.

  ==> Integral Setup <==

  ==> DFJK: Density-Fitted J/K Matrices <==

    J tasked:                  Yes
    K tasked:                  Yes
    wK tasked:                  No
    OpenMP threads:              4
    Integrals threads:           4
    Memory (MB):              5006
    Algorithm:                Core
    Integral Cache:           LOAD
    Schwarz Cutoff:          0E+00
    Fitting Condition:       1E-12

   => Auxiliary Basis Set <=

  Basis Set: aug-cc-pvdz-jkfit
    Number of shells: 376
    Number of basis function: 1136
    Number of Cartesian functions: 1318
    Spherical Harmonics?: true
    Max angular momentum: 3

  Minimum eigenvalue in the overlap matrix is 2.7441821148E-04.
  Using Symmetric Orthogonalization.
  SCF Guess: Core (One-Electron) Hamiltonian.

  Guess energy:  -481.58766284000131

  ==> Iterations <==

                        Total Energy        Delta E     RMS |[F,P]|

   @RHF iter   1:  -606.20277325433540   -6.06203e+02   2.44353e-02 
   @RHF iter   2:  -568.17183560377657    3.80309e+01   2.44211e-02 DIIS
   @RHF iter   3:  -637.83240286702744   -6.96606e+01   1.14856e-02 DIIS
   @RHF iter   4:  -641.07828207676403   -3.24588e+00   5.00333e-03 DIIS
   @RHF iter   5:  -642.02503098725379   -9.46749e-01   1.11695e-03 DIIS
   @RHF iter   6:  -642.07638527377981   -5.13543e-02   5.68695e-04 DIIS
   @RHF iter   7:  -642.08683697385595   -1.04517e-02   9.46626e-05 DIIS
   @RHF iter   8:  -642.08740597139558   -5.68998e-04   1.34128e-05 DIIS
   @RHF iter   9:  -642.08741949103364   -1.35196e-05   4.94926e-06 DIIS
   @RHF iter  10:  -642.08742087866472   -1.38763e-06   1.91542e-06 DIIS
   @RHF iter  11:  -642.08742110524418   -2.26579e-07   4.43006e-07 DIIS
   @RHF iter  12:  -642.08742112174741   -1.65032e-08   8.97981e-08 DIIS
   @RHF iter  13:  -642.08742112271784   -9.70431e-10   2.68145e-08 DIIS
   @RHF iter  14:  -642.08742112280333   -8.54925e-11   1.04766e-08 DIIS
   @RHF iter  15:  -642.08742112281266   -9.32232e-12   3.62210e-09 DIIS

  ==> Post-Iterations <==

	Orbital Energies (a.u.)
	-----------------------

	Doubly Occupied:                                                      

	   1A    -80.149164     2A    -20.633175     3A    -20.625433  
	   4A    -20.623257     5A    -20.525908     6A     -7.666141  
	   7A     -5.564612     8A     -5.564353     9A     -5.563928  
	  10A     -1.481698    11A     -1.408742    12A     -1.403318  
	  13A     -1.303853    14A     -0.883487    15A     -0.794736  
	  16A     -0.737635    17A     -0.680939    18A     -0.666373  
	  19A     -0.661376    20A     -0.598895    21A     -0.570201  
	  22A     -0.557202    23A     -0.538730    24A     -0.472835  
	  25A     -0.469103  

	Virtual:                                                              

	  26A      0.022391    27A      0.033809    28A      0.044409  
	  29A      0.056386    30A      0.061031    31A      0.072145  
	  32A      0.087754    33A      0.092503    34A      0.096947  
	  35A      0.108021    36A      0.115711    37A      0.118808  
	  38A      0.136829    39A      0.140370    40A      0.155138  
	  41A      0.176333    42A      0.181744    43A      0.190601  
	  44A      0.196513    45A      0.198777    46A      0.204128  
	  47A      0.221342    48A      0.229762    49A      0.237746  
	  50A      0.239869    51A      0.242973    52A      0.245846  
	  53A      0.247938    54A      0.264809    55A      0.266304  
	  56A      0.270687    57A      0.283706    58A      0.290426  
	  59A      0.292699    60A      0.300776    61A      0.306695  
	  62A      0.312307    63A      0.315896    64A      0.317168  
	  65A      0.331844    66A      0.335582    67A      0.345475  
	  68A      0.353658    69A      0.354327    70A      0.363435  
	  71A      0.373495    72A      0.378156    73A      0.399777  
	  74A      0.415403    75A      0.425959    76A      0.426445  
	  77A      0.446697    78A      0.451580    79A      0.456416  
	  80A      0.470927    81A      0.482257    82A      0.488347  
	  83A      0.503067    84A      0.508597    85A      0.511777  
	  86A      0.522154    87A      0.535172    88A      0.536665  
	  89A      0.538116    90A      0.544521    91A      0.559701  
	  92A      0.571826    93A      0.584803    94A      0.592867  
	  95A      0.606000    96A      0.614902    97A      0.618982  
	  98A      0.629836    99A      0.638339   100A      0.656290  
	 101A      0.658205   102A      0.667377   103A      0.677369  
	 104A      0.685373   105A      0.695037   106A      0.702981  
	 107A      0.713135   108A      0.734005   109A      0.765103  
	 110A      0.767777   111A      0.811834   112A      0.821638  
	 113A      0.855036   114A      0.859266   115A      0.888443  
	 116A      0.905229   117A      0.922879   118A      0.936945  
	 119A      0.947456   120A      0.967790   121A      0.990397  
	 122A      1.001587   123A      1.018723   124A      1.040885  
	 125A      1.047331   126A      1.056513   127A      1.071754  
	 128A      1.100047   129A      1.113810   130A      1.125610  
	 131A      1.133242   132A      1.142748   133A      1.149546  
	 134A      1.160279   135A      1.166866   136A      1.196082  
	 137A      1.206383   138A      1.212024   139A      1.220045  
	 140A      1.250670   141A      1.252919   142A      1.258114  
	 143A      1.268798   144A      1.272729   145A      1.289106  
	 146A      1.296756   147A      1.301621   148A      1.308668  
	 149A      1.314645   150A      1.323450   151A      1.331215  
	 152A      1.347547   153A      1.348666   154A      1.382225  
	 155A      1.387694   156A      1.399226   157A      1.411404  
	 158A      1.426055   159A      1.434123   160A      1.445074  
	 161A      1.460878   162A      1.478033   163A      1.503916  
	 164A      1.524976   165A      1.537726   166A      1.572353  
	 167A      1.578830   168A      1.599365   169A      1.605800  
	 170A      1.621311   171A      1.639319   172A      1.650515  
	 173A      1.665207   174A      1.674965   175A      1.690065  
	 176A      1.735609   177A      1.751175   178A      1.772165  
	 179A      1.781186   180A      1.820422   181A      1.823132  
	 182A      1.860204   183A      1.899353   184A      1.918390  
	 185A      1.940397   186A      1.942371   187A      1.985853  
	 188A      2.013929   189A      2.028034   190A      2.042581  
	 191A      2.071063   192A      2.080791   193A      2.147827  
	 194A      2.155432   195A      2.191866   196A      2.214717  
	 197A      2.263190   198A      2.296043   199A      2.299019  
	 200A      2.311167   201A      2.338361   202A      2.379165  
	 203A      2.440494   204A      2.474980   205A      2.494485  
	 206A      2.509017   207A      2.537866   208A      2.557480  
	 209A      2.580338   210A      2.617540   211A      2.710869  
	 212A      2.771147   213A      2.804492   214A      2.818344  
	 215A      2.851426   216A      2.888447   217A      2.918187  
	 218A      3.005785   219A      3.048597   220A      3.092666  
	 221A      3.107650   222A      3.124844   223A      3.186477  
	 224A      3.355273   225A      3.627745   226A      3.635227  
	 227A      3.649068   228A      3.664809   229A      3.674271  
	 230A      3.691504   231A      3.700816   232A      3.726492  
	 233A      3.739486   234A      3.771046   235A      3.785449  
	 236A      3.809766   237A      3.820834   238A      3.865033  
	 239A      3.905989   240A      3.929861   241A      3.953047  
	 242A      4.004458   243A      4.008545   244A      4.060693  
	 245A      4.165371   246A      4.194579   247A      4.239460  
	 248A      4.252843   249A      4.271932   250A      4.400438  
	 251A      4.417718   252A      4.899908   253A      4.919776  
	 254A      4.939299   255A      4.952457   256A      4.957677  
	 257A      4.975747   258A      5.005039   259A      5.013039  
	 260A      5.025420   261A      5.035283   262A      5.078519  
	 263A      5.113701   264A      5.173498   265A      5.188526  
	 266A      5.215706   267A      5.228495   268A      5.278633  
	 269A      5.458717   270A      5.479226   271A      5.718909  
	 272A      5.869989   273A      5.886016   274A      5.945676  
	 275A      6.027166   276A      6.083747   277A      6.142537  
	 278A      6.273630   279A      6.352408   280A      6.529136  
	 281A      6.721656   282A      6.918632   283A      7.000027  
	 284A      7.383798   285A     18.347250   286A     18.415022  
	 287A     18.746884   288A     33.502552   289A     33.507677  
	 290A     33.540530   291A     33.610810   292A    120.583682  

	Final Occupation by Irrep:
	          A 
	DOCC [    25 ]

  Energy converged.

  @RHF Final Energy:  -642.08742112281266

   => Energetics <=

    Nuclear Repulsion Energy =            280.4184445583468346
    One-Electron Energy =               -1444.7215522684816733
    Two-Electron Energy =                 522.2156865873246261
    DFT Exchange-Correlation Energy =       0.0000000000000000
    Empirical Dispersion Energy =           0.0000000000000000
    Total Energy =                       -642.0874211228101558



Properties will be evaluated at   0.000000,   0.000000,   0.000000 Bohr
  ==> Properties <==


Properties computed using the SCF density density matrix
  Nuclear Dipole Moment: (a.u.)
     X:     9.2547      Y:   -18.4166      Z:  -187.9174

  Electronic Dipole Moment: (a.u.)
     X:    -9.0261      Y:    19.3367      Z:   187.1026

  Dipole Moment: (a.u.)
     X:     0.2286      Y:     0.9201      Z:    -0.8147     Total:     1.2500

  Dipole Moment: (Debye)
     X:     0.5810      Y:     2.3387      Z:    -2.0708     Total:     3.1773


  Saving occupied orbitals to File 180.

  Saving SAPT 2-MONOMER_A file.

*** tstop() called on node124.bme.utexas.edu at Wed Jul  9 14:11:01 2014
Module time:
	user time   =     115.31 seconds =       1.92 minutes
	system time =       1.01 seconds =       0.02 minutes
	total time  =         31 seconds =       0.52 minutes
Total time:
	user time   =     327.70 seconds =       5.46 minutes
	system time =       2.84 seconds =       0.05 minutes
	total time  =         88 seconds =       1.47 minutes

  //>>>>>>>>>>>>>>>>>>>>>>>>>>>>>>>>>>>//
  //            Monomer B HF           //
  //<<<<<<<<<<<<<<<<<<<<<<<<<<<<<<<<<<<//


  No DF_BASIS_SCF auxiliary basis selected, defaulting to aug-cc-pvdz-jkfit


*** tstart() called on node124.bme.utexas.edu
*** at Wed Jul  9 14:11:01 2014


         ---------------------------------------------------------
                                   SCF
            by Justin Turney, Rob Parrish, and Andy Simmonett
                              RHF Reference
                        4 Threads,   7000 MiB Core
         ---------------------------------------------------------

  ==> Geometry <==

    Molecular point group: c1
    Full point group: C1

    Geometry (in Angstrom), charge = 0, multiplicity = 1:

       Center              X                  Y                   Z       
    ------------   -----------------  -----------------  -----------------
           P(Gh)      0.078168033650    -0.268404032012    -1.899819166848
           O(Gh)      1.106684033650    -0.710773032012    -3.034692166848
           O(Gh)      0.809158033650     1.030908967988    -1.387345166848
           O(Gh)     -0.270790966350    -1.299330032012    -0.897548166848
           O(Gh)     -1.240535966350     0.204687967988    -2.665091166848
           H(Gh)      0.580541033650     1.221762967988    -0.452874166848
           H(Gh)     -1.054183966350     0.883530967988    -3.323551166848
           H(Gh)      0.962372033650    -1.628826032012    -3.290468166848
           P         -0.189814966350     0.152425767988     2.023182633152
           O          0.953618033650     0.501055767988     3.081252633152
           O         -0.100048966350     1.352807767988     0.912122633152
           O         -1.543454966350     0.061032767988     2.597161633152
           O          0.483259033650    -1.033983232012     1.262468633152
           H         -0.841671966350     1.951306767988     1.062923633152
           H          0.099029033650    -1.219517232012     0.364824633152
           H          0.544559033650     0.667378767988     3.937498633152

  Running in c1 symmetry.

  Nuclear repulsion =  279.725578610411105

  Charge       = 0
  Multiplicity = 1
  Electrons    = 50
  Nalpha       = 25
  Nbeta        = 25

  ==> Algorithm <==

  SCF Algorithm Type is DF.
  DIIS enabled.
  MOM disabled.
  Fractional occupation disabled.
  Guess Type is CORE.
  Energy threshold   = 1.00e-08
  Density threshold  = 1.00e-08
  Integral threshold = 0.00e+00

  ==> Primary Basis <==

  Basis Set: AUG-CC-PVDZ
    Number of shells: 124
    Number of basis function: 292
    Number of Cartesian functions: 312
    Spherical Harmonics?: true
    Max angular momentum: 2

  ==> Pre-Iterations <==

   -------------------------------------------------------
    Irrep   Nso     Nmo     Nalpha   Nbeta   Ndocc  Nsocc
   -------------------------------------------------------
     A        292     292       0       0       0       0
   -------------------------------------------------------
    Total     292     292      25      25      25       0
   -------------------------------------------------------

 OEINTS: Wrapper to libmints.
   by Justin Turney

   Calculation information:
      Number of atoms:                  16
      Number of AO shells:             124
      Number of SO shells:             124
      Number of primitives:            348
      Number of atomic orbitals:       312
      Number of basis functions:       292

      Number of irreps:                  1
      Number of functions per irrep: [ 292 ]

      Overlap, kinetic, potential, dipole, and quadrupole integrals
        stored in file 35.

  ==> Integral Setup <==

  ==> DFJK: Density-Fitted J/K Matrices <==

    J tasked:                  Yes
    K tasked:                  Yes
    wK tasked:                  No
    OpenMP threads:              4
    Integrals threads:           4
    Memory (MB):              5006
    Algorithm:                Core
    Integral Cache:           LOAD
    Schwarz Cutoff:          0E+00
    Fitting Condition:       1E-12

   => Auxiliary Basis Set <=

  Basis Set: aug-cc-pvdz-jkfit
    Number of shells: 376
    Number of basis function: 1136
    Number of Cartesian functions: 1318
    Spherical Harmonics?: true
    Max angular momentum: 3

  Minimum eigenvalue in the overlap matrix is 2.7441821148E-04.
  Using Symmetric Orthogonalization.
  SCF Guess: Core (One-Electron) Hamiltonian.

  Guess energy:  -481.45390163125745

  ==> Iterations <==

                        Total Energy        Delta E     RMS |[F,P]|

   @RHF iter   1:  -606.45389968122436   -6.06454e+02   2.43453e-02 
   @RHF iter   2:  -565.08044626262654    4.13735e+01   2.46316e-02 DIIS
   @RHF iter   3:  -637.86316327221220   -7.27827e+01   1.13777e-02 DIIS
   @RHF iter   4:  -641.13697607594531   -3.27381e+00   4.82026e-03 DIIS
   @RHF iter   5:  -642.03626219425223   -8.99286e-01   9.56517e-04 DIIS
   @RHF iter   6:  -642.08060578171990   -4.43436e-02   4.03521e-04 DIIS
   @RHF iter   7:  -642.08598615743631   -5.38038e-03   9.96391e-05 DIIS
   @RHF iter   8:  -642.08658320723453   -5.97050e-04   1.60668e-05 DIIS
   @RHF iter   9:  -642.08660206019817   -1.88530e-05   6.22617e-06 DIIS
   @RHF iter  10:  -642.08660442474866   -2.36455e-06   2.23557e-06 DIIS
   @RHF iter  11:  -642.08660476249156   -3.37743e-07   5.30843e-07 DIIS
   @RHF iter  12:  -642.08660478576667   -2.32751e-08   1.18439e-07 DIIS
   @RHF iter  13:  -642.08660478724255   -1.47588e-09   3.72050e-08 DIIS
   @RHF iter  14:  -642.08660478736942   -1.26875e-10   1.67144e-08 DIIS
   @RHF iter  15:  -642.08660478738852   -1.90994e-11   3.93409e-09 DIIS

  ==> Post-Iterations <==

	Orbital Energies (a.u.)
	-----------------------

	Doubly Occupied:                                                      

	   1A    -80.152205     2A    -20.635949     3A    -20.621955  
	   4A    -20.614448     5A    -20.536376     6A     -7.668589  
	   7A     -5.567224     8A     -5.566754     9A     -5.566348  
	  10A     -1.477563    11A     -1.406228    12A     -1.390988  
	  13A     -1.315232    14A     -0.883842    15A     -0.768999  
	  16A     -0.740500    17A     -0.694944    18A     -0.653639  
	  19A     -0.636807    20A     -0.598152    21A     -0.590061  
	  22A     -0.552530    23A     -0.536986    24A     -0.480602  
	  25A     -0.476212  

	Virtual:                                                              

	  26A      0.019531    27A      0.036688    28A      0.043198  
	  29A      0.054538    30A      0.059476    31A      0.066274  
	  32A      0.081946    33A      0.091364    34A      0.096546  
	  35A      0.106871    36A      0.111436    37A      0.121746  
	  38A      0.129153    39A      0.137687    40A      0.149423  
	  41A      0.175261    42A      0.183127    43A      0.184623  
	  44A      0.195308    45A      0.198128    46A      0.205413  
	  47A      0.210682    48A      0.221012    49A      0.226343  
	  50A      0.234399    51A      0.237227    52A      0.244239  
	  53A      0.248119    54A      0.260070    55A      0.264655  
	  56A      0.272018    57A      0.277126    58A      0.287081  
	  59A      0.291897    60A      0.297650    61A      0.302407  
	  62A      0.305941    63A      0.313475    64A      0.318522  
	  65A      0.328625    66A      0.330796    67A      0.338357  
	  68A      0.346713    69A      0.357827    70A      0.360324  
	  71A      0.374333    72A      0.380079    73A      0.395353  
	  74A      0.414438    75A      0.418621    76A      0.431816  
	  77A      0.442310    78A      0.460138    79A      0.463611  
	  80A      0.471901    81A      0.479347    82A      0.484633  
	  83A      0.486316    84A      0.493253    85A      0.506948  
	  86A      0.523147    87A      0.531542    88A      0.534385  
	  89A      0.535735    90A      0.543821    91A      0.557598  
	  92A      0.564815    93A      0.570985    94A      0.583452  
	  95A      0.585000    96A      0.601580    97A      0.610162  
	  98A      0.627769    99A      0.636527   100A      0.642294  
	 101A      0.647754   102A      0.655113   103A      0.657430  
	 104A      0.694692   105A      0.702221   106A      0.702425  
	 107A      0.717229   108A      0.728430   109A      0.750913  
	 110A      0.756728   111A      0.787045   112A      0.826553  
	 113A      0.850877   114A      0.861325   115A      0.870584  
	 116A      0.901274   117A      0.912303   118A      0.923219  
	 119A      0.946795   120A      0.948425   121A      0.964583  
	 122A      0.988387   123A      1.000011   124A      1.021865  
	 125A      1.039014   126A      1.052564   127A      1.066625  
	 128A      1.072362   129A      1.096611   130A      1.108170  
	 131A      1.124267   132A      1.131480   133A      1.148185  
	 134A      1.161530   135A      1.172045   136A      1.180467  
	 137A      1.193507   138A      1.207427   139A      1.219828  
	 140A      1.231222   141A      1.251784   142A      1.259369  
	 143A      1.268936   144A      1.275558   145A      1.282419  
	 146A      1.296881   147A      1.299162   148A      1.314325  
	 149A      1.323031   150A      1.335887   151A      1.346519  
	 152A      1.359609   153A      1.363996   154A      1.371030  
	 155A      1.393203   156A      1.414672   157A      1.421563  
	 158A      1.422877   159A      1.433413   160A      1.459675  
	 161A      1.466753   162A      1.478725   163A      1.502779  
	 164A      1.514783   165A      1.524681   166A      1.538060  
	 167A      1.566954   168A      1.574956   169A      1.578093  
	 170A      1.610246   171A      1.631270   172A      1.647665  
	 173A      1.676951   174A      1.681923   175A      1.688795  
	 176A      1.717785   177A      1.728557   178A      1.736401  
	 179A      1.764136   180A      1.767573   181A      1.825066  
	 182A      1.832570   183A      1.849851   184A      1.892001  
	 185A      1.918436   186A      1.945204   187A      1.963677  
	 188A      1.994361   189A      2.017813   190A      2.069951  
	 191A      2.097580   192A      2.124001   193A      2.136970  
	 194A      2.163225   195A      2.182620   196A      2.223894  
	 197A      2.244282   198A      2.290449   199A      2.292825  
	 200A      2.317211   201A      2.361529   202A      2.395556  
	 203A      2.479010   204A      2.489077   205A      2.497757  
	 206A      2.520413   207A      2.527883   208A      2.549057  
	 209A      2.565552   210A      2.588692   211A      2.604898  
	 212A      2.728557   213A      2.800123   214A      2.845391  
	 215A      2.866442   216A      2.872671   217A      2.900440  
	 218A      2.943317   219A      3.032859   220A      3.083574  
	 221A      3.093461   222A      3.173796   223A      3.254239  
	 224A      3.300337   225A      3.638154   226A      3.644947  
	 227A      3.653621   228A      3.665079   229A      3.681714  
	 230A      3.705491   231A      3.728807   232A      3.731945  
	 233A      3.745920   234A      3.766154   235A      3.786127  
	 236A      3.809202   237A      3.817365   238A      3.827276  
	 239A      3.847335   240A      3.880046   241A      3.906168  
	 242A      3.937080   243A      3.985504   244A      4.071996  
	 245A      4.117589   246A      4.166743   247A      4.208860  
	 248A      4.237388   249A      4.267264   250A      4.328449  
	 251A      4.362353   252A      4.867242   253A      4.896420  
	 254A      4.902120   255A      4.940206   256A      4.960117  
	 257A      4.974849   258A      4.989589   259A      4.995888  
	 260A      5.033360   261A      5.037697   262A      5.054802  
	 263A      5.094930   264A      5.155868   265A      5.206593  
	 266A      5.259799   267A      5.271830   268A      5.411450  
	 269A      5.473210   270A      5.503900   271A      5.649552  
	 272A      5.814597   273A      5.899126   274A      5.985000  
	 275A      6.047408   276A      6.070338   277A      6.121412  
	 278A      6.288331   279A      6.356332   280A      6.477326  
	 281A      6.670064   282A      6.946505   283A      6.956549  
	 284A      7.234094   285A     18.370612   286A     18.417001  
	 287A     18.788761   288A     33.427539   289A     33.534162  
	 290A     33.537835   291A     33.570210   292A    120.567464  

	Final Occupation by Irrep:
	          A 
	DOCC [    25 ]

  Energy converged.

  @RHF Final Energy:  -642.08660478738852

   => Energetics <=

    Nuclear Repulsion Energy =            279.7255786104111053
    One-Electron Energy =               -1443.3580995583934055
    Two-Electron Energy =                 521.5459161605947429
    DFT Exchange-Correlation Energy =       0.0000000000000000
    Empirical Dispersion Energy =           0.0000000000000000
    Total Energy =                       -642.0866047873876141



Properties will be evaluated at   0.000000,   0.000000,   0.000000 Bohr
  ==> Properties <==


Properties computed using the SCF density density matrix
  Nuclear Dipole Moment: (a.u.)
     X:    -8.8785      Y:    20.2822      Z:   186.2080

  Electronic Dipole Moment: (a.u.)
     X:     9.0310      Y:   -20.0385      Z:  -186.6195

  Dipole Moment: (a.u.)
     X:     0.1524      Y:     0.2437      Z:    -0.4115     Total:     0.5020

  Dipole Moment: (Debye)
     X:     0.3875      Y:     0.6194      Z:    -1.0460     Total:     1.2759


  Saving occupied orbitals to File 180.

  Saving SAPT 2-MONOMER_B file.

*** tstop() called on node124.bme.utexas.edu at Wed Jul  9 14:11:33 2014
Module time:
	user time   =     115.24 seconds =       1.92 minutes
	system time =       1.13 seconds =       0.02 minutes
	total time  =         32 seconds =       0.53 minutes
Total time:
	user time   =     442.96 seconds =       7.38 minutes
	system time =       3.97 seconds =       0.07 minutes
	total time  =        120 seconds =       2.00 minutes
  No DF_BASIS_SAPT auxiliary basis selected, defaulting to aug-cc-pvdz-ri

  //>>>>>>>>>>>>>>>>>>>>>>>>>>>>>>>>>>>//
  //               SAPT2+              //
  //<<<<<<<<<<<<<<<<<<<<<<<<<<<<<<<<<<<//


*** tstart() called on node124.bme.utexas.edu
*** at Wed Jul  9 14:11:33 2014

        SAPT2+  
    Ed Hohenstein
     6 June 2009

      Orbital Information
  --------------------------
    NSO        =       292
    NMO        =       292
    NRI        =       898
    NOCC A     =        25
    NOCC B     =        25
    FOCC A     =         9
    FOCC B     =         9
    NVIR A     =       267
    NVIR B     =       267

    Estimated memory usage: 1581.5 MB

    Elst10,r            =    -0.084153847728 H
    Exch10 (S^2)        =     0.132562679231 H
    Exch10              =     0.137572743786 H
    Ind20,r (A<-B)      =    -0.041951270796 H
    Ind20,r (B<-A)      =    -0.034137026456 H
    Ind20,r             =    -0.076088297252 H
    Exch-Ind20,r (A<-B) =     0.020995715133 H
    Exch-Ind20,r (B<-A) =     0.021222170343 H
    Exch-Ind20,r        =     0.042217885476 H
    Disp20              =    -0.029182570325 H
    Exch-Disp20         =     0.006230393619 H
    Elst12,r            =     0.001927018201 H
    Exch11              =    -0.000308501140 H
    Exch12              =     0.015676699413 H
    Ind22               =    -0.011532819193 H
    Disp21              =     0.003747424859 H
    Disp22 (SDQ)        =    -0.001868222563 H

    (i =   1 of  16)        574 seconds
    (i =   2 of  16)       1148 seconds
    (i =   3 of  16)       1722 seconds
    (i =   4 of  16)       2296 seconds
    (i =   5 of  16)       2871 seconds
    (i =   6 of  16)       3444 seconds
    (i =   7 of  16)       4017 seconds
    (i =   8 of  16)       4591 seconds
    (i =   9 of  16)       5165 seconds
    (i =  10 of  16)       5739 seconds
    (i =  11 of  16)       6313 seconds
    (i =  12 of  16)       6888 seconds
    (i =  13 of  16)       7462 seconds
    (i =  14 of  16)       8035 seconds
    (i =  15 of  16)       8609 seconds
    (i =  16 of  16)       9184 seconds

    Disp220 (T)         =    -0.002415528685 H

    (i =   1 of  16)        575 seconds
    (i =   2 of  16)       1150 seconds
    (i =   3 of  16)       1725 seconds
    (i =   4 of  16)       2300 seconds
    (i =   5 of  16)       2875 seconds
    (i =   6 of  16)       3450 seconds
    (i =   7 of  16)       4025 seconds
    (i =   8 of  16)       4600 seconds
    (i =   9 of  16)       5175 seconds
    (i =  10 of  16)       5750 seconds
    (i =  11 of  16)       6325 seconds
    (i =  12 of  16)       6900 seconds
    (i =  13 of  16)       7476 seconds
    (i =  14 of  16)       8052 seconds
    (i =  15 of  16)       8627 seconds
    (i =  16 of  16)       9202 seconds

    Disp202 (T)         =    -0.002353243235 H

    Disp22 (T)          =    -0.004768771920 H

    SAPT Results  
  -----------------------------------------------------------------------
    Electrostatics         -82.22682953 mH     -51.59811668 kcal mol^-1
      Elst10,r             -84.15384773 mH     -52.80733891 kcal mol^-1
      Elst12,r               1.92701820 mH       1.20922223 kcal mol^-1

    Exchange               152.94094206 mH      95.97189408 kcal mol^-1
      Exch10               137.57274379 mH      86.32820367 kcal mol^-1
      Exch10(S^2)          132.56267923 mH      83.18434056 kcal mol^-1
      Exch11(S^2)           -0.30850114 mH      -0.19358740 kcal mol^-1
      Exch12(S^2)           15.67669941 mH       9.83727781 kcal mol^-1

    Induction              -62.87104411 mH     -39.45217745 kcal mol^-1
      Ind20,r              -76.08829725 mH     -47.74612936 kcal mol^-1
      Ind22                -11.53281919 mH      -7.23695361 kcal mol^-1
      Exch-Ind20,r          42.21788548 mH      26.49212421 kcal mol^-1
      Exch-Ind22             6.39902925 mH       4.01545165 kcal mol^-1
      delta HF,r (2)       -23.86684239 mH     -14.97667034 kcal mol^-1

    Dispersion             -25.84174633 mH     -16.21594132 kcal mol^-1
      Disp20               -29.18257033 mH     -18.31234011 kcal mol^-1
      Disp21                 3.74742486 mH       2.35154470 kcal mol^-1
      Disp22 (SDQ)          -1.86822256 mH      -1.17232741 kcal mol^-1
      Disp22 (T)            -4.76877192 mH      -2.99244968 kcal mol^-1
      Exch-Disp20            6.23039362 mH       3.90963118 kcal mol^-1

    Total HF                -4.31835811 mH      -2.70981074 kcal mol^-1
    Total SAPT0            -27.27053482 mH     -17.11251967 kcal mol^-1
    Total SAPT2            -15.10910828 mH      -9.48110899 kcal mol^-1
    Total SAPT2+           -17.99867791 mH     -11.29434138 kcal mol^-1

*** tstop() called on node124.bme.utexas.edu at Wed Jul  9 19:37:42 2014
Module time:
	user time   =   68971.43 seconds =    1149.52 minutes
	system time =     182.90 seconds =       3.05 minutes
	total time  =      19569 seconds =     326.15 minutes
Total time:
	user time   =   69414.39 seconds =    1156.91 minutes
	system time =     186.87 seconds =       3.11 minutes
	total time  =      19689 seconds =     328.15 minutes

*** PSI4 exiting successfully. Buy a developer a beer!
