
    -----------------------------------------------------------------------
          Psi4: An Open-Source Ab Initio Electronic Structure Package
                               Psi4 1.4a2.dev224 

                         Git: Rev {master} e453b16 


    R. M. Parrish, L. A. Burns, D. G. A. Smith, A. C. Simmonett,
    A. E. DePrince III, E. G. Hohenstein, U. Bozkaya, A. Yu. Sokolov,
    R. Di Remigio, R. M. Richard, J. F. Gonthier, A. M. James,
    H. R. McAlexander, A. Kumar, M. Saitow, X. Wang, B. P. Pritchard,
    P. Verma, H. F. Schaefer III, K. Patkowski, R. A. King, E. F. Valeev,
    F. A. Evangelista, J. M. Turney, T. D. Crawford, and C. D. Sherrill,
    J. Chem. Theory Comput. 13(7) pp 3185--3197 (2017).
    (doi: 10.1021/acs.jctc.7b00174)


                         Additional Contributions by
    P. Kraus, H. Kruse, M. H. Lechner, M. C. Schieber, R. A. Shaw,
    A. Alenaizan, R. Galvelis, Z. L. Glick, S. Lehtola, and J. P. Misiewicz

    -----------------------------------------------------------------------


    Psi4 started on: Thursday, 23 April 2020 05:19PM

    Process ID: 97647
    Host:       node91.bme.utexas.edu
    PSIDATADIR: /home/liuchw/anaconda3/envs/psi4env/share/psi4
    Memory:     500.0 MiB
    Threads:    8
    
  ==> Input File <==

--------------------------------------------------------------------------
#Generated by lconvert.py for sapt job

memory 20 GB

molecule  {
0 1
  P      -0.034540   -0.218720    1.198360
  O       0.993980   -0.661090    0.063490
  O       0.696450    1.080590    1.710840
  O      -0.383500   -1.249650    2.200630
  O      -1.353240    0.254370    0.433090
  H       0.467830    1.271440    2.645310
  H      -1.166890    0.933210   -0.225370
  H       0.849670   -1.579150   -0.192290
--
0 1
  P       0.067300    0.281920    6.383740
  O       1.210730    0.630550    7.441810
  O       0.157060    1.482300    5.272680
  O      -1.286350    0.190530    6.957720
  O       0.740370   -0.904490    5.623020
  H      -0.584560    2.080800    5.423480
  H       0.356140   -1.090020    4.725380
  H       0.801670    0.796870    8.298050
units angstrom
no_reorient
symmetry c1
}

set {
scf_type DF
basis aug-cc-pvdz
freeze_core True
guess SAD
}
energy('sapt2+')
--------------------------------------------------------------------------

  Memory set to  18.626 GiB by Python driver.

Scratch directory: /scratch/liuchw/

  //>>>>>>>>>>>>>>>>>>>>>>>>>>>>>>>>>>>//
  //              Dimer HF             //
  //<<<<<<<<<<<<<<<<<<<<<<<<<<<<<<<<<<<//


*** tstart() called on node91.bme.utexas.edu
*** at Thu Apr 23 17:19:22 2020

   => Loading Basis Set <=

    Name: AUG-CC-PVDZ
    Role: ORBITAL
    Keyword: BASIS
    atoms 1, 9       entry P          line   636 file /home/liuchw/anaconda3/envs/psi4env/share/psi4/basis/aug-cc-pvdz.gbs 
    atoms 2-5, 10-13 entry O          line   254 file /home/liuchw/anaconda3/envs/psi4env/share/psi4/basis/aug-cc-pvdz.gbs 
    atoms 6-8, 14-16 entry H          line    40 file /home/liuchw/anaconda3/envs/psi4env/share/psi4/basis/aug-cc-pvdz.gbs 


         ---------------------------------------------------------
                                   SCF
               by Justin Turney, Rob Parrish, Andy Simmonett
                          and Daniel G. A. Smith
                              RHF Reference
                        8 Threads,  19073 MiB Core
         ---------------------------------------------------------

  ==> Geometry <==

    Molecular point group: c1
    Full point group: C1

    Geometry (in Angstrom), charge = 0, multiplicity = 1:

       Center              X                  Y                   Z               Mass       
    ------------   -----------------  -----------------  -----------------  -----------------
         P           -0.106742129265    -0.308308207529    -2.531008659779    30.973761998420
         O            0.921777870735    -0.750678207529    -3.665878659779    15.994914619570
         O            0.624247870735     0.991001792471    -2.018528659779    15.994914619570
         O           -0.455702129265    -1.339238207529    -1.528738659779    15.994914619570
         O           -1.425442129265     0.164781792471    -3.296278659779    15.994914619570
         H            0.395627870735     1.181851792471    -1.084058659779     1.007825032230
         H           -1.239092129265     0.843621792471    -3.954738659779     1.007825032230
         H            0.777467870735    -1.668738207529    -3.921658659779     1.007825032230
         P           -0.004902129265     0.192331792471     2.654371340221    30.973761998420
         O            1.138527870735     0.540961792471     3.712441340221    15.994914619570
         O            0.084857870735     1.392711792471     1.543311340221    15.994914619570
         O           -1.358552129265     0.100941792471     3.228351340221    15.994914619570
         O            0.668167870735    -0.994078207529     1.893651340221    15.994914619570
         H           -0.656762129265     1.991211792471     1.694111340221     1.007825032230
         H            0.283937870735    -1.179608207529     0.996011340221     1.007825032230
         H            0.729467870735     0.707281792471     4.568681340221     1.007825032230

  Running in c1 symmetry.

  Rotational constants: A =      0.07519  B =      0.01074  C =      0.01069 [cm^-1]
  Rotational constants: A =   2254.04908  B =    322.09457  C =    320.42258 [MHz]
  Nuclear repulsion =  811.888854715129810

  Charge       = 0
  Multiplicity = 1
  Electrons    = 100
  Nalpha       = 50
  Nbeta        = 50

  ==> Algorithm <==

  SCF Algorithm Type is DF.
  DIIS enabled.
  MOM disabled.
  Fractional occupation disabled.
  Guess Type is SAD.
  Energy threshold   = 1.00e-08
  Density threshold  = 1.00e-08
  Integral threshold = 0.00e+00

  ==> Primary Basis <==

  Basis Set: AUG-CC-PVDZ
    Blend: AUG-CC-PVDZ
    Number of shells: 124
    Number of basis function: 292
    Number of Cartesian functions: 312
    Spherical Harmonics?: true
    Max angular momentum: 2

   => Loading Basis Set <=

    Name: (AUG-CC-PVDZ AUX)
    Role: JKFIT
    Keyword: DF_BASIS_SCF
    atoms 1, 9       entry P          line   608 file /home/liuchw/anaconda3/envs/psi4env/share/psi4/basis/aug-cc-pvdz-jkfit.gbs 
    atoms 2-5, 10-13 entry O          line   270 file /home/liuchw/anaconda3/envs/psi4env/share/psi4/basis/aug-cc-pvdz-jkfit.gbs 
    atoms 6-8, 14-16 entry H          line    70 file /home/liuchw/anaconda3/envs/psi4env/share/psi4/basis/aug-cc-pvdz-jkfit.gbs 

  ==> Pre-Iterations <==

   -------------------------------------------------------
    Irrep   Nso     Nmo     Nalpha   Nbeta   Ndocc  Nsocc
   -------------------------------------------------------
     A        292     292       0       0       0       0
   -------------------------------------------------------
    Total     292     292      50      50      50       0
   -------------------------------------------------------

  ==> Integral Setup <==

  ==> DiskDFJK: Density-Fitted J/K Matrices <==

    J tasked:                  Yes
    K tasked:                  Yes
    wK tasked:                  No
    OpenMP threads:              8
    Integrals threads:           8
    Memory [MiB]:            14305
    Algorithm:                Core
    Integral Cache:           SAVE
    Schwarz Cutoff:          1E-12
    Fitting Condition:       1E-10

   => Auxiliary Basis Set <=

  Basis Set: (AUG-CC-PVDZ AUX)
    Blend: AUG-CC-PVDZ-JKFIT
    Number of shells: 376
    Number of basis function: 1136
    Number of Cartesian functions: 1318
    Spherical Harmonics?: true
    Max angular momentum: 3

  Minimum eigenvalue in the overlap matrix is 4.2408875748E-04.
  Using Symmetric Orthogonalization.

  SCF Guess: Superposition of Atomic Densities via on-the-fly atomic UHF.

  ==> Iterations <==

                           Total Energy        Delta E     RMS |[F,P]|

   @DF-RHF iter SAD: -1282.89736297244076   -1.28290e+03   0.00000e+00 
   @DF-RHF iter   1: -1283.71197731695020   -8.14614e-01   3.73808e-03 DIIS
   @DF-RHF iter   2: -1284.02223458442631   -3.10257e-01   2.29623e-03 DIIS
   @DF-RHF iter   3: -1284.17927015676310   -1.57036e-01   2.40951e-04 DIIS
   @DF-RHF iter   4: -1284.18176933220070   -2.49918e-03   1.19874e-04 DIIS
   @DF-RHF iter   5: -1284.18232124831206   -5.51916e-04   2.11128e-05 DIIS
   @DF-RHF iter   6: -1284.18235080551290   -2.95572e-05   4.94897e-06 DIIS
   @DF-RHF iter   7: -1284.18235324863645   -2.44312e-06   1.45631e-06 DIIS
   @DF-RHF iter   8: -1284.18235339112425   -1.42488e-07   5.96556e-07 DIIS
   @DF-RHF iter   9: -1284.18235341439117   -2.32669e-08   1.72255e-07 DIIS
   @DF-RHF iter  10: -1284.18235341668742   -2.29625e-09   5.79778e-08 DIIS
   @DF-RHF iter  11: -1284.18235341697232   -2.84899e-10   2.12303e-08 DIIS
   @DF-RHF iter  12: -1284.18235341700256   -3.02407e-11   8.21902e-09 DIIS
  Energy and wave function converged.


  ==> Post-Iterations <==

    Orbital Energies [Eh]
    ---------------------

    Doubly Occupied:                                                      

       1A    -80.160705     2A    -80.150524     3A    -20.637510  
       4A    -20.633519     5A    -20.630887     6A    -20.624599  
       7A    -20.622209     8A    -20.620340     9A    -20.542184  
      10A    -20.533578    11A     -7.677513    12A     -7.666883  
      13A     -5.576008    14A     -5.575758    15A     -5.575337  
      16A     -5.565397    17A     -5.565039    18A     -5.564752  
      19A     -1.489299    20A     -1.474314    21A     -1.414638  
      22A     -1.411141    23A     -1.400656    24A     -1.395530  
      25A     -1.320525    26A     -1.312955    27A     -0.890789  
      28A     -0.880027    29A     -0.802987    30A     -0.769388  
      31A     -0.744062    32A     -0.736554    33A     -0.696156  
      34A     -0.689481    35A     -0.673971    36A     -0.669039  
      37A     -0.652280    38A     -0.636642    39A     -0.605821  
      40A     -0.592647    41A     -0.588471    42A     -0.580429  
      43A     -0.569365    44A     -0.550339    45A     -0.545725  
      46A     -0.540776    47A     -0.490145    48A     -0.485938  
      49A     -0.477119    50A     -0.474953  

    Virtual:                                                              

      51A      0.022747    52A      0.034540    53A      0.042733  
      54A      0.051771    55A      0.067835    56A      0.075111  
      57A      0.091852    58A      0.096809    59A      0.107068  
      60A      0.112553    61A      0.116357    62A      0.131754  
      63A      0.135563    64A      0.146524    65A      0.170156  
      66A      0.182841    67A      0.186910    68A      0.192858  
      69A      0.196269    70A      0.199790    71A      0.207575  
      72A      0.214321    73A      0.229309    74A      0.233915  
      75A      0.237981    76A      0.246327    77A      0.251500  
      78A      0.260014    79A      0.265127    80A      0.268520  
      81A      0.270129    82A      0.281736    83A      0.285090  
      84A      0.292152    85A      0.298090    86A      0.300553  
      87A      0.307371    88A      0.312214    89A      0.314962  
      90A      0.317041    91A      0.325820    92A      0.328779  
      93A      0.332740    94A      0.339672    95A      0.345379  
      96A      0.349993    97A      0.354932    98A      0.363571  
      99A      0.367383   100A      0.378520   101A      0.385850  
     102A      0.394827   103A      0.403602   104A      0.407562  
     105A      0.425417   106A      0.427177   107A      0.440391  
     108A      0.455643   109A      0.461720   110A      0.469943  
     111A      0.477856   112A      0.481704   113A      0.492052  
     114A      0.498999   115A      0.519066   116A      0.531199  
     117A      0.544533   118A      0.548199   119A      0.556994  
     120A      0.569733   121A      0.572769   122A      0.586940  
     123A      0.602578   124A      0.611592   125A      0.615977  
     126A      0.624888   127A      0.641271   128A      0.649653  
     129A      0.651010   130A      0.656222   131A      0.665911  
     132A      0.666770   133A      0.686546   134A      0.690088  
     135A      0.694171   136A      0.717372   137A      0.782153  
     138A      0.790013   139A      0.815513   140A      0.836744  
     141A      0.840942   142A      0.860437   143A      0.863420  
     144A      0.869563   145A      0.887755   146A      0.897319  
     147A      0.902074   148A      0.921390   149A      0.940105  
     150A      0.952316   151A      0.958864   152A      0.968922  
     153A      0.981684   154A      1.001552   155A      1.023829  
     156A      1.039995   157A      1.059592   158A      1.067248  
     159A      1.089695   160A      1.098688   161A      1.107796  
     162A      1.116208   163A      1.135034   164A      1.151752  
     165A      1.156726   166A      1.175720   167A      1.201776  
     168A      1.214122   169A      1.221088   170A      1.239543  
     171A      1.241838   172A      1.256533   173A      1.261512  
     174A      1.268138   175A      1.277266   176A      1.282730  
     177A      1.289110   178A      1.297300   179A      1.318635  
     180A      1.343120   181A      1.354552   182A      1.384042  
     183A      1.391658   184A      1.409115   185A      1.419025  
     186A      1.425669   187A      1.448160   188A      1.454828  
     189A      1.466299   190A      1.482289   191A      1.498340  
     192A      1.513174   193A      1.539119   194A      1.549443  
     195A      1.562790   196A      1.580286   197A      1.591075  
     198A      1.597291   199A      1.616667   200A      1.634652  
     201A      1.636339   202A      1.669054   203A      1.685378  
     204A      1.699814   205A      1.711664   206A      1.728510  
     207A      1.753439   208A      1.771699   209A      1.824785  
     210A      1.846226   211A      1.887017   212A      1.890221  
     213A      1.900700   214A      1.914906   215A      1.961294  
     216A      1.974186   217A      2.001800   218A      2.034673  
     219A      2.053844   220A      2.103053   221A      2.120836  
     222A      2.125023   223A      2.147509   224A      2.156975  
     225A      2.179173   226A      2.192972   227A      2.271786  
     228A      2.279229   229A      2.286105   230A      2.289902  
     231A      2.353943   232A      2.370602   233A      2.471519  
     234A      2.475132   235A      2.488165   236A      2.491190  
     237A      2.594030   238A      2.608934   239A      2.751122  
     240A      2.769491   241A      2.801547   242A      2.814168  
     243A      2.867331   244A      2.875363   245A      2.985822  
     246A      3.013116   247A      3.036879   248A      3.053967  
     249A      3.083731   250A      3.091356   251A      3.119077  
     252A      3.124388   253A      3.600129   254A      3.604869  
     255A      3.622071   256A      3.625917   257A      3.631755  
     258A      3.639629   259A      3.642591   260A      3.648791  
     261A      3.651208   262A      3.657594   263A      3.666055  
     264A      3.671077   265A      3.680281   266A      3.698760  
     267A      3.711403   268A      3.714880   269A      3.723443  
     270A      3.724884   271A      3.734898   272A      3.748148  
     273A      3.753146   274A      3.768344   275A      3.774578  
     276A      3.792781   277A      3.809658   278A      3.826936  
     279A      3.846502   280A      3.860939   281A      3.866543  
     282A      3.874293   283A      3.880204   284A      3.893997  
     285A      3.953493   286A      3.960064   287A      4.166434  
     288A      4.199192   289A      4.222734   290A      4.235630  
     291A      4.241684   292A      4.270709  

    Final Occupation by Irrep:
              A 
    DOCC [    50 ]

  @DF-RHF Final Energy: -1284.18235341700256

   => Energetics <=

    Nuclear Repulsion Energy =            811.8888547151298098
    One-Electron Energy =               -3391.1725991021198752
    Two-Electron Energy =                1295.1013909699877331
    Total Energy =                      -1284.1823534170025596

Computation Completed


Properties will be evaluated at   0.000000,   0.000000,   0.000000 [a0]

Properties computed using the SCF density matrix

  Nuclear Dipole Moment: [e a0]
     X:     0.3761      Y:     1.8656      Z:    -1.7094

  Electronic Dipole Moment: [e a0]
     X:    -0.0253      Y:    -0.7503      Z:     0.4101

  Dipole Moment: [e a0]
     X:     0.3508      Y:     1.1153      Z:    -1.2993     Total:     1.7479

  Dipole Moment: [D]
     X:     0.8916      Y:     2.8347      Z:    -3.3024     Total:     4.4426


*** tstop() called on node91.bme.utexas.edu at Thu Apr 23 17:19:32 2020
Module time:
	user time   =      70.89 seconds =       1.18 minutes
	system time =       1.66 seconds =       0.03 minutes
	total time  =         10 seconds =       0.17 minutes
Total time:
	user time   =      70.89 seconds =       1.18 minutes
	system time =       1.66 seconds =       0.03 minutes
	total time  =         10 seconds =       0.17 minutes

  //>>>>>>>>>>>>>>>>>>>>>>>>>>>>>>>>>>>//
  //            Monomer A HF           //
  //<<<<<<<<<<<<<<<<<<<<<<<<<<<<<<<<<<<//


*** tstart() called on node91.bme.utexas.edu
*** at Thu Apr 23 17:19:32 2020

   => Loading Basis Set <=

    Name: AUG-CC-PVDZ
    Role: ORBITAL
    Keyword: BASIS
    atoms 1, 9       entry P          line   636 file /home/liuchw/anaconda3/envs/psi4env/share/psi4/basis/aug-cc-pvdz.gbs 
    atoms 2-5, 10-13 entry O          line   254 file /home/liuchw/anaconda3/envs/psi4env/share/psi4/basis/aug-cc-pvdz.gbs 
    atoms 6-8, 14-16 entry H          line    40 file /home/liuchw/anaconda3/envs/psi4env/share/psi4/basis/aug-cc-pvdz.gbs 


         ---------------------------------------------------------
                                   SCF
               by Justin Turney, Rob Parrish, Andy Simmonett
                          and Daniel G. A. Smith
                              RHF Reference
                        8 Threads,  19073 MiB Core
         ---------------------------------------------------------

  ==> Geometry <==

    Molecular point group: c1
    Full point group: C1

    Geometry (in Angstrom), charge = 0, multiplicity = 1:

       Center              X                  Y                   Z               Mass       
    ------------   -----------------  -----------------  -----------------  -----------------
         P           -0.106742129265    -0.308308207529    -2.531008659779    30.973761998420
         O            0.921777870735    -0.750678207529    -3.665878659779    15.994914619570
         O            0.624247870735     0.991001792471    -2.018528659779    15.994914619570
         O           -0.455702129265    -1.339238207529    -1.528738659779    15.994914619570
         O           -1.425442129265     0.164781792471    -3.296278659779    15.994914619570
         H            0.395627870735     1.181851792471    -1.084058659779     1.007825032230
         H           -1.239092129265     0.843621792471    -3.954738659779     1.007825032230
         H            0.777467870735    -1.668738207529    -3.921658659779     1.007825032230
      Gh(P)          -0.004902129265     0.192331792471     2.654371340221    30.973761998420
      Gh(O)           1.138527870735     0.540961792471     3.712441340221    15.994914619570
      Gh(O)           0.084857870735     1.392711792471     1.543311340221    15.994914619570
      Gh(O)          -1.358552129265     0.100941792471     3.228351340221    15.994914619570
      Gh(O)           0.668167870735    -0.994078207529     1.893651340221    15.994914619570
      Gh(H)          -0.656762129265     1.991211792471     1.694111340221     1.007825032230
      Gh(H)           0.283937870735    -1.179608207529     0.996011340221     1.007825032230
      Gh(H)           0.729467870735     0.707281792471     4.568681340221     1.007825032230

  Running in c1 symmetry.

  Rotational constants: A =      0.07519  B =      0.01074  C =      0.01069 [cm^-1]
  Rotational constants: A =   2254.04908  B =    322.09457  C =    320.42258 [MHz]
  Nuclear repulsion =  280.418488878647395

  Charge       = 0
  Multiplicity = 1
  Electrons    = 50
  Nalpha       = 25
  Nbeta        = 25

  ==> Algorithm <==

  SCF Algorithm Type is DF.
  DIIS enabled.
  MOM disabled.
  Fractional occupation disabled.
  Guess Type is SAD.
  Energy threshold   = 1.00e-08
  Density threshold  = 1.00e-08
  Integral threshold = 0.00e+00

  ==> Primary Basis <==

  Basis Set: AUG-CC-PVDZ
    Blend: AUG-CC-PVDZ
    Number of shells: 124
    Number of basis function: 292
    Number of Cartesian functions: 312
    Spherical Harmonics?: true
    Max angular momentum: 2

   => Loading Basis Set <=

    Name: (AUG-CC-PVDZ AUX)
    Role: JKFIT
    Keyword: DF_BASIS_SCF
    atoms 1, 9       entry P          line   608 file /home/liuchw/anaconda3/envs/psi4env/share/psi4/basis/aug-cc-pvdz-jkfit.gbs 
    atoms 2-5, 10-13 entry O          line   270 file /home/liuchw/anaconda3/envs/psi4env/share/psi4/basis/aug-cc-pvdz-jkfit.gbs 
    atoms 6-8, 14-16 entry H          line    70 file /home/liuchw/anaconda3/envs/psi4env/share/psi4/basis/aug-cc-pvdz-jkfit.gbs 

  ==> Pre-Iterations <==

   -------------------------------------------------------
    Irrep   Nso     Nmo     Nalpha   Nbeta   Ndocc  Nsocc
   -------------------------------------------------------
     A        292     292       0       0       0       0
   -------------------------------------------------------
    Total     292     292      25      25      25       0
   -------------------------------------------------------

  ==> Integral Setup <==

  ==> DiskDFJK: Density-Fitted J/K Matrices <==

    J tasked:                  Yes
    K tasked:                  Yes
    wK tasked:                  No
    OpenMP threads:              8
    Integrals threads:           8
    Memory [MiB]:            14305
    Algorithm:                Core
    Integral Cache:           LOAD
    Schwarz Cutoff:          1E-12
    Fitting Condition:       1E-10

   => Auxiliary Basis Set <=

  Basis Set: (AUG-CC-PVDZ AUX)
    Blend: AUG-CC-PVDZ-JKFIT
    Number of shells: 376
    Number of basis function: 1136
    Number of Cartesian functions: 1318
    Spherical Harmonics?: true
    Max angular momentum: 3

  Minimum eigenvalue in the overlap matrix is 4.2408875748E-04.
  Using Symmetric Orthogonalization.

  SCF Guess: Superposition of Atomic Densities via on-the-fly atomic UHF.

  ==> Iterations <==

                           Total Energy        Delta E     RMS |[F,P]|

   @DF-RHF iter SAD:  -641.44591507306689   -6.41446e+02   0.00000e+00 
   @DF-RHF iter   1:  -641.84419260892537   -3.98278e-01   2.66869e-03 DIIS
   @DF-RHF iter   2:  -642.00193041827322   -1.57738e-01   1.66149e-03 DIIS
   @DF-RHF iter   3:  -642.08428104949098   -8.23506e-02   1.83127e-04 DIIS
   @DF-RHF iter   4:  -642.08565050048423   -1.36945e-03   8.93502e-05 DIIS
   @DF-RHF iter   5:  -642.08596240726513   -3.11907e-04   1.50897e-05 DIIS
   @DF-RHF iter   6:  -642.08597763187720   -1.52246e-05   3.51663e-06 DIIS
   @DF-RHF iter   7:  -642.08597890786609   -1.27599e-06   9.58480e-07 DIIS
   @DF-RHF iter   8:  -642.08597897089601   -6.30299e-08   3.92906e-07 DIIS
   @DF-RHF iter   9:  -642.08597898045866   -9.56265e-09   1.05447e-07 DIIS
   @DF-RHF iter  10:  -642.08597898123674   -7.78073e-10   2.84397e-08 DIIS
   @DF-RHF iter  11:  -642.08597898131643   -7.96945e-11   6.32271e-09 DIIS
  Energy and wave function converged.


  ==> Post-Iterations <==

    Orbital Energies [Eh]
    ---------------------

    Doubly Occupied:                                                      

       1A    -80.149711     2A    -20.633237     3A    -20.625462  
       4A    -20.623284     5A    -20.525726     6A     -7.666673  
       7A     -5.565133     8A     -5.564876     9A     -5.564442  
      10A     -1.481925    11A     -1.408907    12A     -1.403452  
      13A     -1.303997    14A     -0.883721    15A     -0.794871  
      16A     -0.737788    17A     -0.681085    18A     -0.666540  
      19A     -0.661548    20A     -0.598983    21A     -0.570324  
      22A     -0.557353    23A     -0.538880    24A     -0.472891  
      25A     -0.469174  

    Virtual:                                                              

      26A      0.022003    27A      0.032449    28A      0.044893  
      29A      0.052122    30A      0.060594    31A      0.066596  
      32A      0.085218    33A      0.092872    34A      0.095151  
      35A      0.104096    36A      0.110813    37A      0.118455  
      38A      0.137086    39A      0.140775    40A      0.147526  
      41A      0.167996    42A      0.174637    43A      0.183360  
      44A      0.187950    45A      0.195955    46A      0.198995  
      47A      0.208190    48A      0.221398    49A      0.223252  
      50A      0.230819    51A      0.233653    52A      0.237923  
      53A      0.243672    54A      0.255563    55A      0.261229  
      56A      0.264414    57A      0.272669    58A      0.278440  
      59A      0.283180    60A      0.289430    61A      0.294923  
      62A      0.300103    63A      0.307359    64A      0.313503  
      65A      0.323107    66A      0.325796    67A      0.329919  
      68A      0.339156    69A      0.343043    70A      0.348242  
      71A      0.353102    72A      0.366275    73A      0.375381  
      74A      0.379497    75A      0.405112    76A      0.409989  
      77A      0.422441    78A      0.436692    79A      0.453158  
      80A      0.458615    81A      0.462150    82A      0.468211  
      83A      0.479286    84A      0.482630    85A      0.496660  
      86A      0.499177    87A      0.508057    88A      0.514491  
      89A      0.517231    90A      0.535214    91A      0.539608  
      92A      0.551741    93A      0.554153    94A      0.563135  
      95A      0.572307    96A      0.591031    97A      0.597567  
      98A      0.604238    99A      0.611011   100A      0.617449  
     101A      0.628513   102A      0.633712   103A      0.648196  
     104A      0.656915   105A      0.664048   106A      0.678178  
     107A      0.687685   108A      0.697728   109A      0.711966  
     110A      0.720866   111A      0.761170   112A      0.770268  
     113A      0.800241   114A      0.823522   115A      0.853358  
     116A      0.882922   117A      0.886213   118A      0.902251  
     119A      0.922376   120A      0.929563   121A      0.936624  
     122A      0.946017   123A      0.972946   124A      0.987333  
     125A      0.999656   126A      1.032657   127A      1.044546  
     128A      1.066610   129A      1.079901   130A      1.086491  
     131A      1.109546   132A      1.114979   133A      1.125102  
     134A      1.132547   135A      1.152578   136A      1.167528  
     137A      1.175733   138A      1.187466   139A      1.198988  
     140A      1.208429   141A      1.228119   142A      1.230423  
     143A      1.237926   144A      1.247367   145A      1.258261  
     146A      1.265522   147A      1.270016   148A      1.284672  
     149A      1.290865   150A      1.298489   151A      1.300712  
     152A      1.317750   153A      1.325856   154A      1.329414  
     155A      1.344038   156A      1.363693   157A      1.365171  
     158A      1.375486   159A      1.389299   160A      1.407116  
     161A      1.412891   162A      1.421629   163A      1.446899  
     164A      1.466067   165A      1.476958   166A      1.487789  
     167A      1.506433   168A      1.527626   169A      1.529799  
     170A      1.559643   171A      1.585345   172A      1.598379  
     173A      1.627014   174A      1.629088   175A      1.637733  
     176A      1.657644   177A      1.671008   178A      1.697476  
     179A      1.714939   180A      1.737658   181A      1.758800  
     182A      1.789935   183A      1.825428   184A      1.841252  
     185A      1.876694   186A      1.896398   187A      1.902148  
     188A      1.966709   189A      1.976336   190A      1.999341  
     191A      2.011665   192A      2.028402   193A      2.045197  
     194A      2.130225   195A      2.143305   196A      2.163736  
     197A      2.168496   198A      2.249849   199A      2.256131  
     200A      2.285366   201A      2.292324   202A      2.310527  
     203A      2.331111   204A      2.367490   205A      2.466940  
     206A      2.479997   207A      2.490742   208A      2.496782  
     209A      2.525027   210A      2.544447   211A      2.570579  
     212A      2.584322   213A      2.597904   214A      2.624704  
     215A      2.771258   216A      2.785336   217A      2.813712  
     218A      2.841074   219A      2.877863   220A      2.918695  
     221A      3.000432   222A      3.061505   223A      3.091001  
     224A      3.126827   225A      3.609471   226A      3.615429  
     227A      3.636625   228A      3.642768   229A      3.654620  
     230A      3.660979   231A      3.672929   232A      3.680421  
     233A      3.712172   234A      3.730171   235A      3.755374  
     236A      3.772105   237A      3.791823   238A      3.803523  
     239A      3.819432   240A      3.828049   241A      3.880970  
     242A      3.888834   243A      3.914610   244A      3.963485  
     245A      3.980125   246A      4.099575   247A      4.172833  
     248A      4.211773   249A      4.229735   250A      4.249480  
     251A      4.253002   252A      4.873006   253A      4.902284  
     254A      4.917433   255A      4.935178   256A      4.947101  
     257A      4.964410   258A      4.979971   259A      4.986119  
     260A      5.005332   261A      5.011668   262A      5.033545  
     263A      5.048036   264A      5.080882   265A      5.091374  
     266A      5.161590   267A      5.187539   268A      5.220655  
     269A      5.410300   270A      5.456514   271A      5.597094  
     272A      5.796062   273A      5.849431   274A      5.923993  
     275A      5.984883   276A      6.021073   277A      6.068427  
     278A      6.223403   279A      6.295788   280A      6.369487  
     281A      6.473902   282A      6.896231   283A      6.918209  
     284A      7.003553   285A     18.304713   286A     18.397643  
     287A     18.728549   288A     33.497301   289A     33.521627  
     290A     33.537873   291A     33.556311   292A    120.575892  

    Final Occupation by Irrep:
              A 
    DOCC [    25 ]

  @DF-RHF Final Energy:  -642.08597898131643

   => Energetics <=

    Nuclear Repulsion Energy =            280.4184888786473948
    One-Electron Energy =               -1444.7089724123604810
    Two-Electron Energy =                 522.2045045523966564
    Total Energy =                       -642.0859789813164298

Computation Completed


Properties will be evaluated at   0.000000,   0.000000,   0.000000 [a0]

Properties computed using the SCF density matrix

  Nuclear Dipole Moment: [e a0]
     X:    -8.2167      Y:   -22.1872      Z:  -247.5560

  Electronic Dipole Moment: [e a0]
     X:     8.4452      Y:    23.1069      Z:   246.7386

  Dipole Moment: [e a0]
     X:     0.2285      Y:     0.9197      Z:    -0.8174     Total:     1.2514

  Dipole Moment: [D]
     X:     0.5807      Y:     2.3376      Z:    -2.0775     Total:     3.1808


*** tstop() called on node91.bme.utexas.edu at Thu Apr 23 17:19:37 2020
Module time:
	user time   =      32.77 seconds =       0.55 minutes
	system time =       0.93 seconds =       0.02 minutes
	total time  =          5 seconds =       0.08 minutes
Total time:
	user time   =     103.71 seconds =       1.73 minutes
	system time =       2.59 seconds =       0.04 minutes
	total time  =         15 seconds =       0.25 minutes

  //>>>>>>>>>>>>>>>>>>>>>>>>>>>>>>>>>>>//
  //            Monomer B HF           //
  //<<<<<<<<<<<<<<<<<<<<<<<<<<<<<<<<<<<//


*** tstart() called on node91.bme.utexas.edu
*** at Thu Apr 23 17:19:37 2020

   => Loading Basis Set <=

    Name: AUG-CC-PVDZ
    Role: ORBITAL
    Keyword: BASIS
    atoms 1, 9       entry P          line   636 file /home/liuchw/anaconda3/envs/psi4env/share/psi4/basis/aug-cc-pvdz.gbs 
    atoms 2-5, 10-13 entry O          line   254 file /home/liuchw/anaconda3/envs/psi4env/share/psi4/basis/aug-cc-pvdz.gbs 
    atoms 6-8, 14-16 entry H          line    40 file /home/liuchw/anaconda3/envs/psi4env/share/psi4/basis/aug-cc-pvdz.gbs 


         ---------------------------------------------------------
                                   SCF
               by Justin Turney, Rob Parrish, Andy Simmonett
                          and Daniel G. A. Smith
                              RHF Reference
                        8 Threads,  19073 MiB Core
         ---------------------------------------------------------

  ==> Geometry <==

    Molecular point group: c1
    Full point group: C1

    Geometry (in Angstrom), charge = 0, multiplicity = 1:

       Center              X                  Y                   Z               Mass       
    ------------   -----------------  -----------------  -----------------  -----------------
      Gh(P)          -0.106742129265    -0.308308207529    -2.531008659779    30.973761998420
      Gh(O)           0.921777870735    -0.750678207529    -3.665878659779    15.994914619570
      Gh(O)           0.624247870735     0.991001792471    -2.018528659779    15.994914619570
      Gh(O)          -0.455702129265    -1.339238207529    -1.528738659779    15.994914619570
      Gh(O)          -1.425442129265     0.164781792471    -3.296278659779    15.994914619570
      Gh(H)           0.395627870735     1.181851792471    -1.084058659779     1.007825032230
      Gh(H)          -1.239092129265     0.843621792471    -3.954738659779     1.007825032230
      Gh(H)           0.777467870735    -1.668738207529    -3.921658659779     1.007825032230
         P           -0.004902129265     0.192331792471     2.654371340221    30.973761998420
         O            1.138527870735     0.540961792471     3.712441340221    15.994914619570
         O            0.084857870735     1.392711792471     1.543311340221    15.994914619570
         O           -1.358552129265     0.100941792471     3.228351340221    15.994914619570
         O            0.668167870735    -0.994078207529     1.893651340221    15.994914619570
         H           -0.656762129265     1.991211792471     1.694111340221     1.007825032230
         H            0.283937870735    -1.179608207529     0.996011340221     1.007825032230
         H            0.729467870735     0.707281792471     4.568681340221     1.007825032230

  Running in c1 symmetry.

  Rotational constants: A =      0.07519  B =      0.01074  C =      0.01069 [cm^-1]
  Rotational constants: A =   2254.04908  B =    322.09457  C =    320.42258 [MHz]
  Nuclear repulsion =  279.725313589959853

  Charge       = 0
  Multiplicity = 1
  Electrons    = 50
  Nalpha       = 25
  Nbeta        = 25

  ==> Algorithm <==

  SCF Algorithm Type is DF.
  DIIS enabled.
  MOM disabled.
  Fractional occupation disabled.
  Guess Type is SAD.
  Energy threshold   = 1.00e-08
  Density threshold  = 1.00e-08
  Integral threshold = 0.00e+00

  ==> Primary Basis <==

  Basis Set: AUG-CC-PVDZ
    Blend: AUG-CC-PVDZ
    Number of shells: 124
    Number of basis function: 292
    Number of Cartesian functions: 312
    Spherical Harmonics?: true
    Max angular momentum: 2

   => Loading Basis Set <=

    Name: (AUG-CC-PVDZ AUX)
    Role: JKFIT
    Keyword: DF_BASIS_SCF
    atoms 1, 9       entry P          line   608 file /home/liuchw/anaconda3/envs/psi4env/share/psi4/basis/aug-cc-pvdz-jkfit.gbs 
    atoms 2-5, 10-13 entry O          line   270 file /home/liuchw/anaconda3/envs/psi4env/share/psi4/basis/aug-cc-pvdz-jkfit.gbs 
    atoms 6-8, 14-16 entry H          line    70 file /home/liuchw/anaconda3/envs/psi4env/share/psi4/basis/aug-cc-pvdz-jkfit.gbs 

  ==> Pre-Iterations <==

   -------------------------------------------------------
    Irrep   Nso     Nmo     Nalpha   Nbeta   Ndocc  Nsocc
   -------------------------------------------------------
     A        292     292       0       0       0       0
   -------------------------------------------------------
    Total     292     292      25      25      25       0
   -------------------------------------------------------

  ==> Integral Setup <==

  ==> DiskDFJK: Density-Fitted J/K Matrices <==

    J tasked:                  Yes
    K tasked:                  Yes
    wK tasked:                  No
    OpenMP threads:              8
    Integrals threads:           8
    Memory [MiB]:            14305
    Algorithm:                Core
    Integral Cache:           LOAD
    Schwarz Cutoff:          1E-12
    Fitting Condition:       1E-10

   => Auxiliary Basis Set <=

  Basis Set: (AUG-CC-PVDZ AUX)
    Blend: AUG-CC-PVDZ-JKFIT
    Number of shells: 376
    Number of basis function: 1136
    Number of Cartesian functions: 1318
    Spherical Harmonics?: true
    Max angular momentum: 3

  Minimum eigenvalue in the overlap matrix is 4.2408875748E-04.
  Using Symmetric Orthogonalization.

  SCF Guess: Superposition of Atomic Densities via on-the-fly atomic UHF.

  ==> Iterations <==

                           Total Energy        Delta E     RMS |[F,P]|

   @DF-RHF iter SAD:  -641.41026715108273   -6.41410e+02   0.00000e+00 
   @DF-RHF iter   1:  -641.84694825836323   -4.36681e-01   2.65876e-03 DIIS
   @DF-RHF iter   2:  -642.00383166919391   -1.56883e-01   1.63954e-03 DIIS
   @DF-RHF iter   3:  -642.08376616118983   -7.99345e-02   1.62733e-04 DIIS
   @DF-RHF iter   4:  -642.08497746688886   -1.21131e-03   8.25922e-05 DIIS
   @DF-RHF iter   5:  -642.08524007482356   -2.62608e-04   1.54446e-05 DIIS
   @DF-RHF iter   6:  -642.08525600101927   -1.59262e-05   3.50137e-06 DIIS
   @DF-RHF iter   7:  -642.08525728832717   -1.28731e-06   8.72883e-07 DIIS
   @DF-RHF iter   8:  -642.08525736492618   -7.65990e-08   3.28751e-07 DIIS
   @DF-RHF iter   9:  -642.08525737400191   -9.07573e-09   1.19716e-07 DIIS
   @DF-RHF iter  10:  -642.08525737517675   -1.17484e-09   3.88795e-08 DIIS
   @DF-RHF iter  11:  -642.08525737532125   -1.44496e-10   1.03149e-08 DIIS
   @DF-RHF iter  12:  -642.08525737533387   -1.26192e-11   2.90200e-09 DIIS
  Energy and wave function converged.


  ==> Post-Iterations <==

    Orbital Energies [Eh]
    ---------------------

    Doubly Occupied:                                                      

       1A    -80.152581     2A    -20.636036     3A    -20.622064  
       4A    -20.614341     5A    -20.536413     6A     -7.668991  
       7A     -5.567621     8A     -5.567148     9A     -5.566735  
      10A     -1.477753    11A     -1.406358    12A     -1.391147  
      13A     -1.315411    14A     -0.884011    15A     -0.769137  
      16A     -0.740657    17A     -0.695126    18A     -0.653807  
      19A     -0.636945    20A     -0.598284    21A     -0.590231  
      22A     -0.552667    23A     -0.537139    24A     -0.480702  
      25A     -0.476329  

    Virtual:                                                              

      26A      0.018647    27A      0.035988    28A      0.042864  
      29A      0.051280    30A      0.057202    31A      0.062295  
      32A      0.078710    33A      0.089932    34A      0.093846  
      35A      0.104526    36A      0.108147    37A      0.118918  
      38A      0.127332    39A      0.131305    40A      0.150080  
      41A      0.166020    42A      0.175596    43A      0.178934  
      44A      0.189785    45A      0.191647    46A      0.197308  
      47A      0.200826    48A      0.211668    49A      0.219892  
      50A      0.226240    51A      0.234732    52A      0.236767  
      53A      0.245253    54A      0.249726    55A      0.255941  
      56A      0.260975    57A      0.271904    58A      0.274631  
      59A      0.280348    60A      0.284139    61A      0.286256  
      62A      0.296688    63A      0.300865    64A      0.304386  
      65A      0.320223    66A      0.322873    67A      0.326436  
      68A      0.334856    69A      0.341042    70A      0.344734  
      71A      0.358724    72A      0.361328    73A      0.369700  
      74A      0.376988    75A      0.403061    76A      0.408985  
      77A      0.428988    78A      0.432045    79A      0.447326  
      80A      0.456035    81A      0.463842    82A      0.469630  
      83A      0.477095    84A      0.481456    85A      0.487739  
      86A      0.497780    87A      0.499555    88A      0.515049  
      89A      0.518565    90A      0.533118    91A      0.540939  
      92A      0.551726    93A      0.554789    94A      0.560321  
      95A      0.569024    96A      0.572427    97A      0.586960  
      98A      0.597983    99A      0.605796   100A      0.611170  
     101A      0.618522   102A      0.622029   103A      0.644939  
     104A      0.648841   105A      0.661055   106A      0.671394  
     107A      0.683352   108A      0.684798   109A      0.703367  
     110A      0.714061   111A      0.749487   112A      0.760374  
     113A      0.808223   114A      0.838412   115A      0.860071  
     116A      0.874878   117A      0.887373   118A      0.896361  
     119A      0.925667   120A      0.929481   121A      0.939224  
     122A      0.943845   123A      0.963285   124A      0.975812  
     125A      0.991818   126A      1.002704   127A      1.030286  
     128A      1.037915   129A      1.059962   130A      1.067233  
     131A      1.094526   132A      1.095564   133A      1.116245  
     134A      1.138559   135A      1.145822   136A      1.155044  
     137A      1.163574   138A      1.175712   139A      1.182379  
     140A      1.209125   141A      1.215843   142A      1.235315  
     143A      1.239013   144A      1.243652   145A      1.252252  
     146A      1.261031   147A      1.264197   148A      1.281780  
     149A      1.291734   150A      1.299866   151A      1.302901  
     152A      1.313284   153A      1.336845   154A      1.347105  
     155A      1.354903   156A      1.360081   157A      1.379592  
     158A      1.383964   159A      1.392381   160A      1.410572  
     161A      1.427689   162A      1.433104   163A      1.434365  
     164A      1.453459   165A      1.467646   166A      1.477869  
     167A      1.494440   168A      1.513272   169A      1.531849  
     170A      1.556592   171A      1.565345   172A      1.594703  
     173A      1.606805   174A      1.617239   175A      1.624099  
     176A      1.656689   177A      1.666643   178A      1.679366  
     179A      1.707418   180A      1.730772   181A      1.747397  
     182A      1.761466   183A      1.806078   184A      1.854208  
     185A      1.884400   186A      1.895192   187A      1.913709  
     188A      1.962272   189A      1.966923   190A      1.978667  
     191A      2.014030   192A      2.052709   193A      2.100242  
     194A      2.117462   195A      2.124598   196A      2.151781  
     197A      2.189703   198A      2.260187   199A      2.272652  
     200A      2.280032   201A      2.289011   202A      2.296440  
     203A      2.312570   204A      2.353405   205A      2.456551  
     206A      2.475889   207A      2.481884   208A      2.494134  
     209A      2.504899   210A      2.534633   211A      2.557472  
     212A      2.564068   213A      2.574459   214A      2.604235  
     215A      2.755781   216A      2.806018   217A      2.824441  
     218A      2.859305   219A      2.875675   220A      2.884541  
     221A      3.007771   222A      3.051069   223A      3.075633  
     224A      3.120285   225A      3.622098   226A      3.630529  
     227A      3.638505   228A      3.650263   229A      3.658828  
     230A      3.674919   231A      3.707981   232A      3.710705  
     233A      3.720128   234A      3.733208   235A      3.753410  
     236A      3.755825   237A      3.776304   238A      3.795912  
     239A      3.809007   240A      3.836784   241A      3.860561  
     242A      3.869691   243A      3.903075   244A      3.950673  
     245A      3.962305   246A      4.118593   247A      4.151260  
     248A      4.176590   249A      4.219594   250A      4.241264  
     251A      4.265570   252A      4.858213   253A      4.888608  
     254A      4.904129   255A      4.930571   256A      4.936255  
     257A      4.960679   258A      4.968022   259A      4.975502  
     260A      4.989937   261A      5.022530   262A      5.032678  
     263A      5.047934   264A      5.070664   265A      5.097171  
     266A      5.159489   267A      5.194989   268A      5.201868  
     269A      5.456337   270A      5.475986   271A      5.550035  
     272A      5.753330   273A      5.890121   274A      5.951036  
     275A      5.971828   276A      6.025717   277A      6.044882  
     278A      6.205877   279A      6.283133   280A      6.313474  
     281A      6.468894   282A      6.924637   283A      6.938607  
     284A      6.948907   285A     18.361367   286A     18.406041  
     287A     18.709121   288A     33.467361   289A     33.532114  
     290A     33.536826   291A     33.542669   292A    120.561343  

    Final Occupation by Irrep:
              A 
    DOCC [    25 ]

  @DF-RHF Final Energy:  -642.08525737533387

   => Energetics <=

    Nuclear Repulsion Energy =            279.7253135899598533
    One-Electron Energy =               -1443.3458791651546562
    Two-Electron Energy =                 521.5353081998609923
    Total Energy =                       -642.0852573753338675

Computation Completed


Properties will be evaluated at   0.000000,   0.000000,   0.000000 [a0]

Properties computed using the SCF density matrix

  Nuclear Dipole Moment: [e a0]
     X:     8.5928      Y:    24.0527      Z:   245.8466

  Electronic Dipole Moment: [e a0]
     X:    -8.4415      Y:   -23.8073      Z:  -246.2557

  Dipole Moment: [e a0]
     X:     0.1513      Y:     0.2454      Z:    -0.4091     Total:     0.5005

  Dipole Moment: [D]
     X:     0.3845      Y:     0.6237      Z:    -1.0398     Total:     1.2721


*** tstop() called on node91.bme.utexas.edu at Thu Apr 23 17:19:43 2020
Module time:
	user time   =      35.14 seconds =       0.59 minutes
	system time =       1.06 seconds =       0.02 minutes
	total time  =          6 seconds =       0.10 minutes
Total time:
	user time   =     138.90 seconds =       2.31 minutes
	system time =       3.65 seconds =       0.06 minutes
	total time  =         21 seconds =       0.35 minutes
  Constructing Basis Sets for SAPT...

   => Loading Basis Set <=

    Name: (AUG-CC-PVDZ AUX)
    Role: RIFIT
    Keyword: DF_BASIS_SAPT
    atoms 1, 9       entry P          line   458 file /home/liuchw/anaconda3/envs/psi4env/share/psi4/basis/aug-cc-pvdz-ri.gbs 
    atoms 2-5, 10-13 entry O          line   204 file /home/liuchw/anaconda3/envs/psi4env/share/psi4/basis/aug-cc-pvdz-ri.gbs 
    atoms 6-8, 14-16 entry H          line    30 file /home/liuchw/anaconda3/envs/psi4env/share/psi4/basis/aug-cc-pvdz-ri.gbs 


  //>>>>>>>>>>>>>>>>>>>>>>>>>>>>>>>>>>>//
  //               SAPT2+              //
  //<<<<<<<<<<<<<<<<<<<<<<<<<<<<<<<<<<<//


*** tstart() called on node91.bme.utexas.edu
*** at Thu Apr 23 17:19:43 2020

        SAPT2+  
    Ed Hohenstein
     6 June 2009

      Orbital Information
  --------------------------
    NSO        =       292
    NMO        =       292
    NRI        =       898
    NOCC A     =        25
    NOCC B     =        25
    FOCC A     =         9
    FOCC B     =         9
    NVIR A     =       267
    NVIR B     =       267

    Estimated memory usage: 1581.5 MB

    Natural Orbital Cutoff:   1.000E-06
    Disp(T3) Truncation:            Yes
    CCD (vv|vv) Truncation:         Yes
    MBPT T2 Truncation:             Yes

    Monomer A: 145 virtual orbitals dropped
    Monomer B: 145 virtual orbitals dropped

    Elst10,r            =    -0.010884463692 [Eh]
    Exch10 (S^2)        =     0.001504937298 [Eh]
    Exch10              =     0.001505945315 [Eh]
    Ind20,r (A<-B)      =    -0.000826959116 [Eh]
    Ind20,r (B<-A)      =    -0.000926674327 [Eh]
    Ind20,r             =    -0.001753633442 [Eh]
    Exch-Ind20,r (A<-B) =     0.000206019879 [Eh]
    Exch-Ind20,r (B<-A) =     0.000128987361 [Eh]
    Exch-Ind20,r        =     0.000335007240 [Eh]
    Disp20              =    -0.002388061629 [Eh]
    Disp20 (NO)         =    -0.002240869983 [Eh]
    Exch-Disp20         =     0.000116373629 [Eh]
    Elst12,r            =     0.000978195840 [Eh]
    Exch11              =    -0.000010909271 [Eh]
    Exch12              =     0.000512962992 [Eh]
    Ind22               =    -0.000202079048 [Eh]
    Disp21              =     0.000200581156 [Eh]
    Disp22 (SDQ)        =    -0.000169069693 [Eh]

    (i =   1 of  16)         10 seconds
    (i =   2 of  16)         21 seconds
    (i =   3 of  16)         31 seconds
    (i =   4 of  16)         41 seconds
    (i =   5 of  16)         51 seconds
    (i =   6 of  16)         61 seconds
    (i =   7 of  16)         72 seconds
    (i =   8 of  16)         82 seconds
    (i =   9 of  16)         92 seconds
    (i =  10 of  16)        102 seconds
    (i =  11 of  16)        112 seconds
    (i =  12 of  16)        122 seconds
    (i =  13 of  16)        132 seconds
    (i =  14 of  16)        142 seconds
    (i =  15 of  16)        153 seconds
    (i =  16 of  16)        163 seconds

    Disp220 (T)         =    -0.000233123515 [Eh]

    (i =   1 of  16)         10 seconds
    (i =   2 of  16)         20 seconds
    (i =   3 of  16)         30 seconds
    (i =   4 of  16)         40 seconds
    (i =   5 of  16)         50 seconds
    (i =   6 of  16)         61 seconds
    (i =   7 of  16)         71 seconds
    (i =   8 of  16)         81 seconds
    (i =   9 of  16)         91 seconds
    (i =  10 of  16)        101 seconds
    (i =  11 of  16)        111 seconds
    (i =  12 of  16)        121 seconds
    (i =  13 of  16)        131 seconds
    (i =  14 of  16)        142 seconds
    (i =  15 of  16)        152 seconds
    (i =  16 of  16)        162 seconds

    Disp202 (T)         =    -0.000224469410 [Eh]

    Disp22 (T)          =    -0.000457592925 [Eh]

    Est. Disp220 (T)    =    -0.000248436243 [Eh]
    Est. Disp202 (T)    =    -0.000239213693 [Eh]

    Est. Disp22 (T)     =    -0.000487649937 [Eh]

    SAPT Results 
  --------------------------------------------------------------------------------------------------------
    Electrostatics                 -9.90626785 [mEh]      -6.21627693 [kcal/mol]     -26.00890266 [kJ/mol]
      Elst10,r                    -10.88446369 [mEh]      -6.83010408 [kcal/mol]     -28.57715549 [kJ/mol]
      Elst12,r                      0.97819584 [mEh]       0.61382716 [kcal/mol]       2.56825282 [kJ/mol]

    Exchange                        2.00799904 [mEh]       1.26003842 [kcal/mol]       5.27200074 [kJ/mol]
      Exch10                        1.50594531 [mEh]       0.94499495 [kcal/mol]       3.95385888 [kJ/mol]
      Exch10(S^2)                   1.50493730 [mEh]       0.94436241 [kcal/mol]       3.95121233 [kJ/mol]
      Exch11(S^2)                  -0.01090927 [mEh]      -0.00684567 [kcal/mol]      -0.02864229 [kJ/mol]
      Exch12(S^2)                   0.51296299 [mEh]       0.32188914 [kcal/mol]       1.34678415 [kJ/mol]

    Induction                      -1.90201664 [mEh]      -1.19353346 [kcal/mol]      -4.99374399 [kJ/mol]
      Ind20,r                      -1.75363344 [mEh]      -1.10042160 [kcal/mol]      -4.60416397 [kJ/mol]
      Ind22                        -0.20207905 [mEh]      -0.12680652 [kcal/mol]      -0.53055847 [kJ/mol]
      Exch-Ind20,r                  0.33500724 [mEh]       0.21022022 [kcal/mol]       0.87956139 [kJ/mol]
      Exch-Ind22                    0.03860439 [mEh]       0.02422462 [kcal/mol]       0.10135580 [kJ/mol]
      delta HF,r (2)               -0.31991577 [mEh]      -0.20075018 [kcal/mol]      -0.83993875 [kJ/mol]

    Dispersion                     -2.72782647 [mEh]      -1.71173695 [kcal/mol]      -7.16190742 [kJ/mol]
      Disp20                       -2.38806163 [mEh]      -1.49853130 [kcal/mol]      -6.26985494 [kJ/mol]
      Disp21                        0.20058116 [mEh]       0.12586658 [kcal/mol]       0.52662575 [kJ/mol]
      Disp22 (SDQ)                 -0.16906969 [mEh]      -0.10609283 [kcal/mol]      -0.44389242 [kJ/mol]
      Disp22 (T)                   -0.45759292 [mEh]      -0.28714390 [kcal/mol]      -1.20141006 [kJ/mol]
      Est. Disp22 (T)              -0.48764994 [mEh]      -0.30600496 [kcal/mol]      -1.28032473 [kJ/mol]
      Exch-Disp20                   0.11637363 [mEh]       0.07302555 [kcal/mol]       0.30553892 [kJ/mol]

  Total HF                        -11.11706035 [mEh]      -6.97606069 [kcal/mol]     -29.18783793 [kJ/mol]
  Total SAPT0                     -13.38874835 [mEh]      -8.40156643 [kcal/mol]     -35.15215395 [kJ/mol]
  Total SAPT2                     -12.07197345 [mEh]      -7.57527771 [kcal/mol]     -31.69496193 [kJ/mol]
  Total SAPT2+                    -12.52811193 [mEh]      -7.86150892 [kcal/mol]     -32.89255333 [kJ/mol]

  Special recipe for scaled SAPT0 (see Manual):
    Electrostatics sSAPT0         -10.88446369 [mEh]      -6.83010408 [kcal/mol]     -28.57715549 [kJ/mol]
    Exchange sSAPT0                 1.50594531 [mEh]       0.94499495 [kcal/mol]       3.95385888 [kJ/mol]
    Induction sSAPT0               -1.73786835 [mEh]      -1.09052886 [kcal/mol]      -4.56277274 [kJ/mol]
    Dispersion sSAPT0              -2.27145400 [mEh]      -1.42535890 [kcal/mol]      -5.96370165 [kJ/mol]
  Total sSAPT0                    -13.38784073 [mEh]      -8.40099689 [kcal/mol]     -35.14977100 [kJ/mol]
  --------------------------------------------------------------------------------------------------------

*** tstop() called on node91.bme.utexas.edu at Thu Apr 23 17:26:56 2020
Module time:
	user time   =    3337.47 seconds =      55.62 minutes
	system time =      60.82 seconds =       1.01 minutes
	total time  =        433 seconds =       7.22 minutes
Total time:
	user time   =    3477.36 seconds =      57.96 minutes
	system time =      64.52 seconds =       1.08 minutes
	total time  =        454 seconds =       7.57 minutes

    Psi4 stopped on: Thursday, 23 April 2020 05:26PM
    Psi4 wall time for execution: 0:07:34.22

*** Psi4 exiting successfully. Buy a developer a beer!
