    -----------------------------------------------------------------------
          PSI4: An Open-Source Ab Initio Electronic Structure Package
                              PSI 4.0.0-beta4 Driver

    J. M. Turney, A. C. Simmonett, R. M. Parrish, E. G. Hohenstein,
    F. A. Evangelista, J. T. Fermann, B. J. Mintz, L. A. Burns, J. J. Wilke,
    M. L. Abrams, N. J. Russ, M. L. Leininger, C. L. Janssen, E. T. Seidl,
    W. D. Allen, H. F. Schaefer, R. A. King, E. F. Valeev, C. D. Sherrill,
    and T. D. Crawford, WIREs Comput. Mol. Sci., (2011) (doi: 10.1002/wcms.93)

                         Additional Contributions by
    A. E. DePrince, M. Saitow, U. Bozkaya, A. Yu. Sokolov
    -----------------------------------------------------------------------

    Process ID:   6496
    PSI4DATADIR: /home/xzhu216/psi4/psi4-install/share/psi

    Using LocalCommunicator (Number of processes = 1)

    Memory level set to 256.000 MB

  ==> Input File <==

--------------------------------------------------------------------------
#psi4
#
memory 7 gb

molecule MeF_MeF {
0 1
    F    -0.914324000     0.000012000     0.000000000
    C    -2.297346000     0.000023000     0.000000000
    H    -2.651740000     1.027062000    -0.000001000
    H    -2.651752000    -0.513492000     0.889440000
    H    -2.651753000    -0.513493000    -0.889439000
--
0 1
    F     2.920761898     0.000018801     0.000000929
    C     1.537395898     0.000017801    -0.000000071
    H     1.179562898     1.025418801    -0.000000071
    H     1.179563898    -0.512684199     0.888022929
    H     1.179564898    -0.512683199    -0.888025071
units angstrom
no_reorient  #important for SAPT in psi4, default
symmetry c1  #important for SAPT in psi4, default
}

set {
basis aug-cc-pVDZ
scf_type DF
freeze_core True
}
energy('sapt2+')
--------------------------------------------------------------------------

  Memory set to   7.000 GiB by Python script.

  //>>>>>>>>>>>>>>>>>>>>>>>>>>>>>>>>>>>//
  //              Dimer HF             //
  //<<<<<<<<<<<<<<<<<<<<<<<<<<<<<<<<<<<//


  No DF_BASIS_SCF auxiliary basis selected, defaulting to aug-cc-pvdz-jkfit


*** tstart() called on node145.bme.utexas.edu
*** at Fri Jun 20 14:19:04 2014


         ---------------------------------------------------------
                                   SCF
            by Justin Turney, Rob Parrish, and Andy Simmonett
                              RHF Reference
                        4 Threads,   7000 MiB Core
         ---------------------------------------------------------

  ==> Geometry <==

    Molecular point group: c1
    Full point group: C1

    Geometry (in Angstrom), charge = 0, multiplicity = 1:

       Center              X                  Y                   Z       
    ------------   -----------------  -----------------  -----------------
           F         -1.275100700772    -0.000005697282    -0.000000214086
           C         -2.658122700772     0.000005302718    -0.000000214086
           H         -3.012516700772     1.027044302718    -0.000001214086
           H         -3.012528700772    -0.513509697282     0.889439785914
           H         -3.012529700772    -0.513510697282    -0.889439214086
           F          2.559985197228     0.000001103718     0.000000714914
           C          1.176619197228     0.000000103718    -0.000000285086
           H          0.818786197228     1.025401103718    -0.000000285086
           H          0.818787197228    -0.512701896282     0.888022714914
           H          0.818788197228    -0.512700896282    -0.888025285086

  Running in c1 symmetry.

  Nuclear repulsion =  122.720000746122494

  Charge       = 0
  Multiplicity = 1
  Electrons    = 36
  Nalpha       = 18
  Nbeta        = 18

  ==> Algorithm <==

  SCF Algorithm Type is DF.
  DIIS enabled.
  MOM disabled.
  Fractional occupation disabled.
  Guess Type is CORE.
  Energy threshold   = 1.00e-08
  Density threshold  = 1.00e-08
  Integral threshold = 0.00e+00

  ==> Primary Basis <==

  Basis Set: AUG-CC-PVDZ
    Number of shells: 66
    Number of basis function: 146
    Number of Cartesian functions: 154
    Spherical Harmonics?: true
    Max angular momentum: 2

  ==> Pre-Iterations <==

   -------------------------------------------------------
    Irrep   Nso     Nmo     Nalpha   Nbeta   Ndocc  Nsocc
   -------------------------------------------------------
     A        146     146       0       0       0       0
   -------------------------------------------------------
    Total     146     146      18      18      18       0
   -------------------------------------------------------

 OEINTS: Wrapper to libmints.
   by Justin Turney

   Calculation information:
      Number of atoms:                  10
      Number of AO shells:              66
      Number of SO shells:              66
      Number of primitives:            142
      Number of atomic orbitals:       154
      Number of basis functions:       146

      Number of irreps:                  1
      Number of functions per irrep: [ 146 ]

      Overlap, kinetic, potential, dipole, and quadrupole integrals
        stored in file 35.

  ==> Integral Setup <==

  ==> DFJK: Density-Fitted J/K Matrices <==

    J tasked:                  Yes
    K tasked:                  Yes
    wK tasked:                  No
    OpenMP threads:              4
    Integrals threads:           4
    Memory (MB):              5006
    Algorithm:                Core
    Integral Cache:           SAVE
    Schwarz Cutoff:          0E+00
    Fitting Condition:       1E-12

   => Auxiliary Basis Set <=

  Basis Set: aug-cc-pvdz-jkfit
    Number of shells: 184
    Number of basis function: 536
    Number of Cartesian functions: 614
    Spherical Harmonics?: true
    Max angular momentum: 3

  Minimum eigenvalue in the overlap matrix is 2.7675253343E-04.
  Using Symmetric Orthogonalization.
  SCF Guess: Core (One-Electron) Hamiltonian.

  Guess energy:  -216.87984167890318

  ==> Iterations <==

                        Total Energy        Delta E     RMS |[F,P]|

   @RHF iter   1:  -247.16247365286699   -2.47162e+02   4.54846e-02 
   @RHF iter   2:  -188.44243485278275    5.87200e+01   3.91915e-02 DIIS
   @RHF iter   3:  -255.22437591545747   -6.67819e+01   3.02716e-02 DIIS
   @RHF iter   4:  -275.37666888710777   -2.01523e+01   1.68408e-02 DIIS
   @RHF iter   5:  -277.61640241126611   -2.23973e+00   6.41790e-03 DIIS
   @RHF iter   6:  -277.99442380713521   -3.78021e-01   2.89381e-03 DIIS
   @RHF iter   7:  -278.09721240547731   -1.02789e-01   8.44288e-04 DIIS
   @RHF iter   8:  -278.10977819811592   -1.25658e-02   2.14926e-04 DIIS
   @RHF iter   9:  -278.11057155656073   -7.93358e-04   5.47254e-05 DIIS
   @RHF iter  10:  -278.11063523468010   -6.36781e-05   2.31894e-05 DIIS
   @RHF iter  11:  -278.11064242401574   -7.18934e-06   6.58324e-06 DIIS
   @RHF iter  12:  -278.11064321047820   -7.86462e-07   1.19612e-06 DIIS
   @RHF iter  13:  -278.11064323864093   -2.81627e-08   2.12503e-07 DIIS
   @RHF iter  14:  -278.11064323934789   -7.06962e-10   2.46843e-08 DIIS
   @RHF iter  15:  -278.11064323935938   -1.14824e-11   3.95570e-09 DIIS

  ==> Post-Iterations <==

	Orbital Energies (a.u.)
	-----------------------

	Doubly Occupied:                                                      

	   1A    -26.307036     2A    -26.269704     3A    -11.326567  
	   4A    -11.289166     5A     -1.612469     6A     -1.572661  
	   7A     -0.977253     8A     -0.932638     9A     -0.714032  
	  10A     -0.714032    11A     -0.703909    12A     -0.674519  
	  13A     -0.674519    14A     -0.643589    15A     -0.547231  
	  16A     -0.547231    17A     -0.506439    18A     -0.506439  

	Virtual:                                                              

	  19A      0.028405    20A      0.050803    21A      0.050803  
	  22A      0.053414    23A      0.077638    24A      0.077638  
	  25A      0.101450    26A      0.133310    27A      0.133310  
	  28A      0.145594    29A      0.161395    30A      0.167825  
	  31A      0.167825    32A      0.189304    33A      0.265388  
	  34A      0.265389    35A      0.276846    36A      0.288480  
	  37A      0.288480    38A      0.299659    39A      0.299659  
	  40A      0.307883    41A      0.354725    42A      0.354725  
	  43A      0.357831    44A      0.398589    45A      0.405924  
	  46A      0.405924    47A      0.423225    48A      0.451148  
	  49A      0.451148    50A      0.478623    51A      0.478623  
	  52A      0.492265    53A      0.494307    54A      0.522105  
	  55A      0.522372    56A      0.522375    57A      0.530054  
	  58A      0.541077    59A      0.566344    60A      0.601142  
	  61A      0.601143    62A      0.616364    63A      0.616365  
	  64A      0.617481    65A      0.660238    66A      0.660239  
	  67A      0.694227    68A      0.712158    69A      0.712158  
	  70A      0.739723    71A      0.747465    72A      0.747465  
	  73A      0.799685    74A      0.799685    75A      0.844517  
	  76A      0.943879    77A      0.948841    78A      0.948841  
	  79A      1.054469    80A      1.073721    81A      1.073721  
	  82A      1.076377    83A      1.180763    84A      1.226553  
	  85A      1.306496    86A      1.306496    87A      1.331808  
	  88A      1.331809    89A      1.495942    90A      1.495942  
	  91A      1.517732    92A      1.517734    93A      1.600976  
	  94A      1.600976    95A      1.620242    96A      1.620242  
	  97A      1.764716    98A      1.804348    99A      1.804348  
	 100A      1.818819   101A      1.847570   102A      1.852274  
	 103A      1.852276   104A      1.884929   105A      1.905961  
	 106A      1.921645   107A      1.921645   108A      2.007184  
	 109A      2.007184   110A      2.041208   111A      2.157344  
	 112A      2.220838   113A      2.220838   114A      2.235821  
	 115A      2.235821   116A      2.258929   117A      2.295400  
	 118A      2.295401   119A      2.308888   120A      2.308888  
	 121A      2.342219   122A      2.412323   123A      2.504387  
	 124A      2.664024   125A      2.684360   126A      2.684361  
	 127A      2.730024   128A      2.730025   129A      2.819662  
	 130A      2.909621   131A      2.909621   132A      2.937140  
	 133A      2.957711   134A      2.957712   135A      3.568688  
	 136A      3.602714   137A      4.995607   138A      4.995608  
	 139A      5.003441   140A      5.003442   141A      5.095055  
	 142A      5.095056   143A      5.130195   144A      5.130195  
	 145A      5.141568   146A      5.335413  

	Final Occupation by Irrep:
	          A 
	DOCC [    18 ]

  Energy converged.

  @RHF Final Energy:  -278.11064323935938

   => Energetics <=

    Nuclear Repulsion Energy =            122.7200007461224942
    One-Electron Energy =                -628.6224224240729654
    Two-Electron Energy =                 227.7917784385911091
    DFT Exchange-Correlation Energy =       0.0000000000000000
    Empirical Dispersion Energy =           0.0000000000000000
    Total Energy =                       -278.1106432393593764



Properties will be evaluated at   0.000000,   0.000000,   0.000000 Bohr
  ==> Properties <==


Properties computed using the SCF density density matrix
  Nuclear Dipole Moment: (a.u.)
     X:    -7.3818      Y:     0.0000      Z:    -0.0000

  Electronic Dipole Moment: (a.u.)
     X:     5.5805      Y:    -0.0000      Z:     0.0000

  Dipole Moment: (a.u.)
     X:    -1.8013      Y:     0.0000      Z:    -0.0000     Total:     1.8013

  Dipole Moment: (Debye)
     X:    -4.5783      Y:     0.0000      Z:    -0.0000     Total:     4.5783


  Saving occupied orbitals to File 180.

  Saving SAPT 2-DIMER file.

*** tstop() called on node145.bme.utexas.edu at Fri Jun 20 14:19:08 2014
Module time:
	user time   =      15.18 seconds =       0.25 minutes
	system time =       0.24 seconds =       0.00 minutes
	total time  =          4 seconds =       0.07 minutes
Total time:
	user time   =      15.18 seconds =       0.25 minutes
	system time =       0.24 seconds =       0.00 minutes
	total time  =          4 seconds =       0.07 minutes

  //>>>>>>>>>>>>>>>>>>>>>>>>>>>>>>>>>>>//
  //            Monomer A HF           //
  //<<<<<<<<<<<<<<<<<<<<<<<<<<<<<<<<<<<//


  No DF_BASIS_SCF auxiliary basis selected, defaulting to aug-cc-pvdz-jkfit


*** tstart() called on node145.bme.utexas.edu
*** at Fri Jun 20 14:19:08 2014


         ---------------------------------------------------------
                                   SCF
            by Justin Turney, Rob Parrish, and Andy Simmonett
                              RHF Reference
                        4 Threads,   7000 MiB Core
         ---------------------------------------------------------

  ==> Geometry <==

    Molecular point group: c1
    Full point group: C1

    Geometry (in Angstrom), charge = 0, multiplicity = 1:

       Center              X                  Y                   Z       
    ------------   -----------------  -----------------  -----------------
           F         -1.275100700772    -0.000005697282    -0.000000214086
           C         -2.658122700772     0.000005302718    -0.000000214086
           H         -3.012516700772     1.027044302718    -0.000001214086
           H         -3.012528700772    -0.513509697282     0.889439785914
           H         -3.012529700772    -0.513510697282    -0.889439214086
           F(Gh)      2.559985197228     0.000001103718     0.000000714914
           C(Gh)      1.176619197228     0.000000103718    -0.000000285086
           H(Gh)      0.818786197228     1.025401103718    -0.000000285086
           H(Gh)      0.818787197228    -0.512701896282     0.888022714914
           H(Gh)      0.818788197228    -0.512700896282    -0.888025285086

  Running in c1 symmetry.

  Nuclear repulsion =   37.400461791873575

  Charge       = 0
  Multiplicity = 1
  Electrons    = 18
  Nalpha       = 9
  Nbeta        = 9

  ==> Algorithm <==

  SCF Algorithm Type is DF.
  DIIS enabled.
  MOM disabled.
  Fractional occupation disabled.
  Guess Type is CORE.
  Energy threshold   = 1.00e-08
  Density threshold  = 1.00e-08
  Integral threshold = 0.00e+00

  ==> Primary Basis <==

  Basis Set: AUG-CC-PVDZ
    Number of shells: 66
    Number of basis function: 146
    Number of Cartesian functions: 154
    Spherical Harmonics?: true
    Max angular momentum: 2

  ==> Pre-Iterations <==

   -------------------------------------------------------
    Irrep   Nso     Nmo     Nalpha   Nbeta   Ndocc  Nsocc
   -------------------------------------------------------
     A        146     146       0       0       0       0
   -------------------------------------------------------
    Total     146     146       9       9       9       0
   -------------------------------------------------------

 OEINTS: Wrapper to libmints.
   by Justin Turney

   Calculation information:
      Number of atoms:                  10
      Number of AO shells:              66
      Number of SO shells:              66
      Number of primitives:            142
      Number of atomic orbitals:       154
      Number of basis functions:       146

      Number of irreps:                  1
      Number of functions per irrep: [ 146 ]

      Overlap, kinetic, potential, dipole, and quadrupole integrals
        stored in file 35.

  ==> Integral Setup <==

  ==> DFJK: Density-Fitted J/K Matrices <==

    J tasked:                  Yes
    K tasked:                  Yes
    wK tasked:                  No
    OpenMP threads:              4
    Integrals threads:           4
    Memory (MB):              5006
    Algorithm:                Core
    Integral Cache:           LOAD
    Schwarz Cutoff:          0E+00
    Fitting Condition:       1E-12

   => Auxiliary Basis Set <=

  Basis Set: aug-cc-pvdz-jkfit
    Number of shells: 184
    Number of basis function: 536
    Number of Cartesian functions: 614
    Spherical Harmonics?: true
    Max angular momentum: 3

  Minimum eigenvalue in the overlap matrix is 2.7675253343E-04.
  Using Symmetric Orthogonalization.
  SCF Guess: Core (One-Electron) Hamiltonian.

  Guess energy:  -108.12172397673959

  ==> Iterations <==

                        Total Energy        Delta E     RMS |[F,P]|

   @RHF iter   1:  -124.42796712964423   -1.24428e+02   3.10175e-02 
   @RHF iter   2:  -110.28628985393863    1.41417e+01   2.01977e-02 DIIS
   @RHF iter   3:  -133.48055796965085   -2.31943e+01   2.36883e-02 DIIS
   @RHF iter   4:  -135.52055288535118   -2.03999e+00   1.94375e-02 DIIS
   @RHF iter   5:  -137.30824654473116   -1.78769e+00   1.40002e-02 DIIS
   @RHF iter   6:  -138.70862596648971   -1.40038e+00   6.08089e-03 DIIS
   @RHF iter   7:  -139.00436345897853   -2.95737e-01   2.52053e-03 DIIS
   @RHF iter   8:  -139.05486843664895   -5.05050e-02   6.44478e-04 DIIS
   @RHF iter   9:  -139.05777000364182   -2.90157e-03   5.76335e-05 DIIS
   @RHF iter  10:  -139.05780812623129   -3.81226e-05   1.13754e-05 DIIS
   @RHF iter  11:  -139.05780904738967   -9.21158e-07   6.34389e-07 DIIS
   @RHF iter  12:  -139.05780905557464   -8.18497e-09   1.41909e-07 DIIS
   @RHF iter  13:  -139.05780905589521   -3.20568e-10   2.24378e-08 DIIS
   @RHF iter  14:  -139.05780905590717   -1.19655e-11   4.59096e-09 DIIS

  ==> Post-Iterations <==

	Orbital Energies (a.u.)
	-----------------------

	Doubly Occupied:                                                      

	   1A    -26.290937     2A    -11.314425     3A     -1.592480  
	   4A     -0.958219     5A     -0.695921     6A     -0.695921  
	   7A     -0.675971     8A     -0.530992     9A     -0.530992  

	Virtual:                                                              

	  10A      0.032975    11A      0.045328    12A      0.055284  
	  13A      0.055284    14A      0.077393    15A      0.077393  
	  16A      0.100267    17A      0.130376    18A      0.137964  
	  19A      0.137964    20A      0.144197    21A      0.161070  
	  22A      0.161070    23A      0.172702    24A      0.269437  
	  25A      0.269437    26A      0.281401    27A      0.281401  
	  28A      0.284200    29A      0.291742    30A      0.311816  
	  31A      0.311816    32A      0.321550    33A      0.346632  
	  34A      0.346633    35A      0.346893    36A      0.400633  
	  37A      0.426373    38A      0.426374    39A      0.437306  
	  40A      0.437306    41A      0.500997    42A      0.506059  
	  43A      0.508190    44A      0.508190    45A      0.530533  
	  46A      0.543562    47A      0.548024    48A      0.548027  
	  49A      0.554308    50A      0.570455    51A      0.631115  
	  52A      0.631116    53A      0.642290    54A      0.642290  
	  55A      0.702238    56A      0.727053    57A      0.733856  
	  58A      0.733856    59A      0.753779    60A      0.753779  
	  61A      0.758748    62A      0.760033    63A      0.760034  
	  64A      0.778050    65A      0.809974    66A      0.809974  
	  67A      0.874751    68A      0.883168    69A      0.883169  
	  70A      0.934209    71A      1.014144    72A      1.014145  
	  73A      1.081549    74A      1.160757    75A      1.286535  
	  76A      1.297094    77A      1.297095    78A      1.339358  
	  79A      1.339358    80A      1.534125    81A      1.534126  
	  82A      1.608527    83A      1.608528    84A      1.654287  
	  85A      1.694327    86A      1.694327    87A      1.780614  
	  88A      1.797794    89A      1.797795    90A      1.802205  
	  91A      1.859530    92A      1.918439    93A      1.918440  
	  94A      1.940482    95A      1.948264    96A      1.948264  
	  97A      2.084367    98A      2.152043    99A      2.158633  
	 100A      2.158634   101A      2.225120   102A      2.225121  
	 103A      2.254274   104A      2.254275   105A      2.270548  
	 106A      2.283197   107A      2.283197   108A      2.345840  
	 109A      2.345840   110A      2.352049   111A      2.436311  
	 112A      2.675769   113A      2.675770   114A      2.721248  
	 115A      2.721249   116A      2.752860   117A      2.826293  
	 118A      2.895486   119A      2.936884   120A      2.936885  
	 121A      3.005307   122A      3.134741   123A      3.134742  
	 124A      3.296016   125A      3.296016   126A      3.507773  
	 127A      3.628771   128A      4.376189   129A      5.012563  
	 130A      5.012564   131A      5.135109   132A      5.135111  
	 133A      5.151890   134A      5.151892   135A      5.211544  
	 136A      5.450336   137A      6.783805   138A      6.783805  
	 139A      6.837085   140A      6.837085   141A      6.927195  
	 142A      7.523596   143A      7.523596   144A      8.008644  
	 145A     18.544899   146A     42.988865  

	Final Occupation by Irrep:
	          A 
	DOCC [     9 ]

  Energy converged.

  @RHF Final Energy:  -139.05780905590717

   => Energetics <=

    Nuclear Repulsion Energy =             37.4004617918735747
    One-Electron Energy =                -266.3448207613463978
    Two-Electron Energy =                  89.8865499135656307
    DFT Exchange-Correlation Energy =       0.0000000000000000
    Empirical Dispersion Energy =           0.0000000000000000
    Total Energy =                       -139.0578090559071995



Properties will be evaluated at   0.000000,   0.000000,   0.000000 Bohr
  ==> Properties <==


Properties computed using the SCF density density matrix
  Nuclear Dipole Moment: (a.u.)
     X:   -68.9036      Y:     0.0000      Z:    -0.0000

  Electronic Dipole Moment: (a.u.)
     X:    68.0943      Y:    -0.0000      Z:     0.0000

  Dipole Moment: (a.u.)
     X:    -0.8093      Y:     0.0000      Z:    -0.0000     Total:     0.8093

  Dipole Moment: (Debye)
     X:    -2.0569      Y:     0.0000      Z:    -0.0000     Total:     2.0569


  Saving occupied orbitals to File 180.

  Saving SAPT 2-MONOMER_A file.

*** tstop() called on node145.bme.utexas.edu at Fri Jun 20 14:19:11 2014
Module time:
	user time   =       9.36 seconds =       0.16 minutes
	system time =       0.13 seconds =       0.00 minutes
	total time  =          3 seconds =       0.05 minutes
Total time:
	user time   =      24.55 seconds =       0.41 minutes
	system time =       0.37 seconds =       0.01 minutes
	total time  =          7 seconds =       0.12 minutes

  //>>>>>>>>>>>>>>>>>>>>>>>>>>>>>>>>>>>//
  //            Monomer B HF           //
  //<<<<<<<<<<<<<<<<<<<<<<<<<<<<<<<<<<<//


  No DF_BASIS_SCF auxiliary basis selected, defaulting to aug-cc-pvdz-jkfit


*** tstart() called on node145.bme.utexas.edu
*** at Fri Jun 20 14:19:11 2014


         ---------------------------------------------------------
                                   SCF
            by Justin Turney, Rob Parrish, and Andy Simmonett
                              RHF Reference
                        4 Threads,   7000 MiB Core
         ---------------------------------------------------------

  ==> Geometry <==

    Molecular point group: c1
    Full point group: C1

    Geometry (in Angstrom), charge = 0, multiplicity = 1:

       Center              X                  Y                   Z       
    ------------   -----------------  -----------------  -----------------
           F(Gh)     -1.275100700772    -0.000005697282    -0.000000214086
           C(Gh)     -2.658122700772     0.000005302718    -0.000000214086
           H(Gh)     -3.012516700772     1.027044302718    -0.000001214086
           H(Gh)     -3.012528700772    -0.513509697282     0.889439785914
           H(Gh)     -3.012529700772    -0.513510697282    -0.889439214086
           F          2.559985197228     0.000001103718     0.000000714914
           C          1.176619197228     0.000000103718    -0.000000285086
           H          0.818786197228     1.025401103718    -0.000000285086
           H          0.818787197228    -0.512701896282     0.888022714914
           H          0.818788197228    -0.512700896282    -0.888025285086

  Running in c1 symmetry.

  Nuclear repulsion =   37.391659427889138

  Charge       = 0
  Multiplicity = 1
  Electrons    = 18
  Nalpha       = 9
  Nbeta        = 9

  ==> Algorithm <==

  SCF Algorithm Type is DF.
  DIIS enabled.
  MOM disabled.
  Fractional occupation disabled.
  Guess Type is CORE.
  Energy threshold   = 1.00e-08
  Density threshold  = 1.00e-08
  Integral threshold = 0.00e+00

  ==> Primary Basis <==

  Basis Set: AUG-CC-PVDZ
    Number of shells: 66
    Number of basis function: 146
    Number of Cartesian functions: 154
    Spherical Harmonics?: true
    Max angular momentum: 2

  ==> Pre-Iterations <==

   -------------------------------------------------------
    Irrep   Nso     Nmo     Nalpha   Nbeta   Ndocc  Nsocc
   -------------------------------------------------------
     A        146     146       0       0       0       0
   -------------------------------------------------------
    Total     146     146       9       9       9       0
   -------------------------------------------------------

 OEINTS: Wrapper to libmints.
   by Justin Turney

   Calculation information:
      Number of atoms:                  10
      Number of AO shells:              66
      Number of SO shells:              66
      Number of primitives:            142
      Number of atomic orbitals:       154
      Number of basis functions:       146

      Number of irreps:                  1
      Number of functions per irrep: [ 146 ]

      Overlap, kinetic, potential, dipole, and quadrupole integrals
        stored in file 35.

  ==> Integral Setup <==

  ==> DFJK: Density-Fitted J/K Matrices <==

    J tasked:                  Yes
    K tasked:                  Yes
    wK tasked:                  No
    OpenMP threads:              4
    Integrals threads:           4
    Memory (MB):              5006
    Algorithm:                Core
    Integral Cache:           LOAD
    Schwarz Cutoff:          0E+00
    Fitting Condition:       1E-12

   => Auxiliary Basis Set <=

  Basis Set: aug-cc-pvdz-jkfit
    Number of shells: 184
    Number of basis function: 536
    Number of Cartesian functions: 614
    Spherical Harmonics?: true
    Max angular momentum: 3

  Minimum eigenvalue in the overlap matrix is 2.7675253343E-04.
  Using Symmetric Orthogonalization.
  SCF Guess: Core (One-Electron) Hamiltonian.

  Guess energy:  -108.10663006209161

  ==> Iterations <==

                        Total Energy        Delta E     RMS |[F,P]|

   @RHF iter   1:  -124.45963032210481   -1.24460e+02   3.09359e-02 
   @RHF iter   2:  -108.16781850280960    1.62918e+01   2.04578e-02 DIIS
   @RHF iter   3:  -133.53732433865912   -2.53695e+01   2.34766e-02 DIIS
   @RHF iter   4:  -135.62888344159472   -2.09156e+00   1.90970e-02 DIIS
   @RHF iter   5:  -137.39994380320576   -1.77106e+00   1.36033e-02 DIIS
   @RHF iter   6:  -138.74530521378318   -1.34536e+00   5.71830e-03 DIIS
   @RHF iter   7:  -139.00940062680456   -2.64095e-01   2.39859e-03 DIIS
   @RHF iter   8:  -139.05571185284055   -4.63112e-02   5.55175e-04 DIIS
   @RHF iter   9:  -139.05787780576981   -2.16595e-03   5.42919e-05 DIIS
   @RHF iter  10:  -139.05791140079657   -3.35950e-05   1.04676e-05 DIIS
   @RHF iter  11:  -139.05791218253501   -7.81738e-07   5.87099e-07 DIIS
   @RHF iter  12:  -139.05791218864493   -6.10993e-09   1.13348e-07 DIIS
   @RHF iter  13:  -139.05791218878460   -1.39664e-10   1.03014e-08 DIIS
   @RHF iter  14:  -139.05791218878721   -2.61480e-12   2.01793e-09 DIIS

  ==> Post-Iterations <==

	Orbital Energies (a.u.)
	-----------------------

	Doubly Occupied:                                                      

	   1A    -26.291192     2A    -11.314269     3A     -1.592657  
	   4A     -0.958543     5A     -0.695897     6A     -0.695897  
	   7A     -0.676554     8A     -0.531157     9A     -0.531157  

	Virtual:                                                              

	  10A      0.022499    11A      0.049380    12A      0.049380  
	  13A      0.049951    14A      0.076210    15A      0.076210  
	  16A      0.091493    17A      0.119962    18A      0.125633  
	  19A      0.125633    20A      0.148216    21A      0.159589  
	  22A      0.159589    23A      0.176350    24A      0.234731  
	  25A      0.256401    26A      0.256401    27A      0.279876  
	  28A      0.279876    29A      0.297787    30A      0.304767  
	  31A      0.304767    32A      0.327125    33A      0.354632  
	  34A      0.354632    35A      0.373413    36A      0.401397  
	  37A      0.401397    38A      0.405148    39A      0.440774  
	  40A      0.440775    41A      0.460337    42A      0.479221  
	  43A      0.479222    44A      0.504652    45A      0.507521  
	  46A      0.531794    47A      0.531797    48A      0.544244  
	  49A      0.548828    50A      0.587800    51A      0.607829  
	  52A      0.607829    53A      0.629199    54A      0.653712  
	  55A      0.653712    56A      0.692733    57A      0.692733  
	  58A      0.697687    59A      0.725162    60A      0.750247  
	  61A      0.750248    62A      0.777218    63A      0.777219  
	  64A      0.791655    65A      0.791656    66A      0.828297  
	  67A      0.840763    68A      0.840764    69A      0.851337  
	  70A      0.906693    71A      1.025723    72A      1.025724  
	  73A      1.055965    74A      1.181147    75A      1.271113  
	  76A      1.271113    77A      1.282035    78A      1.346984  
	  79A      1.346984    80A      1.492600    81A      1.492600  
	  82A      1.603449    83A      1.603449    84A      1.611612  
	  85A      1.693659    86A      1.693661    87A      1.781659  
	  88A      1.781659    89A      1.786249    90A      1.803213  
	  91A      1.834052    92A      1.834052    93A      1.860549  
	  94A      1.860797    95A      1.984507    96A      1.984508  
	  97A      2.100625    98A      2.100625    99A      2.115896  
	 100A      2.209353   101A      2.212740   102A      2.212741  
	 103A      2.237311   104A      2.280272   105A      2.280272  
	 106A      2.299622   107A      2.299623   108A      2.328470  
	 109A      2.328470   110A      2.399940   111A      2.421295  
	 112A      2.668098   113A      2.668098   114A      2.708041  
	 115A      2.708042   116A      2.726684   117A      2.808826  
	 118A      2.851225   119A      2.896779   120A      2.914915  
	 121A      2.914915   122A      3.097970   123A      3.097970  
	 124A      3.251950   125A      3.251951   126A      3.410423  
	 127A      3.577328   128A      4.262648   129A      4.988767  
	 130A      4.988767   131A      5.081018   132A      5.081018  
	 133A      5.120868   134A      5.120869   135A      5.126083  
	 136A      5.357633   137A      6.777167   138A      6.777167  
	 139A      6.881576   140A      6.881577   141A      7.155736  
	 142A      7.495052   143A      7.495053   144A      8.090472  
	 145A     18.496211   146A     42.957436  

	Final Occupation by Irrep:
	          A 
	DOCC [     9 ]

  Energy converged.

  @RHF Final Energy:  -139.05791218878721

   => Energetics <=

    Nuclear Repulsion Energy =             37.3916594278891381
    One-Electron Energy =                -266.3244959456404217
    Two-Electron Energy =                  89.8749243289639139
    DFT Exchange-Correlation Energy =       0.0000000000000000
    Empirical Dispersion Energy =           0.0000000000000000
    Total Energy =                       -139.0579121887873839



Properties will be evaluated at   0.000000,   0.000000,   0.000000 Bohr
  ==> Properties <==


Properties computed using the SCF density density matrix
  Nuclear Dipole Moment: (a.u.)
     X:    61.5218      Y:     0.0000      Z:     0.0000

  Electronic Dipole Moment: (a.u.)
     X:   -62.3362      Y:    -0.0000      Z:    -0.0000

  Dipole Moment: (a.u.)
     X:    -0.8144      Y:    -0.0000      Z:    -0.0000     Total:     0.8144

  Dipole Moment: (Debye)
     X:    -2.0699      Y:    -0.0000      Z:    -0.0000     Total:     2.0699


  Saving occupied orbitals to File 180.

  Saving SAPT 2-MONOMER_B file.

*** tstop() called on node145.bme.utexas.edu at Fri Jun 20 14:19:14 2014
Module time:
	user time   =       9.64 seconds =       0.16 minutes
	system time =       0.14 seconds =       0.00 minutes
	total time  =          3 seconds =       0.05 minutes
Total time:
	user time   =      34.27 seconds =       0.57 minutes
	system time =       0.51 seconds =       0.01 minutes
	total time  =         10 seconds =       0.17 minutes
  No DF_BASIS_SAPT auxiliary basis selected, defaulting to aug-cc-pvdz-ri

  //>>>>>>>>>>>>>>>>>>>>>>>>>>>>>>>>>>>//
  //               SAPT2+              //
  //<<<<<<<<<<<<<<<<<<<<<<<<<<<<<<<<<<<//


*** tstart() called on node145.bme.utexas.edu
*** at Fri Jun 20 14:19:14 2014

        SAPT2+  
    Ed Hohenstein
     6 June 2009

      Orbital Information
  --------------------------
    NSO        =       146
    NMO        =       146
    NRI        =       426
    NOCC A     =         9
    NOCC B     =         9
    FOCC A     =         2
    FOCC B     =         2
    NVIR A     =       137
    NVIR B     =       137

    Estimated memory usage: 100.5 MB

    Elst10,r            =    -0.006952699111 H
    Exch10 (S^2)        =     0.013512747669 H
    Exch10              =     0.013560840973 H
    Ind20,r (A<-B)      =    -0.001393444845 H
    Ind20,r (B<-A)      =    -0.001927116865 H
    Ind20,r             =    -0.003320561710 H
    Exch-Ind20,r (A<-B) =     0.001060067872 H
    Exch-Ind20,r (B<-A) =     0.001620916255 H
    Exch-Ind20,r        =     0.002680984126 H
    Disp20              =    -0.005087452753 H
    Exch-Disp20         =     0.000745897420 H
    Elst12,r            =     0.000020079438 H
    Exch11              =    -0.000147430851 H
    Exch12              =     0.002207002977 H
    Ind22               =    -0.000553957315 H
    Disp21              =     0.000238695358 H
    Disp22 (SDQ)        =    -0.000140046633 H

    (i =   1 of   7)         11 seconds
    (i =   2 of   7)         22 seconds
    (i =   3 of   7)         33 seconds
    (i =   4 of   7)         44 seconds
    (i =   5 of   7)         55 seconds
    (i =   6 of   7)         66 seconds
    (i =   7 of   7)         77 seconds

    Disp220 (T)         =    -0.000410813872 H

    (i =   1 of   7)         12 seconds
    (i =   2 of   7)         23 seconds
    (i =   3 of   7)         34 seconds
    (i =   4 of   7)         45 seconds
    (i =   5 of   7)         56 seconds
    (i =   6 of   7)         67 seconds
    (i =   7 of   7)         78 seconds

    Disp202 (T)         =    -0.000265290956 H

    Disp22 (T)          =    -0.000676104829 H

    SAPT Results  
  -----------------------------------------------------------------------
    Electrostatics          -6.93261967 mH      -4.35028470 kcal mol^-1
      Elst10,r              -6.95269911 mH      -4.36288474 kcal mol^-1
      Elst12,r               0.02007944 mH       0.01260004 kcal mol^-1

    Exchange                15.62041310 mH       9.80195761 kcal mol^-1
      Exch10                13.56084097 mH       8.50955654 kcal mol^-1
      Exch10(S^2)           13.51274767 mH       8.47937753 kcal mol^-1
      Exch11(S^2)           -0.14743085 mH      -0.09251426 kcal mol^-1
      Exch12(S^2)            2.20700298 mH       1.38491533 kcal mol^-1

    Induction               -1.63683494 mH      -1.02712948 kcal mol^-1
      Ind20,r               -3.32056171 mH      -2.08368402 kcal mol^-1
      Ind22                 -0.55395731 mH      -0.34761348 kcal mol^-1
      Exch-Ind20,r           2.68098413 mH       1.68234301 kcal mol^-1
      Exch-Ind22             0.44725890 mH       0.28065921 kcal mol^-1
      delta HF,r (2)        -0.89055894 mH      -0.55883420 kcal mol^-1

    Dispersion              -4.91901144 mH      -3.08672641 kcal mol^-1
      Disp20                -5.08745275 mH      -3.19242493 kcal mol^-1
      Disp21                 0.23869536 mH       0.14978361 kcal mol^-1
      Disp22 (SDQ)          -0.14004663 mH      -0.08788059 kcal mol^-1
      Disp22 (T)            -0.67610483 mH      -0.42426220 kcal mol^-1
      Exch-Disp20            0.74589742 mH       0.46805772 kcal mol^-1

    Total HF                 5.07800534 mH       3.18649659 kcal mol^-1
    Total SAPT0              0.73645000 mH       0.46212937 kcal mol^-1
    Total SAPT2              2.70940315 mH       1.70017622 kcal mol^-1
    Total SAPT2+             2.13194705 mH       1.33781702 kcal mol^-1

*** tstop() called on node145.bme.utexas.edu at Fri Jun 20 14:22:32 2014
Module time:
	user time   =     780.40 seconds =      13.01 minutes
	system time =       7.86 seconds =       0.13 minutes
	total time  =        198 seconds =       3.30 minutes
Total time:
	user time   =     814.68 seconds =      13.58 minutes
	system time =       8.37 seconds =       0.14 minutes
	total time  =        208 seconds =       3.47 minutes

*** PSI4 exiting successfully. Buy a developer a beer!
