    -----------------------------------------------------------------------
          PSI4: An Open-Source Ab Initio Electronic Structure Package
                              PSI 4.0.0-beta4 Driver

    J. M. Turney, A. C. Simmonett, R. M. Parrish, E. G. Hohenstein,
    F. A. Evangelista, J. T. Fermann, B. J. Mintz, L. A. Burns, J. J. Wilke,
    M. L. Abrams, N. J. Russ, M. L. Leininger, C. L. Janssen, E. T. Seidl,
    W. D. Allen, H. F. Schaefer, R. A. King, E. F. Valeev, C. D. Sherrill,
    and T. D. Crawford, WIREs Comput. Mol. Sci., (2011) (doi: 10.1002/wcms.93)

                         Additional Contributions by
    A. E. DePrince, M. Saitow, U. Bozkaya, A. Yu. Sokolov
    -----------------------------------------------------------------------

    Process ID:   5304
    PSI4DATADIR: /home/xzhu216/psi4/psi4-install/share/psi

    Using LocalCommunicator (Number of processes = 1)

    Memory level set to 256.000 MB

  ==> Input File <==

--------------------------------------------------------------------------
#psi4
#
memory 7 gb

molecule MeBr_MeBr {
0 1
   Br     2.177492000    -0.607408000     0.000145000
    C     1.823120000     1.288186000     0.000114000
    H     0.749234000     1.426572000     0.000143000
    H     2.269763000     1.710430000    -0.891301000
    H     2.269817000     1.710469000     0.891483000
--
0 1
   Br    -1.147351466     0.463253745     0.000157503
    C    -0.793233466    -1.432386255     0.000116503
    H    -1.240063466    -1.854586255    -0.891225497
    H    -1.239866466    -1.854588255     0.891556503
    H     0.280630534    -1.570940255    -0.000000497
units angstrom
no_reorient  #important for SAPT in psi4, default
symmetry c1  #important for SAPT in psi4, default
}

set {
basis aug-cc-pVDZ
scf_type DF
freeze_core True
}
energy('sapt2+')
--------------------------------------------------------------------------

  Memory set to   7.000 GiB by Python script.

  //>>>>>>>>>>>>>>>>>>>>>>>>>>>>>>>>>>>//
  //              Dimer HF             //
  //<<<<<<<<<<<<<<<<<<<<<<<<<<<<<<<<<<<//


  No DF_BASIS_SCF auxiliary basis selected, defaulting to aug-cc-pvdz-jkfit


*** tstart() called on node33.bme.utexas.edu
*** at Fri Jun 20 14:49:51 2014


         ---------------------------------------------------------
                                   SCF
            by Justin Turney, Rob Parrish, and Andy Simmonett
                              RHF Reference
                        4 Threads,   7000 MiB Core
         ---------------------------------------------------------

  ==> Geometry <==

    Molecular point group: c1
    Full point group: C1

    Geometry (in Angstrom), charge = 0, multiplicity = 1:

       Center              X                  Y                   Z       
    ------------   -----------------  -----------------  -----------------
          BR          1.662442821040    -0.535326963610    -0.000000301158
           C          1.308070821040     1.360267036390    -0.000031301158
           H          0.234184821040     1.498653036390    -0.000002301158
           H          1.754713821040     1.782511036390    -0.891446301158
           H          1.754767821040     1.782550036390     0.891337698842
          BR         -1.662400644960     0.535334781390     0.000012201842
           C         -1.308282644960    -1.360305218610    -0.000028798158
           H         -1.755112644960    -1.782505218610    -0.891370798158
           H         -1.754915644960    -1.782507218610     0.891411201842
           H         -0.234418644960    -1.498859218610    -0.000145798158

  Running in c1 symmetry.

  Nuclear repulsion =  485.168030786903103

  Charge       = 0
  Multiplicity = 1
  Electrons    = 88
  Nalpha       = 44
  Nbeta        = 44

  ==> Algorithm <==

  SCF Algorithm Type is DF.
  DIIS enabled.
  MOM disabled.
  Fractional occupation disabled.
  Guess Type is CORE.
  Energy threshold   = 1.00e-08
  Density threshold  = 1.00e-08
  Integral threshold = 0.00e+00

  ==> Primary Basis <==

  Basis Set: AUG-CC-PVDZ
    Number of shells: 76
    Number of basis function: 172
    Number of Cartesian functions: 182
    Spherical Harmonics?: true
    Max angular momentum: 2

  ==> Pre-Iterations <==

   -------------------------------------------------------
    Irrep   Nso     Nmo     Nalpha   Nbeta   Ndocc  Nsocc
   -------------------------------------------------------
     A        172     172       0       0       0       0
   -------------------------------------------------------
    Total     172     172      44      44      44       0
   -------------------------------------------------------

 OEINTS: Wrapper to libmints.
   by Justin Turney

   Calculation information:
      Number of atoms:                  10
      Number of AO shells:              76
      Number of SO shells:              76
      Number of primitives:            278
      Number of atomic orbitals:       182
      Number of basis functions:       172

      Number of irreps:                  1
      Number of functions per irrep: [ 172 ]

      Overlap, kinetic, potential, dipole, and quadrupole integrals
        stored in file 35.

  ==> Integral Setup <==

  ==> DFJK: Density-Fitted J/K Matrices <==

    J tasked:                  Yes
    K tasked:                  Yes
    wK tasked:                  No
    OpenMP threads:              4
    Integrals threads:           4
    Memory (MB):              5006
    Algorithm:                Core
    Integral Cache:           SAVE
    Schwarz Cutoff:          0E+00
    Fitting Condition:       1E-12

   => Auxiliary Basis Set <=

  Basis Set: aug-cc-pvdz-jkfit
    Number of shells: 232
    Number of basis function: 752
    Number of Cartesian functions: 890
    Spherical Harmonics?: true
    Max angular momentum: 3

  Minimum eigenvalue in the overlap matrix is 3.2988145673E-04.
  Using Symmetric Orthogonalization.
  SCF Guess: Core (One-Electron) Hamiltonian.

  Guess energy: -3742.01364193522431

  ==> Iterations <==

                        Total Energy        Delta E     RMS |[F,P]|

   @RHF iter   1: -5171.92248587661015   -5.17192e+03   2.42963e-02 
   @RHF iter   2: -4917.96922353693662    2.53953e+02   7.95059e-02 DIIS
   @RHF iter   3: -5190.31149796615682   -2.72342e+02   3.02877e-02 DIIS
   @RHF iter   4: -5211.53576512189738   -2.12243e+01   1.87530e-02 DIIS
   @RHF iter   5: -5220.42399960341663   -8.88823e+00   1.16601e-02 DIIS
   @RHF iter   6: -5221.26945844192869   -8.45459e-01   8.45414e-03 DIIS
   @RHF iter   7: -5221.94637189675177   -6.76913e-01   5.77301e-03 DIIS
   @RHF iter   8: -5222.60799558065628   -6.61624e-01   5.95296e-04 DIIS
   @RHF iter   9: -5222.61953666117097   -1.15411e-02   2.59117e-04 DIIS
   @RHF iter  10: -5222.62118751361504   -1.65085e-03   9.15276e-05 DIIS
   @RHF iter  11: -5222.62156718334518   -3.79670e-04   2.40603e-05 DIIS
   @RHF iter  12: -5222.62159588028589   -2.86969e-05   5.44097e-06 DIIS
   @RHF iter  13: -5222.62159729351242   -1.41323e-06   1.41565e-06 DIIS
   @RHF iter  14: -5222.62159734953093   -5.60185e-08   2.19098e-07 DIIS
   @RHF iter  15: -5222.62159735141176   -1.88084e-09   6.63582e-08 DIIS
   @RHF iter  16: -5222.62159735160640   -1.94632e-10   2.24124e-08 DIIS
   @RHF iter  17: -5222.62159735162641   -2.00089e-11   7.61064e-09 DIIS

  ==> Post-Iterations <==

	Orbital Energies (a.u.)
	-----------------------

	Doubly Occupied:                                                      

	   1A   -490.090489     2A   -490.090485     3A    -65.225539  
	   4A    -65.225534     5A    -58.582706     6A    -58.582702  
	   7A    -58.581460     8A    -58.581455     9A    -58.581425  
	  10A    -58.581421    11A    -11.280027    12A    -11.280013  
	  13A     -9.862374    14A     -9.862368    15A     -7.474553  
	  16A     -7.474548    17A     -7.467047    18A     -7.467042  
	  19A     -7.466746    20A     -7.466741    21A     -3.075621  
	  22A     -3.075616    23A     -3.071751    24A     -3.071743  
	  25A     -3.071641    26A     -3.071636    27A     -3.062787  
	  28A     -3.062780    29A     -3.062701    30A     -3.062695  
	  31A     -1.081889    32A     -1.055184    33A     -0.915139  
	  34A     -0.883874    35A     -0.642138    36A     -0.607353  
	  37A     -0.602534    38A     -0.596022    39A     -0.517793  
	  40A     -0.494843    41A     -0.414073    42A     -0.407884  
	  43A     -0.403618    44A     -0.378407  

	Virtual:                                                              

	  45A      0.038569    46A      0.040928    47A      0.054825  
	  48A      0.056844    49A      0.065000    50A      0.076179  
	  51A      0.092140    52A      0.124957    53A      0.126225  
	  54A      0.140762    55A      0.146646    56A      0.148575  
	  57A      0.149883    58A      0.158533    59A      0.165319  
	  60A      0.166044    61A      0.179083    62A      0.190433  
	  63A      0.193096    64A      0.207845    65A      0.235147  
	  66A      0.261932    67A      0.262558    68A      0.280342  
	  69A      0.284129    70A      0.294419    71A      0.304956  
	  72A      0.325811    73A      0.359272    74A      0.375625  
	  75A      0.377551    76A      0.384922    77A      0.416873  
	  78A      0.421873    79A      0.430322    80A      0.442792  
	  81A      0.448320    82A      0.448746    83A      0.475170  
	  84A      0.478382    85A      0.494683    86A      0.515178  
	  87A      0.534377    88A      0.537378    89A      0.553376  
	  90A      0.555700    91A      0.567887    92A      0.570157  
	  93A      0.571322    94A      0.617035    95A      0.617679  
	  96A      0.618950    97A      0.653717    98A      0.656751  
	  99A      0.658965   100A      0.664038   101A      0.684744  
	 102A      0.733426   103A      0.748533   104A      0.750113  
	 105A      0.769731   106A      0.773169   107A      0.791430  
	 108A      0.809223   109A      0.824866   110A      0.838583  
	 111A      0.843351   112A      0.865431   113A      0.973755  
	 114A      1.008944   115A      1.027511   116A      1.046429  
	 117A      1.067043   118A      1.069497   119A      1.078886  
	 120A      1.091684   121A      1.136760   122A      1.197697  
	 123A      1.233231   124A      1.247648   125A      1.255924  
	 126A      1.262152   127A      1.286079   128A      1.293548  
	 129A      1.323417   130A      1.339790   131A      1.347045  
	 132A      1.374816   133A      1.382936   134A      1.392459  
	 135A      1.418445   136A      1.436339   137A      1.446329  
	 138A      1.452671   139A      1.502763   140A      1.512335  
	 141A      1.567099   142A      1.620434   143A      1.776512  
	 144A      1.786082   145A      1.802304   146A      1.881907  
	 147A      1.897927   148A      1.944942   149A      2.049215  
	 150A      2.053633   151A      2.063783   152A      2.064976  
	 153A      2.082757   154A      2.136300   155A      2.202135  
	 156A      2.211735   157A      2.218713   158A      2.222016  
	 159A      2.282311   160A      2.317156   161A      2.388452  
	 162A      2.411983   163A      2.492423   164A      2.519495  
	 165A      2.541914   166A      2.596061   167A      2.850938  
	 168A      2.852204   169A      2.931485   170A      2.958822  
	 171A      2.966731   172A      3.015794  

	Final Occupation by Irrep:
	          A 
	DOCC [    44 ]

  Energy converged.

  @RHF Final Energy: -5222.62159735162641

   => Energetics <=

    Nuclear Repulsion Energy =            485.1680307869031026
    One-Electron Energy =               -8237.7504655856973841
    Two-Electron Energy =                2529.9608374471717980
    DFT Exchange-Correlation Energy =       0.0000000000000000
    Empirical Dispersion Energy =           0.0000000000000000
    Total Energy =                      -5222.6215973516227677



Properties will be evaluated at   0.000000,   0.000000,   0.000000 Bohr
  ==> Properties <==


Properties computed using the SCF density density matrix
  Nuclear Dipole Moment: (a.u.)
     X:    -0.0011      Y:    -0.0002      Z:    -0.0003

  Electronic Dipole Moment: (a.u.)
     X:     0.0009      Y:     0.0002      Z:     0.0003

  Dipole Moment: (a.u.)
     X:    -0.0002      Y:    -0.0000      Z:    -0.0000     Total:     0.0002

  Dipole Moment: (Debye)
     X:    -0.0005      Y:    -0.0001      Z:    -0.0001     Total:     0.0005


  Saving occupied orbitals to File 180.

  Saving SAPT 2-DIMER file.

*** tstop() called on node33.bme.utexas.edu at Fri Jun 20 14:50:10 2014
Module time:
	user time   =      61.99 seconds =       1.03 minutes
	system time =       0.99 seconds =       0.02 minutes
	total time  =         19 seconds =       0.32 minutes
Total time:
	user time   =      61.99 seconds =       1.03 minutes
	system time =       0.99 seconds =       0.02 minutes
	total time  =         19 seconds =       0.32 minutes

  //>>>>>>>>>>>>>>>>>>>>>>>>>>>>>>>>>>>//
  //            Monomer A HF           //
  //<<<<<<<<<<<<<<<<<<<<<<<<<<<<<<<<<<<//


  No DF_BASIS_SCF auxiliary basis selected, defaulting to aug-cc-pvdz-jkfit


*** tstart() called on node33.bme.utexas.edu
*** at Fri Jun 20 14:50:10 2014


         ---------------------------------------------------------
                                   SCF
            by Justin Turney, Rob Parrish, and Andy Simmonett
                              RHF Reference
                        4 Threads,   7000 MiB Core
         ---------------------------------------------------------

  ==> Geometry <==

    Molecular point group: c1
    Full point group: C1

    Geometry (in Angstrom), charge = 0, multiplicity = 1:

       Center              X                  Y                   Z       
    ------------   -----------------  -----------------  -----------------
          BR          1.662442821040    -0.535326963610    -0.000000301158
           C          1.308070821040     1.360267036390    -0.000031301158
           H          0.234184821040     1.498653036390    -0.000002301158
           H          1.754713821040     1.782511036390    -0.891446301158
           H          1.754767821040     1.782550036390     0.891337698842
          BR(Gh)     -1.662400644960     0.535334781390     0.000012201842
           C(Gh)     -1.308282644960    -1.360305218610    -0.000028798158
           H(Gh)     -1.755112644960    -1.782505218610    -0.891370798158
           H(Gh)     -1.754915644960    -1.782507218610     0.891411201842
           H(Gh)     -0.234418644960    -1.498859218610    -0.000145798158

  Running in c1 symmetry.

  Nuclear repulsion =   89.670453274137969

  Charge       = 0
  Multiplicity = 1
  Electrons    = 44
  Nalpha       = 22
  Nbeta        = 22

  ==> Algorithm <==

  SCF Algorithm Type is DF.
  DIIS enabled.
  MOM disabled.
  Fractional occupation disabled.
  Guess Type is CORE.
  Energy threshold   = 1.00e-08
  Density threshold  = 1.00e-08
  Integral threshold = 0.00e+00

  ==> Primary Basis <==

  Basis Set: AUG-CC-PVDZ
    Number of shells: 76
    Number of basis function: 172
    Number of Cartesian functions: 182
    Spherical Harmonics?: true
    Max angular momentum: 2

  ==> Pre-Iterations <==

   -------------------------------------------------------
    Irrep   Nso     Nmo     Nalpha   Nbeta   Ndocc  Nsocc
   -------------------------------------------------------
     A        172     172       0       0       0       0
   -------------------------------------------------------
    Total     172     172      22      22      22       0
   -------------------------------------------------------

 OEINTS: Wrapper to libmints.
   by Justin Turney

   Calculation information:
      Number of atoms:                  10
      Number of AO shells:              76
      Number of SO shells:              76
      Number of primitives:            278
      Number of atomic orbitals:       182
      Number of basis functions:       172

      Number of irreps:                  1
      Number of functions per irrep: [ 172 ]

      Overlap, kinetic, potential, dipole, and quadrupole integrals
        stored in file 35.

  ==> Integral Setup <==

  ==> DFJK: Density-Fitted J/K Matrices <==

    J tasked:                  Yes
    K tasked:                  Yes
    wK tasked:                  No
    OpenMP threads:              4
    Integrals threads:           4
    Memory (MB):              5006
    Algorithm:                Core
    Integral Cache:           LOAD
    Schwarz Cutoff:          0E+00
    Fitting Condition:       1E-12

   => Auxiliary Basis Set <=

  Basis Set: aug-cc-pvdz-jkfit
    Number of shells: 232
    Number of basis function: 752
    Number of Cartesian functions: 890
    Spherical Harmonics?: true
    Max angular momentum: 3

  Minimum eigenvalue in the overlap matrix is 3.2988145673E-04.
  Using Symmetric Orthogonalization.
  SCF Guess: Core (One-Electron) Hamiltonian.

  Guess energy: -1872.41626013753171

  ==> Iterations <==

                        Total Energy        Delta E     RMS |[F,P]|

   @RHF iter   1: -2584.10288246711707   -2.58410e+03   1.67137e-02 
   @RHF iter   2: -2450.78221851230319    1.33321e+02   5.64480e-02 DIIS
   @RHF iter   3: -2593.41505205647218   -1.42633e+02   2.23537e-02 DIIS
   @RHF iter   4: -2600.47677470249846   -7.06172e+00   1.64082e-02 DIIS
   @RHF iter   5: -2605.79237745394812   -5.31560e+00   1.32684e-02 DIIS
   @RHF iter   6: -2607.25507998050716   -1.46270e+00   1.16100e-02 DIIS
   @RHF iter   7: -2609.02174811084842   -1.76667e+00   9.05460e-03 DIIS
   @RHF iter   8: -2609.77439313002697   -7.52645e-01   6.17897e-03 DIIS
   @RHF iter   9: -2611.26612110852921   -1.49173e+00   1.85288e-03 DIIS
   @RHF iter  10: -2611.32490776362329   -5.87867e-02   5.87196e-04 DIIS
   @RHF iter  11: -2611.33128641933581   -6.37866e-03   1.12668e-04 DIIS
   @RHF iter  12: -2611.33165061843874   -3.64199e-04   6.66636e-05 DIIS
   @RHF iter  13: -2611.33175106819817   -1.00450e-04   2.59531e-05 DIIS
   @RHF iter  14: -2611.33177243381124   -2.13656e-05   6.29130e-06 DIIS
   @RHF iter  15: -2611.33177403738091   -1.60357e-06   1.24031e-06 DIIS
   @RHF iter  16: -2611.33177411529368   -7.79128e-08   3.18654e-07 DIIS
   @RHF iter  17: -2611.33177412065425   -5.36056e-09   5.50355e-08 DIIS
   @RHF iter  18: -2611.33177412081977   -1.65528e-10   1.25381e-08 DIIS
   @RHF iter  19: -2611.33177412082796   -8.18545e-12   2.16277e-09 DIIS

  ==> Post-Iterations <==

	Orbital Energies (a.u.)
	-----------------------

	Doubly Occupied:                                                      

	   1A   -490.092375     2A    -65.226576     3A    -58.583900  
	   4A    -58.582532     5A    -58.582522     6A    -11.295697  
	   7A     -9.862401     8A     -7.474887     9A     -7.466676  
	  10A     -7.466608    11A     -3.076052    12A     -3.071955  
	  13A     -3.071830    14A     -3.062348    15A     -3.062318  
	  16A     -1.067588    17A     -0.899831    18A     -0.613889  
	  19A     -0.613143    20A     -0.509132    21A     -0.402646  
	  22A     -0.402172  

	Virtual:                                                              

	  23A      0.029402    24A      0.041676    25A      0.052113  
	  26A      0.052834    27A      0.065428    28A      0.075784  
	  29A      0.088427    30A      0.115270    31A      0.118468  
	  32A      0.124605    33A      0.133304    34A      0.141412  
	  35A      0.148187    36A      0.156456    37A      0.162403  
	  38A      0.163664    39A      0.173527    40A      0.183471  
	  41A      0.186870    42A      0.195561    43A      0.214634  
	  44A      0.255952    45A      0.277676    46A      0.290309  
	  47A      0.305711    48A      0.322922    49A      0.330710  
	  50A      0.354150    51A      0.360663    52A      0.383206  
	  53A      0.388390    54A      0.404489    55A      0.410441  
	  56A      0.413972    57A      0.437730    58A      0.445812  
	  59A      0.451885    60A      0.469019    61A      0.476469  
	  62A      0.487406    63A      0.510801    64A      0.515894  
	  65A      0.538905    66A      0.542488    67A      0.558276  
	  68A      0.564866    69A      0.569537    70A      0.589905  
	  71A      0.613292    72A      0.616974    73A      0.639900  
	  74A      0.640164    75A      0.660489    76A      0.680844  
	  77A      0.685010    78A      0.715036    79A      0.725269  
	  80A      0.727551    81A      0.742884    82A      0.776823  
	  83A      0.791983    84A      0.793722    85A      0.804740  
	  86A      0.843936    87A      0.847736    88A      0.851022  
	  89A      0.871218    90A      0.873206    91A      0.884845  
	  92A      0.905326    93A      0.924700    94A      0.965206  
	  95A      0.967675    96A      1.020920    97A      1.039910  
	  98A      1.063639    99A      1.063970   100A      1.089561  
	 101A      1.145224   102A      1.234513   103A      1.261444  
	 104A      1.273266   105A      1.301371   106A      1.319666  
	 107A      1.358487   108A      1.383888   109A      1.436878  
	 110A      1.442527   111A      1.498734   112A      1.534957  
	 113A      1.669267   114A      1.734992   115A      1.775652  
	 116A      1.780176   117A      1.831887   118A      1.854316  
	 119A      1.878077   120A      1.904440   121A      1.912992  
	 122A      1.935751   123A      1.973857   124A      1.983491  
	 125A      1.998749   126A      2.043388   127A      2.061218  
	 128A      2.061612   129A      2.110257   130A      2.130032  
	 131A      2.178474   132A      2.212125   133A      2.268492  
	 134A      2.295168   135A      2.340365   136A      2.360642  
	 137A      2.360748   138A      2.404793   139A      2.424210  
	 140A      2.501454   141A      2.556557   142A      2.559611  
	 143A      2.577416   144A      2.726269   145A      2.824687  
	 146A      2.855585   147A      2.916550   148A      2.933429  
	 149A      2.976552   150A      2.991346   151A      3.032485  
	 152A      3.230377   153A      3.246242   154A      3.311064  
	 155A      4.132360   156A      5.155139   157A      5.171985  
	 158A      5.890478   159A     11.690806   160A     11.862431  
	 161A     11.974512   162A     18.402440   163A     23.184312  
	 164A     23.218096   165A     23.248849   166A     23.299517  
	 167A     23.389021   168A     41.532209   169A    135.564658  
	 170A    135.804821   171A    135.971667   172A    699.888294  

	Final Occupation by Irrep:
	          A 
	DOCC [    22 ]

  Energy converged.

  @RHF Final Energy: -2611.33177412082796

   => Energetics <=

    Nuclear Repulsion Energy =             89.6704532741379694
    One-Electron Energy =               -3813.0303010369188996
    Two-Electron Energy =                1112.0280736419554160
    DFT Exchange-Correlation Energy =       0.0000000000000000
    Empirical Dispersion Energy =           0.0000000000000000
    Total Energy =                      -2611.3317741208256848



Properties will be evaluated at   0.000000,   0.000000,   0.000000 Bohr
  ==> Properties <==


Properties computed using the SCF density density matrix
  Nuclear Dipole Moment: (a.u.)
     X:   131.8605      Y:   -10.4145      Z:    -0.0006

  Electronic Dipole Moment: (a.u.)
     X:  -132.0201      Y:    11.2578      Z:     0.0006

  Dipole Moment: (a.u.)
     X:    -0.1596      Y:     0.8433      Z:    -0.0000     Total:     0.8582

  Dipole Moment: (Debye)
     X:    -0.4056      Y:     2.1434      Z:    -0.0000     Total:     2.1814


  Saving occupied orbitals to File 180.

  Saving SAPT 2-MONOMER_A file.

*** tstop() called on node33.bme.utexas.edu at Fri Jun 20 14:50:23 2014
Module time:
	user time   =      42.15 seconds =       0.70 minutes
	system time =       0.44 seconds =       0.01 minutes
	total time  =         13 seconds =       0.22 minutes
Total time:
	user time   =     104.37 seconds =       1.74 minutes
	system time =       1.44 seconds =       0.02 minutes
	total time  =         32 seconds =       0.53 minutes

  //>>>>>>>>>>>>>>>>>>>>>>>>>>>>>>>>>>>//
  //            Monomer B HF           //
  //<<<<<<<<<<<<<<<<<<<<<<<<<<<<<<<<<<<//


  No DF_BASIS_SCF auxiliary basis selected, defaulting to aug-cc-pvdz-jkfit


*** tstart() called on node33.bme.utexas.edu
*** at Fri Jun 20 14:50:23 2014


         ---------------------------------------------------------
                                   SCF
            by Justin Turney, Rob Parrish, and Andy Simmonett
                              RHF Reference
                        4 Threads,   7000 MiB Core
         ---------------------------------------------------------

  ==> Geometry <==

    Molecular point group: c1
    Full point group: C1

    Geometry (in Angstrom), charge = 0, multiplicity = 1:

       Center              X                  Y                   Z       
    ------------   -----------------  -----------------  -----------------
          BR(Gh)      1.662442821040    -0.535326963610    -0.000000301158
           C(Gh)      1.308070821040     1.360267036390    -0.000031301158
           H(Gh)      0.234184821040     1.498653036390    -0.000002301158
           H(Gh)      1.754713821040     1.782511036390    -0.891446301158
           H(Gh)      1.754767821040     1.782550036390     0.891337698842
          BR         -1.662400644960     0.535334781390     0.000012201842
           C         -1.308282644960    -1.360305218610    -0.000028798158
           H         -1.755112644960    -1.782505218610    -0.891370798158
           H         -1.754915644960    -1.782507218610     0.891411201842
           H         -0.234418644960    -1.498859218610    -0.000145798158

  Running in c1 symmetry.

  Nuclear repulsion =   89.670472148511138

  Charge       = 0
  Multiplicity = 1
  Electrons    = 44
  Nalpha       = 22
  Nbeta        = 22

  ==> Algorithm <==

  SCF Algorithm Type is DF.
  DIIS enabled.
  MOM disabled.
  Fractional occupation disabled.
  Guess Type is CORE.
  Energy threshold   = 1.00e-08
  Density threshold  = 1.00e-08
  Integral threshold = 0.00e+00

  ==> Primary Basis <==

  Basis Set: AUG-CC-PVDZ
    Number of shells: 76
    Number of basis function: 172
    Number of Cartesian functions: 182
    Spherical Harmonics?: true
    Max angular momentum: 2

  ==> Pre-Iterations <==

   -------------------------------------------------------
    Irrep   Nso     Nmo     Nalpha   Nbeta   Ndocc  Nsocc
   -------------------------------------------------------
     A        172     172       0       0       0       0
   -------------------------------------------------------
    Total     172     172      22      22      22       0
   -------------------------------------------------------

 OEINTS: Wrapper to libmints.
   by Justin Turney

   Calculation information:
      Number of atoms:                  10
      Number of AO shells:              76
      Number of SO shells:              76
      Number of primitives:            278
      Number of atomic orbitals:       182
      Number of basis functions:       172

      Number of irreps:                  1
      Number of functions per irrep: [ 172 ]

      Overlap, kinetic, potential, dipole, and quadrupole integrals
        stored in file 35.

  ==> Integral Setup <==

  ==> DFJK: Density-Fitted J/K Matrices <==

    J tasked:                  Yes
    K tasked:                  Yes
    wK tasked:                  No
    OpenMP threads:              4
    Integrals threads:           4
    Memory (MB):              5006
    Algorithm:                Core
    Integral Cache:           LOAD
    Schwarz Cutoff:          0E+00
    Fitting Condition:       1E-12

   => Auxiliary Basis Set <=

  Basis Set: aug-cc-pvdz-jkfit
    Number of shells: 232
    Number of basis function: 752
    Number of Cartesian functions: 890
    Spherical Harmonics?: true
    Max angular momentum: 3

  Minimum eigenvalue in the overlap matrix is 3.2988145673E-04.
  Using Symmetric Orthogonalization.
  SCF Guess: Core (One-Electron) Hamiltonian.

  Guess energy: -1872.41667422910132

  ==> Iterations <==

                        Total Energy        Delta E     RMS |[F,P]|

   @RHF iter   1: -2584.10262204494484   -2.58410e+03   1.67139e-02 
   @RHF iter   2: -2450.78218875308448    1.33320e+02   5.64482e-02 DIIS
   @RHF iter   3: -2593.41512213072610   -1.42633e+02   2.23536e-02 DIIS
   @RHF iter   4: -2600.47715766486135   -7.06204e+00   1.64078e-02 DIIS
   @RHF iter   5: -2605.79278520258595   -5.31563e+00   1.32682e-02 DIIS
   @RHF iter   6: -2607.25602562959557   -1.46324e+00   1.16098e-02 DIIS
   @RHF iter   7: -2609.02192198218154   -1.76590e+00   9.05413e-03 DIIS
   @RHF iter   8: -2609.77472783902795   -7.52806e-01   6.17768e-03 DIIS
   @RHF iter   9: -2611.26618878086811   -1.49146e+00   1.85173e-03 DIIS
   @RHF iter  10: -2611.32489510381583   -5.87063e-02   5.87689e-04 DIIS
   @RHF iter  11: -2611.33128662640138   -6.39152e-03   1.12587e-04 DIIS
   @RHF iter  12: -2611.33165122112814   -3.64595e-04   6.65064e-05 DIIS
   @RHF iter  13: -2611.33175120179703   -9.99807e-05   2.58935e-05 DIIS
   @RHF iter  14: -2611.33177247253298   -2.12707e-05   6.28424e-06 DIIS
   @RHF iter  15: -2611.33177407295989   -1.60043e-06   1.23967e-06 DIIS
   @RHF iter  16: -2611.33177415079990   -7.78400e-08   3.18571e-07 DIIS
   @RHF iter  17: -2611.33177415616046   -5.36056e-09   5.50472e-08 DIIS
   @RHF iter  18: -2611.33177415632372   -1.63254e-10   1.25395e-08 DIIS
   @RHF iter  19: -2611.33177415632690   -3.18323e-12   2.16343e-09 DIIS

  ==> Post-Iterations <==

	Orbital Energies (a.u.)
	-----------------------

	Doubly Occupied:                                                      

	   1A   -490.092375     2A    -65.226576     3A    -58.583901  
	   4A    -58.582532     5A    -58.582522     6A    -11.295697  
	   7A     -9.862401     8A     -7.474887     9A     -7.466677  
	  10A     -7.466609    11A     -3.076052    12A     -3.071956  
	  13A     -3.071830    14A     -3.062348    15A     -3.062318  
	  16A     -1.067588    17A     -0.899831    18A     -0.613888  
	  19A     -0.613142    20A     -0.509133    21A     -0.402646  
	  22A     -0.402172  

	Virtual:                                                              

	  23A      0.029403    24A      0.041676    25A      0.052113  
	  26A      0.052834    27A      0.065428    28A      0.075784  
	  29A      0.088425    30A      0.115274    31A      0.118466  
	  32A      0.124607    33A      0.133302    34A      0.141410  
	  35A      0.148185    36A      0.156462    37A      0.162405  
	  38A      0.163664    39A      0.173525    40A      0.183474  
	  41A      0.186868    42A      0.195561    43A      0.214635  
	  44A      0.255954    45A      0.277673    46A      0.290313  
	  47A      0.305697    48A      0.322927    49A      0.330714  
	  50A      0.354158    51A      0.360662    52A      0.383220  
	  53A      0.388394    54A      0.404487    55A      0.410441  
	  56A      0.413964    57A      0.437732    58A      0.445814  
	  59A      0.451886    60A      0.469017    61A      0.476475  
	  62A      0.487404    63A      0.510808    64A      0.515902  
	  65A      0.538901    66A      0.542489    67A      0.558268  
	  68A      0.564857    69A      0.569539    70A      0.589903  
	  71A      0.613297    72A      0.616976    73A      0.639894  
	  74A      0.640162    75A      0.660488    76A      0.680844  
	  77A      0.685014    78A      0.715029    79A      0.725254  
	  80A      0.727552    81A      0.742881    82A      0.776814  
	  83A      0.792005    84A      0.793726    85A      0.804741  
	  86A      0.843939    87A      0.847744    88A      0.851035  
	  89A      0.871242    90A      0.873207    91A      0.884844  
	  92A      0.905321    93A      0.924676    94A      0.965214  
	  95A      0.967669    96A      1.020925    97A      1.039918  
	  98A      1.063636    99A      1.063950   100A      1.089577  
	 101A      1.145221   102A      1.234508   103A      1.261442  
	 104A      1.273262   105A      1.301380   106A      1.319676  
	 107A      1.358503   108A      1.383873   109A      1.436880  
	 110A      1.442522   111A      1.498780   112A      1.534994  
	 113A      1.669241   114A      1.734987   115A      1.775637  
	 116A      1.780174   117A      1.831879   118A      1.854324  
	 119A      1.878087   120A      1.904421   121A      1.913017  
	 122A      1.935766   123A      1.973861   124A      1.983498  
	 125A      1.998752   126A      2.043376   127A      2.061146  
	 128A      2.061596   129A      2.110272   130A      2.130065  
	 131A      2.178462   132A      2.212123   133A      2.268492  
	 134A      2.295132   135A      2.340376   136A      2.360617  
	 137A      2.360779   138A      2.404803   139A      2.424212  
	 140A      2.501451   141A      2.556564   142A      2.559610  
	 143A      2.577426   144A      2.726270   145A      2.824695  
	 146A      2.855554   147A      2.916591   148A      2.933420  
	 149A      2.976552   150A      2.991335   151A      3.032500  
	 152A      3.230385   153A      3.246261   154A      3.311078  
	 155A      4.132354   156A      5.155149   157A      5.171991  
	 158A      5.890467   159A     11.690804   160A     11.862427  
	 161A     11.974461   162A     18.402446   163A     23.184315  
	 164A     23.218101   165A     23.248839   166A     23.299486  
	 167A     23.389014   168A     41.532202   169A    135.564652  
	 170A    135.804813   171A    135.971583   172A    699.888297  

	Final Occupation by Irrep:
	          A 
	DOCC [    22 ]

  Energy converged.

  @RHF Final Energy: -2611.33177415632690

   => Energetics <=

    Nuclear Repulsion Energy =             89.6704721485111378
    One-Electron Energy =               -3813.0303324889518990
    Two-Electron Energy =                1112.0280861841079059
    DFT Exchange-Correlation Energy =       0.0000000000000000
    Empirical Dispersion Energy =           0.0000000000000000
    Total Energy =                      -2611.3317741563328127



Properties will be evaluated at   0.000000,   0.000000,   0.000000 Bohr
  ==> Properties <==


Properties computed using the SCF density density matrix
  Nuclear Dipole Moment: (a.u.)
     X:  -131.8616      Y:    10.4143      Z:     0.0003

  Electronic Dipole Moment: (a.u.)
     X:   132.0211      Y:   -11.2576      Z:    -0.0003

  Dipole Moment: (a.u.)
     X:     0.1594      Y:    -0.8433      Z:    -0.0000     Total:     0.8582

  Dipole Moment: (Debye)
     X:     0.4053      Y:    -2.1434      Z:    -0.0000     Total:     2.1814


  Saving occupied orbitals to File 180.

  Saving SAPT 2-MONOMER_B file.

*** tstop() called on node33.bme.utexas.edu at Fri Jun 20 14:50:34 2014
Module time:
	user time   =      39.60 seconds =       0.66 minutes
	system time =       0.57 seconds =       0.01 minutes
	total time  =         11 seconds =       0.18 minutes
Total time:
	user time   =     144.06 seconds =       2.40 minutes
	system time =       2.01 seconds =       0.03 minutes
	total time  =         43 seconds =       0.72 minutes
  No DF_BASIS_SAPT auxiliary basis selected, defaulting to aug-cc-pvdz-ri

  //>>>>>>>>>>>>>>>>>>>>>>>>>>>>>>>>>>>//
  //               SAPT2+              //
  //<<<<<<<<<<<<<<<<<<<<<<<<<<<<<<<<<<<//


*** tstart() called on node33.bme.utexas.edu
*** at Fri Jun 20 14:50:34 2014

        SAPT2+  
    Ed Hohenstein
     6 June 2009

      Orbital Information
  --------------------------
    NSO        =       172
    NMO        =       172
    NRI        =       542
    NOCC A     =        22
    NOCC B     =        22
    FOCC A     =        10
    FOCC B     =        10
    NVIR A     =       150
    NVIR B     =       150

    Estimated memory usage: 358.9 MB

    Elst10,r            =    -0.034751073920 H
    Exch10 (S^2)        =     0.086160582821 H
    Exch10              =     0.088705606047 H
    Ind20,r (A<-B)      =    -0.025643853102 H
    Ind20,r (B<-A)      =    -0.025632438669 H
    Ind20,r             =    -0.051276291771 H
    Exch-Ind20,r (A<-B) =     0.022226422234 H
    Exch-Ind20,r (B<-A) =     0.022214206959 H
    Exch-Ind20,r        =     0.044440629193 H
    Disp20              =    -0.023448282704 H
    Exch-Disp20         =     0.004902782111 H
    Elst12,r            =    -0.001253549742 H
    Exch11              =     0.001344645267 H
    Exch12              =     0.002806427817 H
    Ind22               =    -0.005587567217 H
    Disp21              =     0.002735995786 H
    Disp22 (SDQ)        =     0.000265558510 H

    (i =   1 of  12)         70 seconds
    (i =   2 of  12)        193 seconds
    (i =   3 of  12)        297 seconds
    (i =   4 of  12)        385 seconds
    (i =   5 of  12)        476 seconds
    (i =   6 of  12)        578 seconds
    (i =   7 of  12)        682 seconds
    (i =   8 of  12)        792 seconds
    (i =   9 of  12)        893 seconds
    (i =  10 of  12)        997 seconds
    (i =  11 of  12)       1102 seconds
    (i =  12 of  12)       1233 seconds

    Disp220 (T)         =    -0.001343002746 H

    (i =   1 of  12)        121 seconds
    (i =   2 of  12)        217 seconds
    (i =   3 of  12)        302 seconds
    (i =   4 of  12)        406 seconds
    (i =   5 of  12)        533 seconds
    (i =   6 of  12)        657 seconds
    (i =   7 of  12)        756 seconds
    (i =   8 of  12)        846 seconds
    (i =   9 of  12)        950 seconds
    (i =  10 of  12)       1076 seconds
    (i =  11 of  12)       1198 seconds
    (i =  12 of  12)       1298 seconds

    Disp202 (T)         =    -0.001342979452 H

    Disp22 (T)          =    -0.002685982198 H

    SAPT Results  
  -----------------------------------------------------------------------
    Electrostatics         -36.00462366 mH     -22.59324339 kcal mol^-1
      Elst10,r             -34.75107392 mH     -21.80662902 kcal mol^-1
      Elst12,r              -1.25354974 mH      -0.78661437 kcal mol^-1

    Exchange                92.85667913 mH      58.26844829 kcal mol^-1
      Exch10                88.70560605 mH      55.66361050 kcal mol^-1
      Exch10(S^2)           86.16058282 mH      54.06658425 kcal mol^-1
      Exch11(S^2)            1.34464527 mH       0.84377768 kcal mol^-1
      Exch12(S^2)            2.80642782 mH       1.76106012 kcal mol^-1

    Induction              -12.74848738 mH      -7.99979694 kcal mol^-1
      Ind20,r              -51.27629177 mH     -32.17636021 kcal mol^-1
      Ind22                 -5.58756722 mH      -3.50625151 kcal mol^-1
      Exch-Ind20,r          44.44062919 mH      27.88691700 kcal mol^-1
      Exch-Ind22             4.84268644 mH       3.03883175 kcal mol^-1
      delta HF,r (2)        -5.16794402 mH      -3.24293397 kcal mol^-1

    Dispersion             -18.22992850 mH     -11.43945332 kcal mol^-1
      Disp20               -23.44828270 mH     -14.71402016 kcal mol^-1
      Disp21                 2.73599579 mH       1.71686335 kcal mol^-1
      Disp22 (SDQ)           0.26555851 mH       0.16664049 kcal mol^-1
      Disp22 (T)            -2.68598220 mH      -1.68547935 kcal mol^-1
      Exch-Disp20            4.90278211 mH       3.07654235 kcal mol^-1

    Total HF                41.95092553 mH      26.32460430 kcal mol^-1
    Total SAPT0             23.40542494 mH      14.68712650 kcal mol^-1
    Total SAPT2             25.55806750 mH      16.03793016 kcal mol^-1
    Total SAPT2+            25.87363960 mH      16.23595465 kcal mol^-1

*** tstop() called on node33.bme.utexas.edu at Fri Jun 20 15:35:06 2014
Module time:
	user time   =    6681.21 seconds =     111.35 minutes
	system time =      95.28 seconds =       1.59 minutes
	total time  =       2672 seconds =      44.53 minutes
Total time:
	user time   =    6825.29 seconds =     113.75 minutes
	system time =      97.29 seconds =       1.62 minutes
	total time  =       2715 seconds =      45.25 minutes

*** PSI4 exiting successfully. Buy a developer a beer!
