    -----------------------------------------------------------------------
          PSI4: An Open-Source Ab Initio Electronic Structure Package
                              PSI 4.0.0-beta4 Driver

    J. M. Turney, A. C. Simmonett, R. M. Parrish, E. G. Hohenstein,
    F. A. Evangelista, J. T. Fermann, B. J. Mintz, L. A. Burns, J. J. Wilke,
    M. L. Abrams, N. J. Russ, M. L. Leininger, C. L. Janssen, E. T. Seidl,
    W. D. Allen, H. F. Schaefer, R. A. King, E. F. Valeev, C. D. Sherrill,
    and T. D. Crawford, WIREs Comput. Mol. Sci., (2011) (doi: 10.1002/wcms.93)

                         Additional Contributions by
    A. E. DePrince, M. Saitow, U. Bozkaya, A. Yu. Sokolov
    -----------------------------------------------------------------------

    Process ID:  10186
    PSI4DATADIR: /home/xzhu216/psi4/psi4-install/share/psi

    Using LocalCommunicator (Number of processes = 1)

    Memory level set to 256.000 MB

  ==> Input File <==

--------------------------------------------------------------------------
#psi4
#
memory 7 gb

molecule MeBr_MeBr {
0 1
   Br    -1.019580000     0.000008000     0.000000000
    C    -2.946115000     0.000024000     0.000000000
    H    -3.282258000     1.029171000    -0.000001000
    H    -3.282271000    -0.514545000     0.891264000
    H    -3.282271000    -0.514545000    -0.891265000
--
0 1
   Br     4.685372844     0.000017211    -0.000004102
    C     2.759051844     0.000018211     0.000000898
    H     2.420867844     1.028786211     0.000001898
    H     2.420869844    -0.514366789     0.890940898
    H     2.420865844    -0.514365789    -0.890938102
units angstrom
no_reorient  #important for SAPT in psi4, default
symmetry c1  #important for SAPT in psi4, default
}

set {
basis aug-cc-pVDZ
scf_type DF
freeze_core True
}
energy('sapt2+')
--------------------------------------------------------------------------

  Memory set to   7.000 GiB by Python script.

  //>>>>>>>>>>>>>>>>>>>>>>>>>>>>>>>>>>>//
  //              Dimer HF             //
  //<<<<<<<<<<<<<<<<<<<<<<<<<<<<<<<<<<<//


  No DF_BASIS_SCF auxiliary basis selected, defaulting to aug-cc-pvdz-jkfit


*** tstart() called on node61.bme.utexas.edu
*** at Tue Jun 24 12:47:08 2014


         ---------------------------------------------------------
                                   SCF
            by Justin Turney, Rob Parrish, and Andy Simmonett
                              RHF Reference
                        4 Threads,   7000 MiB Core
         ---------------------------------------------------------

  ==> Geometry <==

    Molecular point group: c1
    Full point group: C1

    Geometry (in Angstrom), charge = 0, multiplicity = 1:

       Center              X                  Y                   Z       
    ------------   -----------------  -----------------  -----------------
          BR         -2.533544298660    -0.000006007760     0.000001651192
           C         -4.460079298660     0.000009992240     0.000001651192
           H         -4.796222298660     1.029156992240     0.000000651192
           H         -4.796235298660    -0.514559007760     0.891265651192
           H         -4.796235298660    -0.514559007760    -0.891263348808
          BR          3.171408545340     0.000003203240    -0.000002450808
           C          1.245087545340     0.000004203240     0.000002549192
           H          0.906903545340     1.028772203240     0.000003549192
           H          0.906905545340    -0.514380796760     0.890942549192
           H          0.906901545340    -0.514379796760    -0.890936450808

  Running in c1 symmetry.

  Nuclear repulsion =  366.873627672654834

  Charge       = 0
  Multiplicity = 1
  Electrons    = 88
  Nalpha       = 44
  Nbeta        = 44

  ==> Algorithm <==

  SCF Algorithm Type is DF.
  DIIS enabled.
  MOM disabled.
  Fractional occupation disabled.
  Guess Type is CORE.
  Energy threshold   = 1.00e-08
  Density threshold  = 1.00e-08
  Integral threshold = 0.00e+00

  ==> Primary Basis <==

  Basis Set: AUG-CC-PVDZ
    Number of shells: 76
    Number of basis function: 172
    Number of Cartesian functions: 182
    Spherical Harmonics?: true
    Max angular momentum: 2

  ==> Pre-Iterations <==

   -------------------------------------------------------
    Irrep   Nso     Nmo     Nalpha   Nbeta   Ndocc  Nsocc
   -------------------------------------------------------
     A        172     172       0       0       0       0
   -------------------------------------------------------
    Total     172     172      44      44      44       0
   -------------------------------------------------------

 OEINTS: Wrapper to libmints.
   by Justin Turney

   Calculation information:
      Number of atoms:                  10
      Number of AO shells:              76
      Number of SO shells:              76
      Number of primitives:            278
      Number of atomic orbitals:       182
      Number of basis functions:       172

      Number of irreps:                  1
      Number of functions per irrep: [ 172 ]

      Overlap, kinetic, potential, dipole, and quadrupole integrals
        stored in file 35.

  ==> Integral Setup <==

  ==> DFJK: Density-Fitted J/K Matrices <==

    J tasked:                  Yes
    K tasked:                  Yes
    wK tasked:                  No
    OpenMP threads:              4
    Integrals threads:           4
    Memory (MB):              5006
    Algorithm:                Core
    Integral Cache:           SAVE
    Schwarz Cutoff:          0E+00
    Fitting Condition:       1E-12

   => Auxiliary Basis Set <=

  Basis Set: aug-cc-pvdz-jkfit
    Number of shells: 232
    Number of basis function: 752
    Number of Cartesian functions: 890
    Spherical Harmonics?: true
    Max angular momentum: 3

  Minimum eigenvalue in the overlap matrix is 3.5533754826E-04.
  Using Symmetric Orthogonalization.
  SCF Guess: Core (One-Electron) Hamiltonian.

  Guess energy: -3741.54158455615107

  ==> Iterations <==

                        Total Energy        Delta E     RMS |[F,P]|

   @RHF iter   1: -5166.84060818933631   -5.16684e+03   2.25920e-02 
   @RHF iter   2: -5044.36686117833233    1.22474e+02   6.67279e-02 DIIS
   @RHF iter   3: -5163.75478866945105   -1.19388e+02   7.52326e-02 DIIS
   @RHF iter   4: -5196.47253246777564   -3.27177e+01   2.88328e-02 DIIS
   @RHF iter   5: -5203.69969091232178   -7.22716e+00   1.77333e-02 DIIS
   @RHF iter   6: -5189.12935730039771    1.45703e+01   2.71887e-02 DIIS
   @RHF iter   7: -5221.73684234161738   -3.26075e+01   7.49238e-03 DIIS
   @RHF iter   8: -5222.26922517710500   -5.32383e-01   4.28575e-03 DIIS
   @RHF iter   9: -5222.61878713347051   -3.49562e-01   1.36977e-03 DIIS
   @RHF iter  10: -5222.66012788880471   -4.13408e-02   2.99328e-04 DIIS
   @RHF iter  11: -5222.66215466114045   -2.02677e-03   1.18428e-04 DIIS
   @RHF iter  12: -5222.66260257916929   -4.47918e-04   3.22366e-05 DIIS
   @RHF iter  13: -5222.66264812230293   -4.55431e-05   1.01835e-05 DIIS
   @RHF iter  14: -5222.66265398074211   -5.85844e-06   3.13360e-06 DIIS
   @RHF iter  15: -5222.66265435421155   -3.73469e-07   5.88773e-07 DIIS
   @RHF iter  16: -5222.66265436911817   -1.49066e-08   1.48917e-07 DIIS
   @RHF iter  17: -5222.66265436971116   -5.92991e-10   3.22955e-08 DIIS
   @RHF iter  18: -5222.66265436974481   -3.36513e-11   5.82683e-09 DIIS

  ==> Post-Iterations <==

	Orbital Energies (a.u.)
	-----------------------

	Doubly Occupied:                                                      

	   1A   -490.101176     2A   -490.087101     3A    -65.235642  
	   4A    -65.221489     5A    -58.592922     6A    -58.591591  
	   7A    -58.591591     8A    -58.578794     9A    -58.577437  
	  10A    -58.577437    11A    -11.303195    12A    -11.288532  
	  13A     -9.871702    14A     -9.857303    15A     -7.484194  
	  16A     -7.475992    17A     -7.475992    18A     -7.469788  
	  19A     -7.461558    20A     -7.461558    21A     -3.085382  
	  22A     -3.081166    23A     -3.081166    24A     -3.071632  
	  25A     -3.071632    26A     -3.070914    27A     -3.066759  
	  28A     -3.066759    29A     -3.057187    30A     -3.057187  
	  31A     -1.076770    32A     -1.062119    33A     -0.908770  
	  34A     -0.893739    35A     -0.620689    36A     -0.620689  
	  37A     -0.606213    38A     -0.606212    39A     -0.521658  
	  40A     -0.502403    41A     -0.412071    42A     -0.412071  
	  43A     -0.397111    44A     -0.397111  

	Virtual:                                                              

	  45A      0.028001    46A      0.047030    47A      0.051798  
	  48A      0.051798    49A      0.071016    50A      0.071016  
	  51A      0.076228    52A      0.095946    53A      0.131701  
	  54A      0.144151    55A      0.144151    56A      0.148389  
	  57A      0.148389    58A      0.159367    59A      0.164115  
	  60A      0.164115    61A      0.169451    62A      0.186044  
	  63A      0.186044    64A      0.208160    65A      0.223114  
	  66A      0.258238    67A      0.259730    68A      0.259730  
	  69A      0.275030    70A      0.275030    71A      0.301732  
	  72A      0.317938    73A      0.317938    74A      0.346522  
	  75A      0.377235    76A      0.377236    77A      0.391564  
	  78A      0.417782    79A      0.422731    80A      0.422731  
	  81A      0.433119    82A      0.433119    83A      0.434221  
	  84A      0.441751    85A      0.441751    86A      0.448728  
	  87A      0.448728    88A      0.497101    89A      0.510577  
	  90A      0.518381    91A      0.538935    92A      0.538935  
	  93A      0.554331    94A      0.567696    95A      0.577388  
	  96A      0.577388    97A      0.631365    98A      0.631365  
	  99A      0.638900   100A      0.638900   101A      0.642918  
	 102A      0.645087   103A      0.657946   104A      0.657946  
	 105A      0.687042   106A      0.687042   107A      0.687603  
	 108A      0.778810   109A      0.778810   110A      0.816467  
	 111A      0.835051   112A      0.835052   113A      0.965723  
	 114A      0.965723   115A      0.973386   116A      0.984639  
	 117A      0.984639   118A      1.009240   119A      1.009241  
	 120A      1.027788   121A      1.027788   122A      1.072457  
	 123A      1.076613   124A      1.135495   125A      1.230838  
	 126A      1.230839   127A      1.258693   128A      1.262115  
	 129A      1.262115   130A      1.268740   131A      1.268741  
	 132A      1.278977   133A      1.278978   134A      1.290791  
	 135A      1.350010   136A      1.419177   137A      1.419177  
	 138A      1.432563   139A      1.448069   140A      1.448069  
	 141A      1.465945   142A      1.704001   143A      1.753013  
	 144A      1.753013   145A      1.777074   146A      1.777074  
	 147A      1.843024   148A      1.857474   149A      2.001467  
	 150A      2.027952   151A      2.027952   152A      2.066719  
	 153A      2.088219   154A      2.088220   155A      2.114935  
	 156A      2.127301   157A      2.202185   158A      2.202186  
	 159A      2.215505   160A      2.215505   161A      2.356517  
	 162A      2.381086   163A      2.489103   164A      2.489104  
	 165A      2.503718   166A      2.503718   167A      2.828952  
	 168A      2.865959   169A      2.908584   170A      2.908585  
	 171A      2.924268   172A      2.924269  

	Final Occupation by Irrep:
	          A 
	DOCC [    44 ]

  Energy converged.

  @RHF Final Energy: -5222.66265436974481

   => Energetics <=

    Nuclear Repulsion Energy =            366.8736276726548340
    One-Electron Energy =               -8000.9677656263284007
    Two-Electron Energy =                2411.4314835839400075
    DFT Exchange-Correlation Energy =       0.0000000000000000
    Empirical Dispersion Energy =           0.0000000000000000
    Total Energy =                      -5222.6626543697329907



Properties will be evaluated at   0.000000,   0.000000,   0.000000 Bohr
  ==> Properties <==


Properties computed using the SCF density density matrix
  Nuclear Dipole Moment: (a.u.)
     X:   -16.3134      Y:     0.0001      Z:     0.0000

  Electronic Dipole Moment: (a.u.)
     X:    14.5027      Y:    -0.0001      Z:    -0.0000

  Dipole Moment: (a.u.)
     X:    -1.8107      Y:     0.0000      Z:     0.0000     Total:     1.8107

  Dipole Moment: (Debye)
     X:    -4.6023      Y:     0.0000      Z:     0.0000     Total:     4.6023


  Saving occupied orbitals to File 180.

  Saving SAPT 2-DIMER file.

*** tstop() called on node61.bme.utexas.edu at Tue Jun 24 12:47:21 2014
Module time:
	user time   =      45.18 seconds =       0.75 minutes
	system time =       0.41 seconds =       0.01 minutes
	total time  =         13 seconds =       0.22 minutes
Total time:
	user time   =      45.18 seconds =       0.75 minutes
	system time =       0.41 seconds =       0.01 minutes
	total time  =         13 seconds =       0.22 minutes

  //>>>>>>>>>>>>>>>>>>>>>>>>>>>>>>>>>>>//
  //            Monomer A HF           //
  //<<<<<<<<<<<<<<<<<<<<<<<<<<<<<<<<<<<//


  No DF_BASIS_SCF auxiliary basis selected, defaulting to aug-cc-pvdz-jkfit


*** tstart() called on node61.bme.utexas.edu
*** at Tue Jun 24 12:47:22 2014


         ---------------------------------------------------------
                                   SCF
            by Justin Turney, Rob Parrish, and Andy Simmonett
                              RHF Reference
                        4 Threads,   7000 MiB Core
         ---------------------------------------------------------

  ==> Geometry <==

    Molecular point group: c1
    Full point group: C1

    Geometry (in Angstrom), charge = 0, multiplicity = 1:

       Center              X                  Y                   Z       
    ------------   -----------------  -----------------  -----------------
          BR         -2.533544298660    -0.000006007760     0.000001651192
           C         -4.460079298660     0.000009992240     0.000001651192
           H         -4.796222298660     1.029156992240     0.000000651192
           H         -4.796235298660    -0.514559007760     0.891265651192
           H         -4.796235298660    -0.514559007760    -0.891263348808
          BR(Gh)      3.171408545340     0.000003203240    -0.000002450808
           C(Gh)      1.245087545340     0.000004203240     0.000002549192
           H(Gh)      0.906903545340     1.028772203240     0.000003549192
           H(Gh)      0.906905545340    -0.514380796760     0.890942549192
           H(Gh)      0.906901545340    -0.514379796760    -0.890936450808

  Running in c1 symmetry.

  Nuclear repulsion =   89.724022494639996

  Charge       = 0
  Multiplicity = 1
  Electrons    = 44
  Nalpha       = 22
  Nbeta        = 22

  ==> Algorithm <==

  SCF Algorithm Type is DF.
  DIIS enabled.
  MOM disabled.
  Fractional occupation disabled.
  Guess Type is CORE.
  Energy threshold   = 1.00e-08
  Density threshold  = 1.00e-08
  Integral threshold = 0.00e+00

  ==> Primary Basis <==

  Basis Set: AUG-CC-PVDZ
    Number of shells: 76
    Number of basis function: 172
    Number of Cartesian functions: 182
    Spherical Harmonics?: true
    Max angular momentum: 2

  ==> Pre-Iterations <==

   -------------------------------------------------------
    Irrep   Nso     Nmo     Nalpha   Nbeta   Ndocc  Nsocc
   -------------------------------------------------------
     A        172     172       0       0       0       0
   -------------------------------------------------------
    Total     172     172      22      22      22       0
   -------------------------------------------------------

 OEINTS: Wrapper to libmints.
   by Justin Turney

   Calculation information:
      Number of atoms:                  10
      Number of AO shells:              76
      Number of SO shells:              76
      Number of primitives:            278
      Number of atomic orbitals:       182
      Number of basis functions:       172

      Number of irreps:                  1
      Number of functions per irrep: [ 172 ]

      Overlap, kinetic, potential, dipole, and quadrupole integrals
        stored in file 35.

  ==> Integral Setup <==

  ==> DFJK: Density-Fitted J/K Matrices <==

    J tasked:                  Yes
    K tasked:                  Yes
    wK tasked:                  No
    OpenMP threads:              4
    Integrals threads:           4
    Memory (MB):              5006
    Algorithm:                Core
    Integral Cache:           LOAD
    Schwarz Cutoff:          0E+00
    Fitting Condition:       1E-12

   => Auxiliary Basis Set <=

  Basis Set: aug-cc-pvdz-jkfit
    Number of shells: 232
    Number of basis function: 752
    Number of Cartesian functions: 890
    Spherical Harmonics?: true
    Max angular momentum: 3

  Minimum eigenvalue in the overlap matrix is 3.5533754826E-04.
  Using Symmetric Orthogonalization.
  SCF Guess: Core (One-Electron) Hamiltonian.

  Guess energy: -1871.69646543666408

  ==> Iterations <==

                        Total Energy        Delta E     RMS |[F,P]|

   @RHF iter   1: -2584.45677772172803   -2.58446e+03   1.62003e-02 
   @RHF iter   2: -2451.15880522134057    1.33298e+02   5.55893e-02 DIIS
   @RHF iter   3: -2593.32439884467203   -1.42166e+02   2.24182e-02 DIIS
   @RHF iter   4: -2599.90147453691316   -6.57708e+00   1.70148e-02 DIIS
   @RHF iter   5: -2605.23554889124534   -5.33407e+00   1.38092e-02 DIIS
   @RHF iter   6: -2606.25727032214172   -1.02172e+00   1.17567e-02 DIIS
   @RHF iter   7: -2610.84619331700560   -4.58892e+00   5.46928e-03 DIIS
   @RHF iter   8: -2611.07345557715735   -2.27262e-01   3.57351e-03 DIIS
   @RHF iter   9: -2611.15315141264728   -7.96958e-02   2.83747e-03 DIIS
   @RHF iter  10: -2611.30334734047847   -1.50196e-01   9.85630e-04 DIIS
   @RHF iter  11: -2611.32993539246263   -2.65881e-02   2.07064e-04 DIIS
   @RHF iter  12: -2611.33107364475336   -1.13825e-03   7.71573e-05 DIIS
   @RHF iter  13: -2611.33129699309620   -2.23348e-04   1.74837e-05 DIIS
   @RHF iter  14: -2611.33131092347003   -1.39304e-05   3.43115e-06 DIIS
   @RHF iter  15: -2611.33131144108893   -5.17619e-07   5.69271e-07 DIIS
   @RHF iter  16: -2611.33131145530933   -1.42204e-08   1.17732e-07 DIIS
   @RHF iter  17: -2611.33131145584093   -5.31600e-10   1.43773e-08 DIIS
   @RHF iter  18: -2611.33131145585776   -1.68257e-11   3.46644e-09 DIIS

  ==> Post-Iterations <==

	Orbital Energies (a.u.)
	-----------------------

	Doubly Occupied:                                                      

	   1A   -490.092100     2A    -65.226504     3A    -58.583800  
	   4A    -58.582443     5A    -58.582443     6A    -11.295460  
	   7A     -9.862507     8A     -7.475014     9A     -7.466752  
	  10A     -7.466752    11A     -3.076235    12A     -3.071984  
	  13A     -3.071984    14A     -3.062359    15A     -3.062359  
	  16A     -1.068145    17A     -0.900069    18A     -0.613289  
	  19A     -0.613288    20A     -0.510199    21A     -0.402614  
	  22A     -0.402614  

	Virtual:                                                              

	  23A      0.031577    24A      0.036367    25A      0.055192  
	  26A      0.055192    27A      0.068537    28A      0.068537  
	  29A      0.068601    30A      0.098707    31A      0.120947  
	  32A      0.127354    33A      0.127354    34A      0.144841  
	  35A      0.148626    36A      0.148626    37A      0.155441  
	  38A      0.155441    39A      0.165217    40A      0.189050  
	  41A      0.189050    42A      0.212021    43A      0.223873  
	  44A      0.262819    45A      0.266578    46A      0.266578  
	  47A      0.307781    48A      0.313069    49A      0.313069  
	  50A      0.332048    51A      0.337164    52A      0.337165  
	  53A      0.383275    54A      0.403073    55A      0.410586  
	  56A      0.410587    57A      0.429503    58A      0.429503  
	  59A      0.440951    60A      0.440951    61A      0.449499  
	  62A      0.449499    63A      0.486481    64A      0.502847  
	  65A      0.524702    66A      0.524703    67A      0.527749  
	  68A      0.541752    69A      0.551073    70A      0.551074  
	  71A      0.558489    72A      0.560225    73A      0.583382  
	  74A      0.583382    75A      0.604938    76A      0.625501  
	  77A      0.625501    78A      0.657041    79A      0.657042  
	  80A      0.681834    81A      0.701322    82A      0.701323  
	  83A      0.702805    84A      0.758100    85A      0.775859  
	  86A      0.775860    87A      0.799875    88A      0.799876  
	  89A      0.800956    90A      0.812551    91A      0.812552  
	  92A      0.874615    93A      0.874615    94A      0.875008  
	  95A      0.967915    96A      0.967916    97A      0.978140  
	  98A      0.983536    99A      0.983536   100A      1.016057  
	 101A      1.016057   102A      1.074902   103A      1.161107  
	 104A      1.270199   105A      1.270200   106A      1.279575  
	 107A      1.279575   108A      1.290968   109A      1.443806  
	 110A      1.443807   111A      1.449393   112A      1.498998  
	 113A      1.699104   114A      1.726107   115A      1.726107  
	 116A      1.760467   117A      1.760467   118A      1.821691  
	 119A      1.821691   120A      1.837089   121A      1.849762  
	 122A      1.905091   123A      1.905091   124A      1.944310  
	 125A      1.985873   126A      2.002957   127A      2.002958  
	 128A      2.033082   129A      2.035037   130A      2.035037  
	 131A      2.133334   132A      2.207407   133A      2.207408  
	 134A      2.250568   135A      2.274934   136A      2.274934  
	 137A      2.333008   138A      2.333008   139A      2.361822  
	 140A      2.495310   141A      2.495310   142A      2.570592  
	 143A      2.570593   144A      2.709705   145A      2.791604  
	 146A      2.817649   147A      2.838589   148A      2.916190  
	 149A      2.916191   150A      2.966493   151A      2.966493  
	 152A      3.214496   153A      3.214496   154A      3.216377  
	 155A      4.148927   156A      5.144752   157A      5.144755  
	 158A      5.886889   159A     11.684257   160A     11.684257  
	 161A     11.894501   162A     18.388540   163A     23.141965  
	 164A     23.141965   165A     23.232660   166A     23.232660  
	 167A     23.349030   168A     41.529830   169A    135.550142  
	 170A    135.550142   171A    135.838792   172A    699.892535  

	Final Occupation by Irrep:
	          A 
	DOCC [    22 ]

  Energy converged.

  @RHF Final Energy: -2611.33131145585776

   => Energetics <=

    Nuclear Repulsion Energy =             89.7240224946399962
    One-Electron Energy =               -3813.1328472037721440
    Two-Electron Energy =                1112.0775132532803582
    DFT Exchange-Correlation Energy =       0.0000000000000000
    Empirical Dispersion Energy =           0.0000000000000000
    Total Energy =                      -2611.3313114558518464



Properties will be evaluated at   0.000000,   0.000000,   0.000000 Bohr
  ==> Properties <==


Properties computed using the SCF density density matrix
  Nuclear Dipole Moment: (a.u.)
     X:  -245.3303      Y:    -0.0002      Z:     0.0001

  Electronic Dipole Moment: (a.u.)
     X:   244.4741      Y:     0.0002      Z:    -0.0001

  Dipole Moment: (a.u.)
     X:    -0.8562      Y:     0.0000      Z:    -0.0000     Total:     0.8562

  Dipole Moment: (Debye)
     X:    -2.1763      Y:     0.0000      Z:    -0.0000     Total:     2.1763


  Saving occupied orbitals to File 180.

  Saving SAPT 2-MONOMER_A file.

*** tstop() called on node61.bme.utexas.edu at Tue Jun 24 12:47:30 2014
Module time:
	user time   =      29.88 seconds =       0.50 minutes
	system time =       0.26 seconds =       0.00 minutes
	total time  =          8 seconds =       0.13 minutes
Total time:
	user time   =      75.08 seconds =       1.25 minutes
	system time =       0.67 seconds =       0.01 minutes
	total time  =         22 seconds =       0.37 minutes

  //>>>>>>>>>>>>>>>>>>>>>>>>>>>>>>>>>>>//
  //            Monomer B HF           //
  //<<<<<<<<<<<<<<<<<<<<<<<<<<<<<<<<<<<//


  No DF_BASIS_SCF auxiliary basis selected, defaulting to aug-cc-pvdz-jkfit


*** tstart() called on node61.bme.utexas.edu
*** at Tue Jun 24 12:47:30 2014


         ---------------------------------------------------------
                                   SCF
            by Justin Turney, Rob Parrish, and Andy Simmonett
                              RHF Reference
                        4 Threads,   7000 MiB Core
         ---------------------------------------------------------

  ==> Geometry <==

    Molecular point group: c1
    Full point group: C1

    Geometry (in Angstrom), charge = 0, multiplicity = 1:

       Center              X                  Y                   Z       
    ------------   -----------------  -----------------  -----------------
          BR(Gh)     -2.533544298660    -0.000006007760     0.000001651192
           C(Gh)     -4.460079298660     0.000009992240     0.000001651192
           H(Gh)     -4.796222298660     1.029156992240     0.000000651192
           H(Gh)     -4.796235298660    -0.514559007760     0.891265651192
           H(Gh)     -4.796235298660    -0.514559007760    -0.891263348808
          BR          3.171408545340     0.000003203240    -0.000002450808
           C          1.245087545340     0.000004203240     0.000002549192
           H          0.906903545340     1.028772203240     0.000003549192
           H          0.906905545340    -0.514380796760     0.890942549192
           H          0.906901545340    -0.514379796760    -0.890936450808

  Running in c1 symmetry.

  Nuclear repulsion =   89.715032774712540

  Charge       = 0
  Multiplicity = 1
  Electrons    = 44
  Nalpha       = 22
  Nbeta        = 22

  ==> Algorithm <==

  SCF Algorithm Type is DF.
  DIIS enabled.
  MOM disabled.
  Fractional occupation disabled.
  Guess Type is CORE.
  Energy threshold   = 1.00e-08
  Density threshold  = 1.00e-08
  Integral threshold = 0.00e+00

  ==> Primary Basis <==

  Basis Set: AUG-CC-PVDZ
    Number of shells: 76
    Number of basis function: 172
    Number of Cartesian functions: 182
    Spherical Harmonics?: true
    Max angular momentum: 2

  ==> Pre-Iterations <==

   -------------------------------------------------------
    Irrep   Nso     Nmo     Nalpha   Nbeta   Ndocc  Nsocc
   -------------------------------------------------------
     A        172     172       0       0       0       0
   -------------------------------------------------------
    Total     172     172      22      22      22       0
   -------------------------------------------------------

 OEINTS: Wrapper to libmints.
   by Justin Turney

   Calculation information:
      Number of atoms:                  10
      Number of AO shells:              76
      Number of SO shells:              76
      Number of primitives:            278
      Number of atomic orbitals:       182
      Number of basis functions:       172

      Number of irreps:                  1
      Number of functions per irrep: [ 172 ]

      Overlap, kinetic, potential, dipole, and quadrupole integrals
        stored in file 35.

  ==> Integral Setup <==

  ==> DFJK: Density-Fitted J/K Matrices <==

    J tasked:                  Yes
    K tasked:                  Yes
    wK tasked:                  No
    OpenMP threads:              4
    Integrals threads:           4
    Memory (MB):              5006
    Algorithm:                Core
    Integral Cache:           LOAD
    Schwarz Cutoff:          0E+00
    Fitting Condition:       1E-12

   => Auxiliary Basis Set <=

  Basis Set: aug-cc-pvdz-jkfit
    Number of shells: 232
    Number of basis function: 752
    Number of Cartesian functions: 890
    Spherical Harmonics?: true
    Max angular momentum: 3

  Minimum eigenvalue in the overlap matrix is 3.5533754826E-04.
  Using Symmetric Orthogonalization.
  SCF Guess: Core (One-Electron) Hamiltonian.

  Guess energy: -1871.13143140711190

  ==> Iterations <==

                        Total Energy        Delta E     RMS |[F,P]|

   @RHF iter   1: -2584.82707479270903   -2.58483e+03   1.60365e-02 
   @RHF iter   2: -2451.27558116090813    1.33551e+02   5.54880e-02 DIIS
   @RHF iter   3: -2593.31076502999122   -1.42035e+02   2.23833e-02 DIIS
   @RHF iter   4: -2599.79656429532633   -6.48580e+00   1.70683e-02 DIIS
   @RHF iter   5: -2605.14268764692588   -5.34612e+00   1.39302e-02 DIIS
   @RHF iter   6: -2606.14989599933506   -1.00721e+00   1.18846e-02 DIIS
   @RHF iter   7: -2610.82878989108985   -4.67889e+00   5.54359e-03 DIIS
   @RHF iter   8: -2611.07524704687467   -2.46457e-01   3.55676e-03 DIIS
   @RHF iter   9: -2611.15393604875362   -7.86890e-02   2.82711e-03 DIIS
   @RHF iter  10: -2611.30246117471961   -1.48525e-01   1.00116e-03 DIIS
   @RHF iter  11: -2611.32987801014042   -2.74168e-02   2.00314e-04 DIIS
   @RHF iter  12: -2611.33095541925695   -1.07741e-03   7.52644e-05 DIIS
   @RHF iter  13: -2611.33117033432700   -2.14915e-04   1.71397e-05 DIIS
   @RHF iter  14: -2611.33118374172864   -1.34074e-05   3.42595e-06 DIIS
   @RHF iter  15: -2611.33118424458644   -5.02858e-07   5.59429e-07 DIIS
   @RHF iter  16: -2611.33118425823341   -1.36470e-08   1.16885e-07 DIIS
   @RHF iter  17: -2611.33118425874409   -5.10681e-10   1.41966e-08 DIIS
   @RHF iter  18: -2611.33118425875273   -8.64020e-12   3.60022e-09 DIIS

  ==> Post-Iterations <==

	Orbital Energies (a.u.)
	-----------------------

	Doubly Occupied:                                                      

	   1A   -490.092711     2A    -65.227086     3A    -58.584399  
	   4A    -58.583027     5A    -58.583027     6A    -11.295502  
	   7A     -9.862891     8A     -7.475409     9A     -7.467115  
	  10A     -7.467115    11A     -3.076551    12A     -3.072366  
	  13A     -3.072366    14A     -3.062714    15A     -3.062714  
	  16A     -1.068159    17A     -0.900198    18A     -0.612993  
	  19A     -0.612993    20A     -0.510447    21A     -0.402725  
	  22A     -0.402725  

	Virtual:                                                              

	  23A      0.020048    24A      0.043535    25A      0.048511  
	  26A      0.048511    27A      0.068442    28A      0.068443  
	  29A      0.068630    30A      0.090257    31A      0.116327  
	  32A      0.120218    33A      0.120218    34A      0.140841  
	  35A      0.146331    36A      0.146331    37A      0.158430  
	  38A      0.158430    39A      0.162945    40A      0.171768  
	  41A      0.171768    42A      0.199821    43A      0.214333  
	  44A      0.259160    45A      0.267444    46A      0.267444  
	  47A      0.301818    48A      0.301818    49A      0.325019  
	  50A      0.343469    51A      0.343469    52A      0.344303  
	  53A      0.374133    54A      0.412097    55A      0.412097  
	  56A      0.423413    57A      0.427085    58A      0.427085  
	  59A      0.435523    60A      0.435523    61A      0.448159  
	  62A      0.448159    63A      0.448703    64A      0.480639  
	  65A      0.480639    66A      0.497089    67A      0.502928  
	  68A      0.506205    69A      0.544588    70A      0.544588  
	  71A      0.546648    72A      0.558257    73A      0.592357  
	  74A      0.592358    75A      0.611506    76A      0.635779  
	  77A      0.635779    78A      0.645895    79A      0.646884  
	  80A      0.646885    81A      0.691699    82A      0.691699  
	  83A      0.715953    84A      0.746142    85A      0.771225  
	  86A      0.774220    87A      0.774220    88A      0.784784  
	  89A      0.784784    90A      0.795894    91A      0.795895  
	  92A      0.868511    93A      0.868511    94A      0.945372  
	  95A      0.945373    96A      0.963972    97A      0.977710  
	  98A      0.977710    99A      1.008702   100A      1.058137  
	 101A      1.058137   102A      1.080392   103A      1.124437  
	 104A      1.235564   105A      1.235564   106A      1.260906  
	 107A      1.260906   108A      1.281879   109A      1.345018  
	 110A      1.420100   111A      1.420100   112A      1.497189  
	 113A      1.715423   114A      1.718956   115A      1.718956  
	 116A      1.758736   117A      1.758736   118A      1.786930  
	 119A      1.806702   120A      1.806702   121A      1.850210  
	 122A      1.867166   123A      1.898633   124A      1.898633  
	 125A      1.990804   126A      1.990805   127A      2.023832  
	 128A      2.099019   129A      2.104430   130A      2.104431  
	 131A      2.166139   132A      2.208368   133A      2.208369  
	 134A      2.238504   135A      2.270302   136A      2.270303  
	 137A      2.317497   138A      2.317498   139A      2.373737  
	 140A      2.496726   141A      2.496726   142A      2.532750  
	 143A      2.532750   144A      2.693090   145A      2.747717  
	 146A      2.801922   147A      2.861632   148A      2.916992  
	 149A      2.916992   150A      2.955981   151A      2.955982  
	 152A      3.169030   153A      3.190571   154A      3.190572  
	 155A      4.105477   156A      5.135665   157A      5.135669  
	 158A      5.880787   159A     11.676846   160A     11.676847  
	 161A     11.864812   162A     18.375863   163A     23.134958  
	 164A     23.134958   165A     23.261070   166A     23.261071  
	 167A     23.484459   168A     41.522848   169A    135.545689  
	 170A    135.545689   171A    135.799370   172A    699.876957  

	Final Occupation by Irrep:
	          A 
	DOCC [    22 ]

  Energy converged.

  @RHF Final Energy: -2611.33118425875273

   => Energetics <=

    Nuclear Repulsion Energy =             89.7150327747125402
    One-Electron Energy =               -3813.1019760391395721
    Two-Electron Energy =                1112.0557590056746449
    DFT Exchange-Correlation Energy =       0.0000000000000000
    Empirical Dispersion Energy =           0.0000000000000000
    Total Energy =                      -2611.3311842587522733



Properties will be evaluated at   0.000000,   0.000000,   0.000000 Bohr
  ==> Properties <==


Properties computed using the SCF density density matrix
  Nuclear Dipole Moment: (a.u.)
     X:   229.0169      Y:     0.0003      Z:    -0.0001

  Electronic Dipole Moment: (a.u.)
     X:  -229.8739      Y:    -0.0003      Z:     0.0001

  Dipole Moment: (a.u.)
     X:    -0.8570      Y:     0.0000      Z:     0.0000     Total:     0.8570

  Dipole Moment: (Debye)
     X:    -2.1782      Y:     0.0000      Z:     0.0000     Total:     2.1782


  Saving occupied orbitals to File 180.

  Saving SAPT 2-MONOMER_B file.

*** tstop() called on node61.bme.utexas.edu at Tue Jun 24 12:47:39 2014
Module time:
	user time   =      29.99 seconds =       0.50 minutes
	system time =       0.26 seconds =       0.00 minutes
	total time  =          9 seconds =       0.15 minutes
Total time:
	user time   =     105.11 seconds =       1.75 minutes
	system time =       0.93 seconds =       0.02 minutes
	total time  =         31 seconds =       0.52 minutes
  No DF_BASIS_SAPT auxiliary basis selected, defaulting to aug-cc-pvdz-ri

  //>>>>>>>>>>>>>>>>>>>>>>>>>>>>>>>>>>>//
  //               SAPT2+              //
  //<<<<<<<<<<<<<<<<<<<<<<<<<<<<<<<<<<<//


*** tstart() called on node61.bme.utexas.edu
*** at Tue Jun 24 12:47:39 2014

        SAPT2+  
    Ed Hohenstein
     6 June 2009

      Orbital Information
  --------------------------
    NSO        =       172
    NMO        =       172
    NRI        =       542
    NOCC A     =        22
    NOCC B     =        22
    FOCC A     =        10
    FOCC B     =        10
    NVIR A     =       150
    NVIR B     =       150

    Estimated memory usage: 358.9 MB

    Elst10,r            =    -0.000904834591 H
    Exch10 (S^2)        =     0.000894866024 H
    Exch10              =     0.000895284801 H
    Ind20,r (A<-B)      =    -0.000172790470 H
    Ind20,r (B<-A)      =    -0.000227027556 H
    Ind20,r             =    -0.000399818025 H
    Exch-Ind20,r (A<-B) =     0.000097890927 H
    Exch-Ind20,r (B<-A) =     0.000205214762 H
    Exch-Ind20,r        =     0.000303105689 H
    Disp20              =    -0.001846234842 H
    Exch-Disp20         =     0.000092582343 H
    Elst12,r            =     0.000137890033 H
    Exch11              =     0.000026126407 H
    Exch12              =     0.000091890869 H
    Ind22               =    -0.000039178330 H
    Disp21              =     0.000258085142 H
    Disp22 (SDQ)        =     0.000026631602 H

    (i =   1 of  12)         40 seconds
    (i =   2 of  12)         80 seconds
    (i =   3 of  12)        121 seconds
    (i =   4 of  12)        161 seconds
    (i =   5 of  12)        201 seconds
    (i =   6 of  12)        241 seconds
    (i =   7 of  12)        281 seconds
    (i =   8 of  12)        321 seconds
    (i =   9 of  12)        361 seconds
    (i =  10 of  12)        401 seconds
    (i =  11 of  12)        442 seconds
    (i =  12 of  12)        482 seconds

    Disp220 (T)         =    -0.000125824374 H

    (i =   1 of  12)         40 seconds
    (i =   2 of  12)         80 seconds
    (i =   3 of  12)        120 seconds
    (i =   4 of  12)        160 seconds
    (i =   5 of  12)        201 seconds
    (i =   6 of  12)        241 seconds
    (i =   7 of  12)        281 seconds
    (i =   8 of  12)        321 seconds
    (i =   9 of  12)        362 seconds
    (i =  10 of  12)        402 seconds
    (i =  11 of  12)        442 seconds
    (i =  12 of  12)        482 seconds

    Disp202 (T)         =    -0.000134449073 H

    Disp22 (T)          =    -0.000260273447 H

    SAPT Results  
  -----------------------------------------------------------------------
    Electrostatics          -0.76694456 mH      -0.48126500 kcal mol^-1
      Elst10,r              -0.90483459 mH      -0.56779230 kcal mol^-1
      Elst12,r               0.13789003 mH       0.08652731 kcal mol^-1

    Exchange                 1.01330208 mH       0.63585668 kcal mol^-1
      Exch10                 0.89528480 mH       0.56179972 kcal mol^-1
      Exch10(S^2)            0.89486602 mH       0.56153693 kcal mol^-1
      Exch11(S^2)            0.02612641 mH       0.01639457 kcal mol^-1
      Exch12(S^2)            0.09189087 mH       0.05766239 kcal mol^-1

    Induction               -0.15858222 mH      -0.09951185 kcal mol^-1
      Ind20,r               -0.39981803 mH      -0.25088961 kcal mol^-1
      Ind22                 -0.03917833 mH      -0.02458477 kcal mol^-1
      Exch-Ind20,r           0.30310569 mH       0.19020170 kcal mol^-1
      Exch-Ind22             0.02970145 mH       0.01863794 kcal mol^-1
      delta HF,r (2)        -0.05239301 mH      -0.03287711 kcal mol^-1

    Dispersion              -1.72920920 mH      -1.08509520 kcal mol^-1
      Disp20                -1.84623484 mH      -1.15852990 kcal mol^-1
      Disp21                 0.25808514 mH       0.16195088 kcal mol^-1
      Disp22 (SDQ)           0.02663160 mH       0.01671158 kcal mol^-1
      Disp22 (T)            -0.26027345 mH      -0.16332406 kcal mol^-1
      Exch-Disp20            0.09258234 mH       0.05809630 kcal mol^-1

    Total HF                -0.15865513 mH      -0.09955760 kcal mol^-1
    Total SAPT0             -1.91230763 mH      -1.19999121 kcal mol^-1
    Total SAPT2             -1.66587720 mH      -1.04535377 kcal mol^-1
    Total SAPT2+            -1.64143391 mH      -1.03001537 kcal mol^-1

*** tstop() called on node61.bme.utexas.edu at Tue Jun 24 13:05:32 2014
Module time:
	user time   =    4178.51 seconds =      69.64 minutes
	system time =      28.35 seconds =       0.47 minutes
	total time  =       1073 seconds =      17.88 minutes
Total time:
	user time   =    4283.63 seconds =      71.39 minutes
	system time =      29.28 seconds =       0.49 minutes
	total time  =       1104 seconds =      18.40 minutes

*** PSI4 exiting successfully. Buy a developer a beer!
