    -----------------------------------------------------------------------
          PSI4: An Open-Source Ab Initio Electronic Structure Package
                              PSI 4.0.0-beta4 Driver

    J. M. Turney, A. C. Simmonett, R. M. Parrish, E. G. Hohenstein,
    F. A. Evangelista, J. T. Fermann, B. J. Mintz, L. A. Burns, J. J. Wilke,
    M. L. Abrams, N. J. Russ, M. L. Leininger, C. L. Janssen, E. T. Seidl,
    W. D. Allen, H. F. Schaefer, R. A. King, E. F. Valeev, C. D. Sherrill,
    and T. D. Crawford, WIREs Comput. Mol. Sci., (2011) (doi: 10.1002/wcms.93)

                         Additional Contributions by
    A. E. DePrince, M. Saitow, U. Bozkaya, A. Yu. Sokolov
    -----------------------------------------------------------------------

    Process ID:  26739
    PSI4DATADIR: /home/xzhu216/psi4/psi4-install/share/psi

    Using LocalCommunicator (Number of processes = 1)

    Memory level set to 256.000 MB

  ==> Input File <==

--------------------------------------------------------------------------
#psi4
#
memory 7 gb

molecule BenCl_Water {
0 1
   Cl     2.012915000    -0.141109000     0.000046000
    C     0.280809000    -0.072102000     0.000007000
    C    -0.357845000     1.165542000    -0.000028000
    C    -0.451000000    -1.257042000     0.000012000
    C    -1.749819000     1.212164000    -0.000057000
    C    -1.842356000    -1.196209000    -0.000017000
    C    -2.494932000     0.034875000    -0.000052000
    H     0.231197000     2.071141000    -0.000033000
    H     0.067209000    -2.204956000     0.000041000
    H    -2.250001000     2.170870000    -0.000086000
    H    -2.414682000    -2.113648000    -0.000015000
    H    -3.575008000     0.076425000    -0.000078000
--
0 1
    O     5.505869150    -0.276867700     0.000107950
    H     5.765727150     0.255773300     0.754169950
    H     5.765716150     0.255756300    -0.753973050
units angstrom
no_reorient  #important for SAPT in psi4, default
symmetry c1  #important for SAPT in psi4, default
}

set {
basis aug-cc-pVDZ
scf_type DF
freeze_core True
}
energy('sapt2+')
--------------------------------------------------------------------------

  Memory set to   7.000 GiB by Python script.

  //>>>>>>>>>>>>>>>>>>>>>>>>>>>>>>>>>>>//
  //              Dimer HF             //
  //<<<<<<<<<<<<<<<<<<<<<<<<<<<<<<<<<<<//


  No DF_BASIS_SCF auxiliary basis selected, defaulting to aug-cc-pvdz-jkfit


*** tstart() called on node129.bme.utexas.edu
*** at Wed Jul  9 12:00:35 2014


         ---------------------------------------------------------
                                   SCF
            by Justin Turney, Rob Parrish, and Andy Simmonett
                              RHF Reference
                        4 Threads,   7000 MiB Core
         ---------------------------------------------------------

  ==> Geometry <==

    Molecular point group: c1
    Full point group: C1

    Geometry (in Angstrom), charge = 0, multiplicity = 1:

       Center              X                  Y                   Z       
    ------------   -----------------  -----------------  -----------------
          CL          1.376915173711    -0.062652528820     0.000032607134
           C         -0.355190826289     0.006354471180    -0.000006392866
           C         -0.993844826289     1.243998471180    -0.000041392866
           C         -1.086999826289    -1.178585528820    -0.000001392866
           C         -2.385818826289     1.290620471180    -0.000070392866
           C         -2.478355826289    -1.117752528820    -0.000030392866
           C         -3.130931826289     0.113331471180    -0.000065392866
           H         -0.404802826289     2.149597471180    -0.000046392866
           H         -0.568790826289    -2.126499528820     0.000027607134
           H         -2.886000826289     2.249326471180    -0.000099392866
           H         -3.050681826289    -2.035191528820    -0.000028392866
           H         -4.211007826289     0.154881471180    -0.000091392866
           O          4.869869323711    -0.198411228820     0.000094557134
           H          5.129727323711     0.334229771180     0.754156557134
           H          5.129716323711     0.334212771180    -0.753986442866

  Running in c1 symmetry.

  Nuclear repulsion =  383.090896335722448

  Charge       = 0
  Multiplicity = 1
  Electrons    = 68
  Nalpha       = 34
  Nbeta        = 34

  ==> Algorithm <==

  SCF Algorithm Type is DF.
  DIIS enabled.
  MOM disabled.
  Fractional occupation disabled.
  Guess Type is CORE.
  Energy threshold   = 1.00e-08
  Density threshold  = 1.00e-08
  Integral threshold = 0.00e+00

  ==> Primary Basis <==

  Basis Set: AUG-CC-PVDZ
    Number of shells: 109
    Number of basis function: 251
    Number of Cartesian functions: 267
    Spherical Harmonics?: true
    Max angular momentum: 2

  ==> Pre-Iterations <==

   -------------------------------------------------------
    Irrep   Nso     Nmo     Nalpha   Nbeta   Ndocc  Nsocc
   -------------------------------------------------------
     A        251     251       0       0       0       0
   -------------------------------------------------------
    Total     251     251      34      34      34       0
   -------------------------------------------------------

 OEINTS: Wrapper to libmints.
   by Justin Turney

   Calculation information:
      Number of atoms:                  15
      Number of AO shells:             109
      Number of SO shells:             109
      Number of primitives:            277
      Number of atomic orbitals:       267
      Number of basis functions:       251

      Number of irreps:                  1
      Number of functions per irrep: [ 251 ]

      Overlap, kinetic, potential, dipole, and quadrupole integrals
        stored in file 35.

  ==> Integral Setup <==

  ==> DFJK: Density-Fitted J/K Matrices <==

    J tasked:                  Yes
    K tasked:                  Yes
    wK tasked:                  No
    OpenMP threads:              4
    Integrals threads:           4
    Memory (MB):              5006
    Algorithm:                Core
    Integral Cache:           SAVE
    Schwarz Cutoff:          0E+00
    Fitting Condition:       1E-12

   => Auxiliary Basis Set <=

  Basis Set: aug-cc-pvdz-jkfit
    Number of shells: 320
    Number of basis function: 954
    Number of Cartesian functions: 1102
    Spherical Harmonics?: true
    Max angular momentum: 3

  Minimum eigenvalue in the overlap matrix is 2.2521665254E-06.
  Using Symmetric Orthogonalization.
  SCF Guess: Core (One-Electron) Hamiltonian.

  Guess energy:  -586.07986242597030

  ==> Iterations <==

                        Total Energy        Delta E     RMS |[F,P]|

   @RHF iter   1:  -649.18632152287501   -6.49186e+02   2.86162e-02 
   @RHF iter   2:  -478.54486598303487    1.70641e+02   5.33709e-02 DIIS
   @RHF iter   3:  -691.18139761668294   -2.12637e+02   2.83138e-02 DIIS
   @RHF iter   4:  -720.63508771469628   -2.94537e+01   2.27083e-02 DIIS
   @RHF iter   5:  -729.32944723214246   -8.69436e+00   2.07774e-02 DIIS
   @RHF iter   6:  -764.63341298839669   -3.53040e+01   6.27043e-03 DIIS
   @RHF iter   7:  -765.54139705797479   -9.07984e-01   1.91440e-03 DIIS
   @RHF iter   8:  -765.66700591162771   -1.25609e-01   8.26865e-04 DIIS
   @RHF iter   9:  -765.68895145884017   -2.19455e-02   2.65043e-04 DIIS
   @RHF iter  10:  -765.69088741065138   -1.93595e-03   6.41435e-05 DIIS
   @RHF iter  11:  -765.69111336555829   -2.25955e-04   2.11558e-05 DIIS
   @RHF iter  12:  -765.69117041288450   -5.70473e-05   1.14485e-05 DIIS
   @RHF iter  13:  -765.69118808735129   -1.76745e-05   5.83902e-06 DIIS
   @RHF iter  14:  -765.69119386362445   -5.77627e-06   2.28302e-06 DIIS
   @RHF iter  15:  -765.69119447165940   -6.08035e-07   8.21032e-07 DIIS
   @RHF iter  16:  -765.69119453259941   -6.09400e-08   2.35818e-07 DIIS
   @RHF iter  17:  -765.69119453842904   -5.82963e-09   4.82889e-08 DIIS
   @RHF iter  18:  -765.69119453869212   -2.63071e-10   1.79059e-08 DIIS
   @RHF iter  19:  -765.69119453870894   -1.68257e-11   4.94620e-09 DIIS

  ==> Post-Iterations <==

	Orbital Energies (a.u.)
	-----------------------

	Doubly Occupied:                                                      

	   1A   -104.832468     2A    -20.574422     3A    -11.303972  
	   4A    -11.253528     5A    -11.253211     6A    -11.252215  
	   7A    -11.251789     8A    -11.248426     9A    -10.558630  
	  10A     -8.026424    11A     -8.023039    12A     -8.022929  
	  13A     -1.353004    14A     -1.190101    15A     -1.118194  
	  16A     -1.031644    17A     -0.995252    18A     -0.845319  
	  19A     -0.818444    20A     -0.713188    21A     -0.709692  
	  22A     -0.646318    23A     -0.645263    24A     -0.601458  
	  25A     -0.588115    26A     -0.582235    27A     -0.540309  
	  28A     -0.513692    29A     -0.511949    30A     -0.502716  
	  31A     -0.464482    32A     -0.448348    33A     -0.348641  
	  34A     -0.331725  

	Virtual:                                                              

	  35A      0.033895    36A      0.036778    37A      0.042304  
	  38A      0.052093    39A      0.061509    40A      0.061706  
	  41A      0.069969    42A      0.098188    43A      0.099689  
	  44A      0.114662    45A      0.120979    46A      0.131603  
	  47A      0.134797    48A      0.140401    49A      0.145860  
	  50A      0.148797    51A      0.153974    52A      0.160087  
	  53A      0.163625    54A      0.167230    55A      0.172683  
	  56A      0.176972    57A      0.182296    58A      0.184199  
	  59A      0.185091    60A      0.194400    61A      0.206169  
	  62A      0.210843    63A      0.215960    64A      0.221394  
	  65A      0.232924    66A      0.247299    67A      0.247960  
	  68A      0.279740    69A      0.282670    70A      0.295450  
	  71A      0.297607    72A      0.302301    73A      0.305172  
	  74A      0.328562    75A      0.332322    76A      0.337247  
	  77A      0.338571    78A      0.344436    79A      0.358176  
	  80A      0.361303    81A      0.365423    82A      0.384824  
	  83A      0.386786    84A      0.388901    85A      0.408677  
	  86A      0.409768    87A      0.417692    88A      0.419675  
	  89A      0.424199    90A      0.439191    91A      0.445490  
	  92A      0.452190    93A      0.469938    94A      0.473926  
	  95A      0.499150    96A      0.502082    97A      0.518430  
	  98A      0.520963    99A      0.535879   100A      0.554282  
	 101A      0.568216   102A      0.579520   103A      0.580405  
	 104A      0.582808   105A      0.587514   106A      0.590901  
	 107A      0.602528   108A      0.628218   109A      0.639770  
	 110A      0.643553   111A      0.651242   112A      0.664940  
	 113A      0.672311   114A      0.672334   115A      0.675520  
	 116A      0.684164   117A      0.688822   118A      0.690091  
	 119A      0.711006   120A      0.720295   121A      0.739514  
	 122A      0.748297   123A      0.767715   124A      0.768642  
	 125A      0.769862   126A      0.781225   127A      0.802602  
	 128A      0.821208   129A      0.831436   130A      0.844210  
	 131A      0.847587   132A      0.861818   133A      0.869543  
	 134A      0.889113   135A      0.909286   136A      0.910182  
	 137A      0.917992   138A      0.935294   139A      0.943354  
	 140A      0.954812   141A      0.955872   142A      0.976253  
	 143A      0.981903   144A      0.987125   145A      0.991922  
	 146A      0.992533   147A      1.013836   148A      1.039344  
	 149A      1.071125   150A      1.094658   151A      1.136022  
	 152A      1.137849   153A      1.145695   154A      1.158182  
	 155A      1.163644   156A      1.174416   157A      1.185384  
	 158A      1.203736   159A      1.221220   160A      1.291161  
	 161A      1.351146   162A      1.376883   163A      1.424220  
	 164A      1.427780   165A      1.448467   166A      1.465940  
	 167A      1.472654   168A      1.486924   169A      1.487076  
	 170A      1.491385   171A      1.499694   172A      1.525061  
	 173A      1.550264   174A      1.557525   175A      1.560218  
	 176A      1.586600   177A      1.606140   178A      1.606934  
	 179A      1.618135   180A      1.630820   181A      1.644860  
	 182A      1.658089   183A      1.662326   184A      1.665854  
	 185A      1.699634   186A      1.702964   187A      1.710693  
	 188A      1.712978   189A      1.746829   190A      1.778296  
	 191A      1.785810   192A      1.829387   193A      1.889632  
	 194A      1.899943   195A      1.922156   196A      1.934113  
	 197A      1.941466   198A      1.955572   199A      1.959715  
	 200A      1.962078   201A      2.003789   202A      2.020489  
	 203A      2.045311   204A      2.047806   205A      2.048749  
	 206A      2.101424   207A      2.115950   208A      2.117174  
	 209A      2.131245   210A      2.143996   211A      2.191605  
	 212A      2.198607   213A      2.204914   214A      2.246123  
	 215A      2.274893   216A      2.279598   217A      2.292971  
	 218A      2.337285   219A      2.353883   220A      2.366691  
	 221A      2.368938   222A      2.418824   223A      2.430293  
	 224A      2.450120   225A      2.488720   226A      2.612438  
	 227A      2.632310   228A      2.646103   229A      2.712949  
	 230A      2.722678   231A      2.791255   232A      2.804699  
	 233A      2.811141   234A      2.919947   235A      2.929259  
	 236A      2.968994   237A      3.019573   238A      3.115150  
	 239A      3.130672   240A      3.180096   241A      3.188695  
	 242A      3.338355   243A      3.433839   244A      3.595632  
	 245A      3.703171   246A      3.709459   247A      3.721245  
	 248A      3.827449   249A      4.061614   250A      4.312248  
	 251A      4.582920  

	Final Occupation by Irrep:
	          A 
	DOCC [    34 ]

  Energy converged.

  @RHF Final Energy:  -765.69119453870894

   => Energetics <=

    Nuclear Repulsion Energy =            383.0908963357224479
    One-Electron Energy =               -1811.3618962702912540
    Two-Electron Energy =                 662.5798053958524179
    DFT Exchange-Correlation Energy =       0.0000000000000000
    Empirical Dispersion Energy =           0.0000000000000000
    Total Energy =                       -765.6911945387164451



Properties will be evaluated at   0.000000,   0.000000,   0.000000 Bohr
  ==> Properties <==


Properties computed using the SCF density density matrix
  Nuclear Dipole Moment: (a.u.)
     X:    -2.0450      Y:     1.0506      Z:    -0.0001

  Electronic Dipole Moment: (a.u.)
     X:     1.7513      Y:    -0.3502      Z:     0.0001

  Dipole Moment: (a.u.)
     X:    -0.2937      Y:     0.7004      Z:    -0.0000     Total:     0.7595

  Dipole Moment: (Debye)
     X:    -0.7466      Y:     1.7803      Z:    -0.0001     Total:     1.9305


  Saving occupied orbitals to File 180.

  Saving SAPT 2-DIMER file.

*** tstop() called on node129.bme.utexas.edu at Wed Jul  9 12:01:07 2014
Module time:
	user time   =     118.20 seconds =       1.97 minutes
	system time =       2.00 seconds =       0.03 minutes
	total time  =         32 seconds =       0.53 minutes
Total time:
	user time   =     118.20 seconds =       1.97 minutes
	system time =       2.00 seconds =       0.03 minutes
	total time  =         32 seconds =       0.53 minutes

  //>>>>>>>>>>>>>>>>>>>>>>>>>>>>>>>>>>>//
  //            Monomer A HF           //
  //<<<<<<<<<<<<<<<<<<<<<<<<<<<<<<<<<<<//


  No DF_BASIS_SCF auxiliary basis selected, defaulting to aug-cc-pvdz-jkfit


*** tstart() called on node129.bme.utexas.edu
*** at Wed Jul  9 12:01:07 2014


         ---------------------------------------------------------
                                   SCF
            by Justin Turney, Rob Parrish, and Andy Simmonett
                              RHF Reference
                        4 Threads,   7000 MiB Core
         ---------------------------------------------------------

  ==> Geometry <==

    Molecular point group: c1
    Full point group: C1

    Geometry (in Angstrom), charge = 0, multiplicity = 1:

       Center              X                  Y                   Z       
    ------------   -----------------  -----------------  -----------------
          CL          1.376915173711    -0.062652528820     0.000032607134
           C         -0.355190826289     0.006354471180    -0.000006392866
           C         -0.993844826289     1.243998471180    -0.000041392866
           C         -1.086999826289    -1.178585528820    -0.000001392866
           C         -2.385818826289     1.290620471180    -0.000070392866
           C         -2.478355826289    -1.117752528820    -0.000030392866
           C         -3.130931826289     0.113331471180    -0.000065392866
           H         -0.404802826289     2.149597471180    -0.000046392866
           H         -0.568790826289    -2.126499528820     0.000027607134
           H         -2.886000826289     2.249326471180    -0.000099392866
           H         -3.050681826289    -2.035191528820    -0.000028392866
           H         -4.211007826289     0.154881471180    -0.000091392866
           O(Gh)      4.869869323711    -0.198411228820     0.000094557134
           H(Gh)      5.129727323711     0.334229771180     0.754156557134
           H(Gh)      5.129716323711     0.334212771180    -0.753986442866

  Running in c1 symmetry.

  Nuclear repulsion =  316.093296199192537

  Charge       = 0
  Multiplicity = 1
  Electrons    = 58
  Nalpha       = 29
  Nbeta        = 29

  ==> Algorithm <==

  SCF Algorithm Type is DF.
  DIIS enabled.
  MOM disabled.
  Fractional occupation disabled.
  Guess Type is CORE.
  Energy threshold   = 1.00e-08
  Density threshold  = 1.00e-08
  Integral threshold = 0.00e+00

  ==> Primary Basis <==

  Basis Set: AUG-CC-PVDZ
    Number of shells: 109
    Number of basis function: 251
    Number of Cartesian functions: 267
    Spherical Harmonics?: true
    Max angular momentum: 2

  ==> Pre-Iterations <==

   -------------------------------------------------------
    Irrep   Nso     Nmo     Nalpha   Nbeta   Ndocc  Nsocc
   -------------------------------------------------------
     A        251     251       0       0       0       0
   -------------------------------------------------------
    Total     251     251      29      29      29       0
   -------------------------------------------------------

 OEINTS: Wrapper to libmints.
   by Justin Turney

   Calculation information:
      Number of atoms:                  15
      Number of AO shells:             109
      Number of SO shells:             109
      Number of primitives:            277
      Number of atomic orbitals:       267
      Number of basis functions:       251

      Number of irreps:                  1
      Number of functions per irrep: [ 251 ]

      Overlap, kinetic, potential, dipole, and quadrupole integrals
        stored in file 35.

  ==> Integral Setup <==

  ==> DFJK: Density-Fitted J/K Matrices <==

    J tasked:                  Yes
    K tasked:                  Yes
    wK tasked:                  No
    OpenMP threads:              4
    Integrals threads:           4
    Memory (MB):              5006
    Algorithm:                Core
    Integral Cache:           LOAD
    Schwarz Cutoff:          0E+00
    Fitting Condition:       1E-12

   => Auxiliary Basis Set <=

  Basis Set: aug-cc-pvdz-jkfit
    Number of shells: 320
    Number of basis function: 954
    Number of Cartesian functions: 1102
    Spherical Harmonics?: true
    Max angular momentum: 3

  Minimum eigenvalue in the overlap matrix is 2.2521665253E-06.
  Using Symmetric Orthogonalization.
  SCF Guess: Core (One-Electron) Hamiltonian.

  Guess energy:  -512.19247501919017

  ==> Iterations <==

                        Total Energy        Delta E     RMS |[F,P]|

   @RHF iter   1:  -632.59831844306882   -6.32598e+02   2.71087e-02 
   @RHF iter   2:  -590.80181832082224    4.17965e+01   3.25679e-02 DIIS
   @RHF iter   3:  -670.14472180617997   -7.93429e+01   1.75019e-02 DIIS
   @RHF iter   4:  -670.10930355922380    3.54182e-02   1.88647e-02 DIIS
   @RHF iter   5:  -689.32624566076674   -1.92169e+01   2.84978e-03 DIIS
   @RHF iter   6:  -689.61743345528953   -2.91188e-01   9.16006e-04 DIIS
   @RHF iter   7:  -689.64596466157093   -2.85312e-02   1.92061e-04 DIIS
   @RHF iter   8:  -689.64889272599908   -2.92806e-03   9.10609e-05 DIIS
   @RHF iter   9:  -689.64967156098589   -7.78835e-04   4.69002e-05 DIIS
   @RHF iter  10:  -689.64994438557812   -2.72825e-04   2.28141e-05 DIIS
   @RHF iter  11:  -689.65004577527429   -1.01390e-04   6.48390e-06 DIIS
   @RHF iter  12:  -689.65005298185110   -7.20658e-06   2.35131e-06 DIIS
   @RHF iter  13:  -689.65005360801831   -6.26167e-07   8.33303e-07 DIIS
   @RHF iter  14:  -689.65005365948650   -5.14682e-08   3.35459e-07 DIIS
   @RHF iter  15:  -689.65005366423429   -4.74779e-09   5.88275e-08 DIIS
   @RHF iter  16:  -689.65005366445087   -2.16573e-10   2.22948e-08 DIIS
   @RHF iter  17:  -689.65005366447986   -2.89901e-11   5.48530e-09 DIIS

  ==> Post-Iterations <==

	Orbital Energies (a.u.)
	-----------------------

	Doubly Occupied:                                                      

	   1A   -104.840135     2A    -11.309869     3A    -11.257658  
	   4A    -11.257608     5A    -11.256483     6A    -11.256360  
	   7A    -11.252520     8A    -10.566543     9A     -8.034382  
	  10A     -8.031028    11A     -8.030901    12A     -1.195731  
	  13A     -1.124248    14A     -1.035918    15A     -1.000557  
	  16A     -0.849728    17A     -0.823103    18A     -0.714178  
	  19A     -0.650922    20A     -0.649853    21A     -0.605624  
	  22A     -0.592302    23A     -0.545887    24A     -0.518055  
	  25A     -0.514107    26A     -0.470721    27A     -0.456232  
	  28A     -0.352649    29A     -0.336965  

	Virtual:                                                              

	  30A      0.033125    31A      0.037780    32A      0.040310  
	  33A      0.051237    34A      0.058968    35A      0.066962  
	  36A      0.068894    37A      0.094838    38A      0.096136  
	  39A      0.111243    40A      0.118286    41A      0.120373  
	  42A      0.130843    43A      0.137864    44A      0.143442  
	  45A      0.145269    46A      0.147025    47A      0.151426  
	  48A      0.157309    49A      0.159870    50A      0.162458  
	  51A      0.170792    52A      0.176072    53A      0.178913  
	  54A      0.181497    55A      0.191043    56A      0.192967  
	  57A      0.201326    58A      0.206518    59A      0.209034  
	  60A      0.220212    61A      0.236227    62A      0.241865  
	  63A      0.269040    64A      0.281057    65A      0.292706  
	  66A      0.293264    67A      0.302549    68A      0.318760  
	  69A      0.330580    70A      0.333128    71A      0.336084  
	  72A      0.343151    73A      0.356187    74A      0.358167  
	  75A      0.371174    76A      0.380492    77A      0.383485  
	  78A      0.383713    79A      0.401258    80A      0.405729  
	  81A      0.411632    82A      0.416323    83A      0.421557  
	  84A      0.435113    85A      0.438766    86A      0.443031  
	  87A      0.462085    88A      0.466139    89A      0.480495  
	  90A      0.486153    91A      0.499510    92A      0.499693  
	  93A      0.517817    94A      0.520020    95A      0.534559  
	  96A      0.555443    97A      0.562392    98A      0.575079  
	  99A      0.576598   100A      0.579524   101A      0.583661  
	 102A      0.586346   103A      0.598477   104A      0.609095  
	 105A      0.622087   106A      0.643351   107A      0.657372  
	 108A      0.660343   109A      0.668697   110A      0.670980  
	 111A      0.678684   112A      0.678822   113A      0.686128  
	 114A      0.707303   115A      0.716081   116A      0.735542  
	 117A      0.742199   118A      0.763752   119A      0.764325  
	 120A      0.766489   121A      0.775890   122A      0.797382  
	 123A      0.798896   124A      0.839474   125A      0.843403  
	 126A      0.856463   127A      0.861041   128A      0.883711  
	 129A      0.902201   130A      0.906093   131A      0.914597  
	 132A      0.930993   133A      0.939916   134A      0.940909  
	 135A      0.948797   136A      0.965402   137A      0.970139  
	 138A      0.976859   139A      0.982017   140A      0.988420  
	 141A      0.997135   142A      1.025625   143A      1.036664  
	 144A      1.066544   145A      1.092888   146A      1.129660  
	 147A      1.140743   148A      1.169114   149A      1.171068  
	 150A      1.175371   151A      1.179777   152A      1.200521  
	 153A      1.220021   154A      1.260939   155A      1.288341  
	 156A      1.292060   157A      1.335172   158A      1.344545  
	 159A      1.347448   160A      1.403514   161A      1.420283  
	 162A      1.437362   163A      1.441637   164A      1.478412  
	 165A      1.481854   166A      1.483237   167A      1.483809  
	 168A      1.521455   169A      1.537686   170A      1.553400  
	 171A      1.556378   172A      1.557814   173A      1.601984  
	 174A      1.603361   175A      1.615183   176A      1.626621  
	 177A      1.649658   178A      1.652978   179A      1.654437  
	 180A      1.661456   181A      1.698682   182A      1.706575  
	 183A      1.708932   184A      1.743504   185A      1.774406  
	 186A      1.781441   187A      1.825301   188A      1.885732  
	 189A      1.889845   190A      1.915937   191A      1.932007  
	 192A      1.936990   193A      1.951210   194A      1.955568  
	 195A      1.957804   196A      2.018310   197A      2.037137  
	 198A      2.044438   199A      2.078329   200A      2.096570  
	 201A      2.112268   202A      2.113261   203A      2.126487  
	 204A      2.186897   205A      2.194153   206A      2.201198  
	 207A      2.241256   208A      2.263764   209A      2.270290  
	 210A      2.275478   211A      2.288647   212A      2.333347  
	 213A      2.349340   214A      2.364903   215A      2.399533  
	 216A      2.414735   217A      2.424673   218A      2.445264  
	 219A      2.498795   220A      2.565280   221A      2.608087  
	 222A      2.628315   223A      2.708586   224A      2.715189  
	 225A      2.787517   226A      2.801950   227A      2.807277  
	 228A      2.915836   229A      2.927267   230A      2.966081  
	 231A      3.108972   232A      3.126606   233A      3.175702  
	 234A      3.181240   235A      3.334166   236A      3.424388  
	 237A      3.434550   238A      3.591595   239A      3.822444  
	 240A      3.921501   241A      4.061442   242A      4.578590  
	 243A      4.928778   244A      4.971788   245A      4.980401  
	 246A      5.119361   247A      5.396888   248A      5.637038  
	 249A      6.614835   250A      7.058940   251A     33.563498  

	Final Occupation by Irrep:
	          A 
	DOCC [    29 ]

  Energy converged.

  @RHF Final Energy:  -689.65005366447986

   => Energetics <=

    Nuclear Repulsion Energy =            316.0932961991925367
    One-Electron Energy =               -1572.4261665247279325
    Two-Electron Energy =                 566.6828166610546305
    DFT Exchange-Correlation Energy =       0.0000000000000000
    Empirical Dispersion Energy =           0.0000000000000000
    Total Energy =                       -689.6500536644807653



Properties will be evaluated at   0.000000,   0.000000,   0.000000 Bohr
  ==> Properties <==


Properties computed using the SCF density density matrix
  Nuclear Dipole Moment: (a.u.)
     X:   -95.0543      Y:     2.7870      Z:    -0.0018

  Electronic Dipole Moment: (a.u.)
     X:    94.2898      Y:    -2.7570      Z:     0.0018

  Dipole Moment: (a.u.)
     X:    -0.7645      Y:     0.0300      Z:    -0.0000     Total:     0.7651

  Dipole Moment: (Debye)
     X:    -1.9432      Y:     0.0763      Z:    -0.0000     Total:     1.9447


  Saving occupied orbitals to File 180.

  Saving SAPT 2-MONOMER_A file.

*** tstop() called on node129.bme.utexas.edu at Wed Jul  9 12:01:31 2014
Module time:
	user time   =      86.31 seconds =       1.44 minutes
	system time =       1.32 seconds =       0.02 minutes
	total time  =         24 seconds =       0.40 minutes
Total time:
	user time   =     204.53 seconds =       3.41 minutes
	system time =       3.33 seconds =       0.06 minutes
	total time  =         56 seconds =       0.93 minutes

  //>>>>>>>>>>>>>>>>>>>>>>>>>>>>>>>>>>>//
  //            Monomer B HF           //
  //<<<<<<<<<<<<<<<<<<<<<<<<<<<<<<<<<<<//


  No DF_BASIS_SCF auxiliary basis selected, defaulting to aug-cc-pvdz-jkfit


*** tstart() called on node129.bme.utexas.edu
*** at Wed Jul  9 12:01:31 2014


         ---------------------------------------------------------
                                   SCF
            by Justin Turney, Rob Parrish, and Andy Simmonett
                              RHF Reference
                        4 Threads,   7000 MiB Core
         ---------------------------------------------------------

  ==> Geometry <==

    Molecular point group: c1
    Full point group: C1

    Geometry (in Angstrom), charge = 0, multiplicity = 1:

       Center              X                  Y                   Z       
    ------------   -----------------  -----------------  -----------------
          CL(Gh)      1.376915173711    -0.062652528820     0.000032607134
           C(Gh)     -0.355190826289     0.006354471180    -0.000006392866
           C(Gh)     -0.993844826289     1.243998471180    -0.000041392866
           C(Gh)     -1.086999826289    -1.178585528820    -0.000001392866
           C(Gh)     -2.385818826289     1.290620471180    -0.000070392866
           C(Gh)     -2.478355826289    -1.117752528820    -0.000030392866
           C(Gh)     -3.130931826289     0.113331471180    -0.000065392866
           H(Gh)     -0.404802826289     2.149597471180    -0.000046392866
           H(Gh)     -0.568790826289    -2.126499528820     0.000027607134
           H(Gh)     -2.886000826289     2.249326471180    -0.000099392866
           H(Gh)     -3.050681826289    -2.035191528820    -0.000028392866
           H(Gh)     -4.211007826289     0.154881471180    -0.000091392866
           O          4.869869323711    -0.198411228820     0.000094557134
           H          5.129727323711     0.334229771180     0.754156557134
           H          5.129716323711     0.334212771180    -0.753986442866

  Running in c1 symmetry.

  Nuclear repulsion =    9.178911998180189

  Charge       = 0
  Multiplicity = 1
  Electrons    = 10
  Nalpha       = 5
  Nbeta        = 5

  ==> Algorithm <==

  SCF Algorithm Type is DF.
  DIIS enabled.
  MOM disabled.
  Fractional occupation disabled.
  Guess Type is CORE.
  Energy threshold   = 1.00e-08
  Density threshold  = 1.00e-08
  Integral threshold = 0.00e+00

  ==> Primary Basis <==

  Basis Set: AUG-CC-PVDZ
    Number of shells: 109
    Number of basis function: 251
    Number of Cartesian functions: 267
    Spherical Harmonics?: true
    Max angular momentum: 2

  ==> Pre-Iterations <==

   -------------------------------------------------------
    Irrep   Nso     Nmo     Nalpha   Nbeta   Ndocc  Nsocc
   -------------------------------------------------------
     A        251     251       0       0       0       0
   -------------------------------------------------------
    Total     251     251       5       5       5       0
   -------------------------------------------------------

 OEINTS: Wrapper to libmints.
   by Justin Turney

   Calculation information:
      Number of atoms:                  15
      Number of AO shells:             109
      Number of SO shells:             109
      Number of primitives:            277
      Number of atomic orbitals:       267
      Number of basis functions:       251

      Number of irreps:                  1
      Number of functions per irrep: [ 251 ]

      Overlap, kinetic, potential, dipole, and quadrupole integrals
        stored in file 35.

  ==> Integral Setup <==

  ==> DFJK: Density-Fitted J/K Matrices <==

    J tasked:                  Yes
    K tasked:                  Yes
    wK tasked:                  No
    OpenMP threads:              4
    Integrals threads:           4
    Memory (MB):              5006
    Algorithm:                Core
    Integral Cache:           LOAD
    Schwarz Cutoff:          0E+00
    Fitting Condition:       1E-12

   => Auxiliary Basis Set <=

  Basis Set: aug-cc-pvdz-jkfit
    Number of shells: 320
    Number of basis function: 954
    Number of Cartesian functions: 1102
    Spherical Harmonics?: true
    Max angular momentum: 3

  Minimum eigenvalue in the overlap matrix is 2.2521665253E-06.
  Using Symmetric Orthogonalization.
  SCF Guess: Core (One-Electron) Hamiltonian.

  Guess energy:   -58.63716969820096

  ==> Iterations <==

                        Total Energy        Delta E     RMS |[F,P]|

   @RHF iter   1:   -68.53264515671117   -6.85326e+01   1.33024e-02 
   @RHF iter   2:   -64.57762498452405    3.95502e+00   1.04244e-02 DIIS
   @RHF iter   3:   -75.08272929812530   -1.05051e+01   6.19220e-03 DIIS
   @RHF iter   4:   -75.84908701756076   -7.66358e-01   2.66873e-03 DIIS
   @RHF iter   5:   -76.04000488705120   -1.90918e-01   2.22204e-04 DIIS
   @RHF iter   6:   -76.04105471455820   -1.04983e-03   1.07383e-04 DIIS
   @RHF iter   7:   -76.04130562170619   -2.50907e-04   1.21214e-05 DIIS
   @RHF iter   8:   -76.04131033443774   -4.71273e-06   1.99509e-06 DIIS
   @RHF iter   9:   -76.04131055603115   -2.21593e-07   4.47483e-07 DIIS
   @RHF iter  10:   -76.04131056358815   -7.55701e-09   8.14452e-08 DIIS
   @RHF iter  11:   -76.04131056385965   -2.71498e-10   6.57590e-09 DIIS

  ==> Post-Iterations <==

	Orbital Energies (a.u.)
	-----------------------

	Doubly Occupied:                                                      

	   1A    -20.577990     2A     -1.356319     3A     -0.716634  
	   4A     -0.586972     5A     -0.509511  

	Virtual:                                                              

	   6A      0.021938     7A      0.032175     8A      0.039552  
	   9A      0.049006    10A      0.057105    11A      0.060155  
	  12A      0.068260    13A      0.085868    14A      0.093357  
	  15A      0.101796    16A      0.114716    17A      0.123185  
	  18A      0.123526    19A      0.123783    20A      0.132444  
	  21A      0.142378    22A      0.150383    23A      0.161919  
	  24A      0.162103    25A      0.163922    26A      0.165540  
	  27A      0.169135    28A      0.177450    29A      0.188167  
	  30A      0.195784    31A      0.199279    32A      0.208988  
	  33A      0.218176    34A      0.222474    35A      0.236803  
	  36A      0.241450    37A      0.242208    38A      0.250915  
	  39A      0.256357    40A      0.278287    41A      0.282728  
	  42A      0.295452    43A      0.298550    44A      0.301186  
	  45A      0.318044    46A      0.344800    47A      0.366087  
	  48A      0.371980    49A      0.373330    50A      0.374858  
	  51A      0.390099    52A      0.399498    53A      0.404013  
	  54A      0.417105    55A      0.420810    56A      0.421174  
	  57A      0.426597    58A      0.452486    59A      0.466259  
	  60A      0.469477    61A      0.477508    62A      0.479823  
	  63A      0.484941    64A      0.493838    65A      0.494216  
	  66A      0.504987    67A      0.512930    68A      0.538113  
	  69A      0.539487    70A      0.544707    71A      0.550901  
	  72A      0.552563    73A      0.559044    74A      0.572309  
	  75A      0.582899    76A      0.588607    77A      0.617490  
	  78A      0.636222    79A      0.636480    80A      0.643595  
	  81A      0.648132    82A      0.653094    83A      0.660428  
	  84A      0.669126    85A      0.685975    86A      0.708282  
	  87A      0.709357    88A      0.742723    89A      0.766852  
	  90A      0.769940    91A      0.778069    92A      0.780168  
	  93A      0.816715    94A      0.818062    95A      0.820547  
	  96A      0.821966    97A      0.843470    98A      0.847683  
	  99A      0.854964   100A      0.868121   101A      0.874654  
	 102A      0.893013   103A      0.894895   104A      0.897252  
	 105A      0.904052   106A      0.908981   107A      0.938365  
	 108A      0.963694   109A      0.965718   110A      0.987326  
	 111A      0.991900   112A      1.009393   113A      1.009598  
	 114A      1.042802   115A      1.046293   116A      1.061256  
	 117A      1.066812   118A      1.067701   119A      1.097651  
	 120A      1.127920   121A      1.135315   122A      1.141566  
	 123A      1.150968   124A      1.166321   125A      1.172586  
	 126A      1.200397   127A      1.215021   128A      1.228063  
	 129A      1.265810   130A      1.322727   131A      1.328025  
	 132A      1.396554   133A      1.402953   134A      1.429255  
	 135A      1.470540   136A      1.474603   137A      1.488187  
	 138A      1.496101   139A      1.501544   140A      1.549428  
	 141A      1.568001   142A      1.653760   143A      1.686718  
	 144A      1.760402   145A      2.006681   146A      2.016551  
	 147A      2.065850   148A      2.084171   149A      2.133208  
	 150A      2.134049   151A      2.138242   152A      2.141616  
	 153A      2.150872   154A      2.150970   155A      2.163805  
	 156A      2.188761   157A      2.206304   158A      2.210417  
	 159A      2.214525   160A      2.234188   161A      2.249097  
	 162A      2.274096   163A      2.278202   164A      2.301200  
	 165A      2.318558   166A      2.318675   167A      2.322552  
	 168A      2.324981   169A      2.362231   170A      2.399553  
	 171A      2.416832   172A      2.450861   173A      2.466310  
	 174A      2.485143   175A      2.511510   176A      2.512877  
	 177A      2.516045   178A      2.520822   179A      2.553674  
	 180A      2.589658   181A      2.623599   182A      2.625083  
	 183A      2.634871   184A      2.639327   185A      2.653780  
	 186A      2.658137   187A      2.680068   188A      2.683099  
	 189A      2.709782   190A      2.711866   191A      2.725386  
	 192A      2.735833   193A      2.744866   194A      2.839973  
	 195A      2.858922   196A      2.871785   197A      2.876870  
	 198A      2.887519   199A      2.889850   200A      2.938237  
	 201A      2.947105   202A      2.995458   203A      3.017381  
	 204A      3.026189   205A      3.174355   206A      3.268831  
	 207A      3.271560   208A      3.274485   209A      3.377475  
	 210A      3.396188   211A      3.400062   212A      3.408330  
	 213A      3.448710   214A      3.474771   215A      3.510723  
	 216A      3.555916   217A      3.583788   218A      3.701781  
	 219A      3.705444   220A      3.715098   221A      3.718076  
	 222A      3.894095   223A      3.926169   224A      4.015983  
	 225A      4.059051   226A      4.081100   227A      4.108507  
	 228A      4.191952   229A      4.308925   230A      4.397849  
	 231A      4.520629   232A      4.832111   233A      4.880288  
	 234A      5.016684   235A      5.292248   236A      5.462321  
	 237A      5.468607   238A      5.470128   239A      5.632171  
	 240A      5.895391   241A      8.117427   242A     17.980235  
	 243A     18.370914   244A     18.419113   245A     18.952089  
	 246A     19.079048   247A     20.447606   248A     24.015002  
	 249A     24.158637   250A     24.634081   251A    157.192664  

	Final Occupation by Irrep:
	          A 
	DOCC [     5 ]

  Energy converged.

  @RHF Final Energy:   -76.04131056385965

   => Energetics <=

    Nuclear Repulsion Energy =              9.1789119981801885
    One-Electron Energy =                -122.9455888843118316
    Two-Electron Energy =                  37.7253663222723290
    DFT Exchange-Correlation Energy =       0.0000000000000000
    Empirical Dispersion Energy =           0.0000000000000000
    Total Energy =                        -76.0413105638593265



Properties will be evaluated at   0.000000,   0.000000,   0.000000 Bohr
  ==> Properties <==


Properties computed using the SCF density density matrix
  Nuclear Dipole Moment: (a.u.)
     X:    93.0093      Y:    -1.7364      Z:     0.0018

  Electronic Dipole Moment: (a.u.)
     X:   -92.6625      Y:     2.4485      Z:    -0.0018

  Dipole Moment: (a.u.)
     X:     0.3468      Y:     0.7121      Z:    -0.0000     Total:     0.7921

  Dipole Moment: (Debye)
     X:     0.8815      Y:     1.8101      Z:    -0.0000     Total:     2.0133


  Saving occupied orbitals to File 180.

  Saving SAPT 2-MONOMER_B file.

*** tstop() called on node129.bme.utexas.edu at Wed Jul  9 12:01:43 2014
Module time:
	user time   =      45.93 seconds =       0.77 minutes
	system time =       0.39 seconds =       0.01 minutes
	total time  =         12 seconds =       0.20 minutes
Total time:
	user time   =     250.48 seconds =       4.17 minutes
	system time =       3.72 seconds =       0.06 minutes
	total time  =         68 seconds =       1.13 minutes
  No DF_BASIS_SAPT auxiliary basis selected, defaulting to aug-cc-pvdz-ri

  //>>>>>>>>>>>>>>>>>>>>>>>>>>>>>>>>>>>//
  //               SAPT2+              //
  //<<<<<<<<<<<<<<<<<<<<<<<<<<<<<<<<<<<//


*** tstart() called on node129.bme.utexas.edu
*** at Wed Jul  9 12:01:43 2014

        SAPT2+  
    Ed Hohenstein
     6 June 2009

      Orbital Information
  --------------------------
    NSO        =       251
    NMO        =       251
    NRI        =       757
    NOCC A     =        29
    NOCC B     =         5
    FOCC A     =        11
    FOCC B     =         1
    NVIR A     =       222
    NVIR B     =       246

    Estimated memory usage: 1587.9 MB

    Elst10,r            =    -0.000456791606 H
    Exch10 (S^2)        =     0.000890472595 H
    Exch10              =     0.000891111625 H
    Ind20,r (A<-B)      =    -0.000223741615 H
    Ind20,r (B<-A)      =    -0.000288953598 H
    Ind20,r             =    -0.000512695213 H
    Exch-Ind20,r (A<-B) =     0.000044840438 H
    Exch-Ind20,r (B<-A) =     0.000273203048 H
    Exch-Ind20,r        =     0.000318043486 H
    Disp20              =    -0.001162413723 H
    Exch-Disp20         =     0.000087140273 H
    Elst12,r            =    -0.000211455739 H
    Exch11              =    -0.000009320235 H
    Exch12              =     0.000263651383 H
    Ind22               =    -0.000145265193 H
    Disp21              =     0.000121098141 H
    Disp22 (SDQ)        =    -0.000030532224 H

    (i =   1 of   4)        396 seconds
    (i =   2 of   4)        793 seconds
    (i =   3 of   4)       1190 seconds
    (i =   4 of   4)       1586 seconds

    Disp220 (T)         =    -0.000089458848 H

    (i =   1 of  18)         51 seconds
    (i =   2 of  18)        101 seconds
    (i =   3 of  18)        152 seconds
    (i =   4 of  18)        203 seconds
    (i =   5 of  18)        254 seconds
    (i =   6 of  18)        304 seconds
    (i =   7 of  18)        355 seconds
    (i =   8 of  18)        406 seconds
    (i =   9 of  18)        457 seconds
    (i =  10 of  18)        507 seconds
    (i =  11 of  18)        558 seconds
    (i =  12 of  18)        609 seconds
    (i =  13 of  18)        660 seconds
    (i =  14 of  18)        710 seconds
    (i =  15 of  18)        761 seconds
    (i =  16 of  18)        812 seconds
    (i =  17 of  18)        863 seconds
    (i =  18 of  18)        913 seconds

    Disp202 (T)         =    -0.000108614074 H

    Disp22 (T)          =    -0.000198072922 H

    SAPT Results  
  -----------------------------------------------------------------------
    Electrostatics          -0.66824735 mH      -0.41933156 kcal mol^-1
      Elst10,r              -0.45679161 mH      -0.28664107 kcal mol^-1
      Elst12,r              -0.21145574 mH      -0.13269049 kcal mol^-1

    Exchange                 1.14544277 mH       0.71877622 kcal mol^-1
      Exch10                 0.89111162 mH       0.55918101 kcal mol^-1
      Exch10(S^2)            0.89047260 mH       0.55878001 kcal mol^-1
      Exch11(S^2)           -0.00932024 mH      -0.00584854 kcal mol^-1
      Exch12(S^2)            0.26365138 mH       0.16544375 kcal mol^-1

    Induction               -0.31978230 mH      -0.20066643 kcal mol^-1
      Ind20,r               -0.51269521 mH      -0.32172112 kcal mol^-1
      Ind22                 -0.14526519 mH      -0.09115529 kcal mol^-1
      Exch-Ind20,r           0.31804349 mH       0.19957531 kcal mol^-1
      Exch-Ind22             0.09011328 mH       0.05654694 kcal mol^-1
      delta HF,r (2)        -0.06997866 mH      -0.04391227 kcal mol^-1

    Dispersion              -1.18278045 mH      -0.74220597 kcal mol^-1
      Disp20                -1.16241372 mH      -0.72942565 kcal mol^-1
      Disp21                 0.12109814 mH       0.07599023 kcal mol^-1
      Disp22 (SDQ)          -0.03053222 mH      -0.01915926 kcal mol^-1
      Disp22 (T)            -0.19807292 mH      -0.12429264 kcal mol^-1
      Exch-Disp20            0.08714027 mH       0.05468135 kcal mol^-1

    Total HF                 0.16968963 mH       0.10648186 kcal mol^-1
    Total SAPT0             -0.90558382 mH      -0.56826245 kcal mol^-1
    Total SAPT2             -0.91786032 mH      -0.57596607 kcal mol^-1
    Total SAPT2+            -1.02536733 mH      -0.64342774 kcal mol^-1

*** tstop() called on node129.bme.utexas.edu at Wed Jul  9 12:52:11 2014
Module time:
	user time   =   11068.44 seconds =     184.47 minutes
	system time =      57.65 seconds =       0.96 minutes
	total time  =       3028 seconds =      50.47 minutes
Total time:
	user time   =   11318.93 seconds =     188.65 minutes
	system time =      61.37 seconds =       1.02 minutes
	total time  =       3096 seconds =      51.60 minutes

*** PSI4 exiting successfully. Buy a developer a beer!
