    -----------------------------------------------------------------------
          PSI4: An Open-Source Ab Initio Electronic Structure Package
                              PSI 4.0.0-beta4 Driver

    J. M. Turney, A. C. Simmonett, R. M. Parrish, E. G. Hohenstein,
    F. A. Evangelista, J. T. Fermann, B. J. Mintz, L. A. Burns, J. J. Wilke,
    M. L. Abrams, N. J. Russ, M. L. Leininger, C. L. Janssen, E. T. Seidl,
    W. D. Allen, H. F. Schaefer, R. A. King, E. F. Valeev, C. D. Sherrill,
    and T. D. Crawford, WIREs Comput. Mol. Sci., (2011) (doi: 10.1002/wcms.93)

                         Additional Contributions by
    A. E. DePrince, M. Saitow, U. Bozkaya, A. Yu. Sokolov
    -----------------------------------------------------------------------

    Process ID:  35967
    PSI4DATADIR: /home/xzhu216/psi4/psi4-install/share/psi

    Using LocalCommunicator (Number of processes = 1)

    Memory level set to 256.000 MB

  ==> Input File <==

--------------------------------------------------------------------------
#psi4
#
memory 20 gb

molecule CH2F2_CH2F2 {
0 1
    F     0.939938000     0.557598000     1.462149000
    F    -0.941880000    -0.581475000     1.457725000
    C    -0.007056000    -0.004989000     2.253221000
    H    -0.481150000     0.775975000     2.840207000
    H     0.457903000    -0.775475000     2.860993000
--
0 1
    F     0.567384084    -0.926898837    -2.434220263
    F    -0.570914916     0.956865163    -2.392967263
    C     0.007062084     0.002959163    -1.620951263
    H     0.787718084     0.461640163    -1.022122263
    H    -0.760213916    -0.473799837    -1.018984263
units angstrom
no_reorient  #important for SAPT in psi4, default
symmetry c1  #important for SAPT in psi4, default
}

set {
basis aug-cc-pVDZ
scf_type DF
freeze_core True
}
energy('sapt2+')
--------------------------------------------------------------------------

  Memory set to  20.000 GiB by Python script.

  //>>>>>>>>>>>>>>>>>>>>>>>>>>>>>>>>>>>//
  //              Dimer HF             //
  //<<<<<<<<<<<<<<<<<<<<<<<<<<<<<<<<<<<//


  No DF_BASIS_SCF auxiliary basis selected, defaulting to aug-cc-pvdz-jkfit


*** tstart() called on node37.bme.utexas.edu
*** at Fri Jul 11 15:46:55 2014


         ---------------------------------------------------------
                                   SCF
            by Justin Turney, Rob Parrish, and Andy Simmonett
                              RHF Reference
                        4 Threads,  20000 MiB Core
         ---------------------------------------------------------

  ==> Geometry <==

    Molecular point group: c1
    Full point group: C1

    Geometry (in Angstrom), charge = 0, multiplicity = 1:

       Center              X                  Y                   Z       
    ------------   -----------------  -----------------  -----------------
           F          0.940895574275     0.556833005221     1.702090952837
           F         -0.940922425725    -0.582239994779     1.697666952837
           C         -0.006098425725    -0.005753994779     2.493162952837
           H         -0.480192425725     0.775210005221     3.080148952837
           H          0.458860574275    -0.776239994779     3.100934952837
           F          0.568341658275    -0.927663831779    -2.194278310163
           F         -0.569957341725     0.956100168221    -2.153025310163
           C          0.008019658275     0.002194168221    -1.381009310163
           H          0.788675658275     0.460875168221    -0.782180310163
           H         -0.759256341725    -0.474564831779    -0.779042310163

  Running in c1 symmetry.

  Nuclear repulsion =  244.114261799418387

  Charge       = 0
  Multiplicity = 1
  Electrons    = 52
  Nalpha       = 26
  Nbeta        = 26

  ==> Algorithm <==

  SCF Algorithm Type is DF.
  DIIS enabled.
  MOM disabled.
  Fractional occupation disabled.
  Guess Type is CORE.
  Energy threshold   = 1.00e-08
  Density threshold  = 1.00e-08
  Integral threshold = 0.00e+00

  ==> Primary Basis <==

  Basis Set: AUG-CC-PVDZ
    Number of shells: 74
    Number of basis function: 174
    Number of Cartesian functions: 186
    Spherical Harmonics?: true
    Max angular momentum: 2

  ==> Pre-Iterations <==

   -------------------------------------------------------
    Irrep   Nso     Nmo     Nalpha   Nbeta   Ndocc  Nsocc
   -------------------------------------------------------
     A        174     174       0       0       0       0
   -------------------------------------------------------
    Total     174     174      26      26      26       0
   -------------------------------------------------------

 OEINTS: Wrapper to libmints.
   by Justin Turney

   Calculation information:
      Number of atoms:                  10
      Number of AO shells:              74
      Number of SO shells:              74
      Number of primitives:            178
      Number of atomic orbitals:       186
      Number of basis functions:       174

      Number of irreps:                  1
      Number of functions per irrep: [ 174 ]

      Overlap, kinetic, potential, dipole, and quadrupole integrals
        stored in file 35.

  ==> Integral Setup <==

  ==> DFJK: Density-Fitted J/K Matrices <==

    J tasked:                  Yes
    K tasked:                  Yes
    wK tasked:                  No
    OpenMP threads:              4
    Integrals threads:           4
    Memory (MB):             14305
    Algorithm:                Core
    Integral Cache:           SAVE
    Schwarz Cutoff:          0E+00
    Fitting Condition:       1E-12

   => Auxiliary Basis Set <=

  Basis Set: aug-cc-pvdz-jkfit
    Number of shells: 216
    Number of basis function: 644
    Number of Cartesian functions: 746
    Spherical Harmonics?: true
    Max angular momentum: 3

  Minimum eigenvalue in the overlap matrix is 5.8309714074E-04.
  Using Symmetric Orthogonalization.
  SCF Guess: Core (One-Electron) Hamiltonian.

  Guess energy:  -365.29462664307709

  ==> Iterations <==

                        Total Energy        Delta E     RMS |[F,P]|

   @RHF iter   1:  -434.70056702339900   -4.34701e+02   4.57682e-02 
   @RHF iter   2:  -333.09531232216250    1.01605e+02   5.12507e-02 DIIS
   @RHF iter   3:  -394.59397812487680   -6.14987e+01   3.89306e-02 DIIS
   @RHF iter   4:  -444.44986262501914   -4.98559e+01   3.65134e-02 DIIS
   @RHF iter   5:  -464.37225105234518   -1.99224e+01   1.99433e-02 DIIS
   @RHF iter   6:  -475.31946724206296   -1.09472e+01   6.72044e-03 DIIS
   @RHF iter   7:  -475.78693243450050   -4.67465e-01   2.81400e-03 DIIS
   @RHF iter   8:  -475.86170710138117   -7.47747e-02   3.89960e-04 DIIS
   @RHF iter   9:  -475.86442614045575   -2.71904e-03   1.10188e-04 DIIS
   @RHF iter  10:  -475.86470562009845   -2.79480e-04   4.61800e-05 DIIS
   @RHF iter  11:  -475.86473912186977   -3.35018e-05   2.23337e-05 DIIS
   @RHF iter  12:  -475.86474988816815   -1.07663e-05   4.84283e-06 DIIS
   @RHF iter  13:  -475.86475045557984   -5.67412e-07   8.12465e-07 DIIS
   @RHF iter  14:  -475.86475046805481   -1.24750e-08   3.49152e-07 DIIS
   @RHF iter  15:  -475.86475046968519   -1.63038e-09   8.47078e-08 DIIS
   @RHF iter  16:  -475.86475046987186   -1.86674e-10   1.51780e-08 DIIS
   @RHF iter  17:  -475.86475046987857   -6.70752e-12   3.12647e-09 DIIS

  ==> Post-Iterations <==

	Orbital Energies (a.u.)
	-----------------------

	Doubly Occupied:                                                      

	   1A    -26.344406     2A    -26.344390     3A    -26.311806  
	   4A    -26.311770     5A    -11.432547     6A    -11.398081  
	   7A     -1.687588     8A     -1.654273     9A     -1.626923  
	  10A     -1.594050    11A     -0.993410    12A     -0.959973  
	  13A     -0.798237    14A     -0.791115    15A     -0.779442  
	  16A     -0.764042    17A     -0.757785    18A     -0.744263  
	  19A     -0.687067    20A     -0.654792    21A     -0.653003  
	  22A     -0.644493    23A     -0.620141    24A     -0.605238  
	  25A     -0.554709    26A     -0.521000  

	Virtual:                                                              

	  27A      0.028159    28A      0.044951    29A      0.055779  
	  30A      0.060407    31A      0.090757    32A      0.102864  
	  33A      0.105836    34A      0.135818    35A      0.153902  
	  36A      0.158957    37A      0.168876    38A      0.191055  
	  39A      0.240026    40A      0.242199    41A      0.248782  
	  42A      0.253933    43A      0.264520    44A      0.279166  
	  45A      0.286962    46A      0.293747    47A      0.295664  
	  48A      0.309189    49A      0.320126    50A      0.340061  
	  51A      0.341121    52A      0.369013    53A      0.378209  
	  54A      0.395276    55A      0.400511    56A      0.401489  
	  57A      0.403625    58A      0.430480    59A      0.451791  
	  60A      0.478308    61A      0.479124    62A      0.481688  
	  63A      0.497214    64A      0.507680    65A      0.517352  
	  66A      0.520472    67A      0.537538    68A      0.547390  
	  69A      0.589172    70A      0.591512    71A      0.592738  
	  72A      0.633685    73A      0.651382    74A      0.654084  
	  75A      0.669140    76A      0.696582    77A      0.707348  
	  78A      0.717308    79A      0.733459    80A      0.748654  
	  81A      0.767618    82A      0.776887    83A      0.810397  
	  84A      0.857601    85A      0.903073    86A      0.955080  
	  87A      0.964844    88A      0.986074    89A      1.025082  
	  90A      1.048256    91A      1.079401    92A      1.129407  
	  93A      1.301285    94A      1.305038    95A      1.378936  
	  96A      1.407685    97A      1.426655    98A      1.479791  
	  99A      1.481440   100A      1.487219   101A      1.497350  
	 102A      1.504561   103A      1.524396   104A      1.532564  
	 105A      1.559253   106A      1.631318   107A      1.640720  
	 108A      1.646654   109A      1.666672   110A      1.703954  
	 111A      1.712992   112A      1.728801   113A      1.744554  
	 114A      1.759216   115A      1.781401   116A      1.785990  
	 117A      1.841389   118A      1.871044   119A      1.904654  
	 120A      1.908363   121A      1.927903   122A      1.930253  
	 123A      1.950062   124A      1.958979   125A      1.961928  
	 126A      2.004360   127A      2.031769   128A      2.045312  
	 129A      2.176517   130A      2.222429   131A      2.250217  
	 132A      2.258653   133A      2.268529   134A      2.277409  
	 135A      2.307850   136A      2.315166   137A      2.328704  
	 138A      2.344090   139A      2.435005   140A      2.476228  
	 141A      2.512952   142A      2.535210   143A      2.713566  
	 144A      2.749537   145A      2.765787   146A      2.798270  
	 147A      2.863852   148A      2.864482   149A      2.913186  
	 150A      2.969882   151A      3.422300   152A      3.464933  
	 153A      3.568960   154A      3.702842   155A      4.935432  
	 156A      4.939069   157A      4.954739   158A      4.959017  
	 159A      4.961967   160A      4.966876   161A      4.974411  
	 162A      4.999643   163A      5.014501   164A      5.016078  
	 165A      5.045448   166A      5.050576   167A      5.077090  
	 168A      5.083516   169A      5.094242   170A      5.101490  
	 171A      5.101736   172A      5.124103   173A      5.223149  
	 174A      5.248071  

	Final Occupation by Irrep:
	          A 
	DOCC [    26 ]

  Energy converged.

  @RHF Final Energy:  -475.86475046987857

   => Energetics <=

    Nuclear Repulsion Energy =            244.1142617994183865
    One-Electron Energy =               -1147.4889342335659421
    Two-Electron Energy =                 427.5099219642684716
    DFT Exchange-Correlation Energy =       0.0000000000000000
    Empirical Dispersion Energy =           0.0000000000000000
    Total Energy =                       -475.8647504698790840



Properties will be evaluated at   0.000000,   0.000000,   0.000000 Bohr
  ==> Properties <==


Properties computed using the SCF density density matrix
  Nuclear Dipole Moment: (a.u.)
     X:     0.0091      Y:    -0.0167      Z:     5.2249

  Electronic Dipole Moment: (a.u.)
     X:    -0.0066      Y:     0.0106      Z:    -3.3447

  Dipole Moment: (a.u.)
     X:     0.0025      Y:    -0.0061      Z:     1.8802     Total:     1.8802

  Dipole Moment: (Debye)
     X:     0.0063      Y:    -0.0154      Z:     4.7789     Total:     4.7789


  Saving occupied orbitals to File 180.

  Saving SAPT 2-DIMER file.

*** tstop() called on node37.bme.utexas.edu at Fri Jul 11 15:47:01 2014
Module time:
	user time   =      21.85 seconds =       0.36 minutes
	system time =       0.30 seconds =       0.01 minutes
	total time  =          6 seconds =       0.10 minutes
Total time:
	user time   =      21.85 seconds =       0.36 minutes
	system time =       0.30 seconds =       0.01 minutes
	total time  =          6 seconds =       0.10 minutes

  //>>>>>>>>>>>>>>>>>>>>>>>>>>>>>>>>>>>//
  //            Monomer A HF           //
  //<<<<<<<<<<<<<<<<<<<<<<<<<<<<<<<<<<<//


  No DF_BASIS_SCF auxiliary basis selected, defaulting to aug-cc-pvdz-jkfit


*** tstart() called on node37.bme.utexas.edu
*** at Fri Jul 11 15:47:01 2014


         ---------------------------------------------------------
                                   SCF
            by Justin Turney, Rob Parrish, and Andy Simmonett
                              RHF Reference
                        4 Threads,  20000 MiB Core
         ---------------------------------------------------------

  ==> Geometry <==

    Molecular point group: c1
    Full point group: C1

    Geometry (in Angstrom), charge = 0, multiplicity = 1:

       Center              X                  Y                   Z       
    ------------   -----------------  -----------------  -----------------
           F          0.940895574275     0.556833005221     1.702090952837
           F         -0.940922425725    -0.582239994779     1.697666952837
           C         -0.006098425725    -0.005753994779     2.493162952837
           H         -0.480192425725     0.775210005221     3.080148952837
           H          0.458860574275    -0.776239994779     3.100934952837
           F(Gh)      0.568341658275    -0.927663831779    -2.194278310163
           F(Gh)     -0.569957341725     0.956100168221    -2.153025310163
           C(Gh)      0.008019658275     0.002194168221    -1.381009310163
           H(Gh)      0.788675658275     0.460875168221    -0.782180310163
           H(Gh)     -0.759256341725    -0.474564831779    -0.779042310163

  Running in c1 symmetry.

  Nuclear repulsion =   77.334038143701704

  Charge       = 0
  Multiplicity = 1
  Electrons    = 26
  Nalpha       = 13
  Nbeta        = 13

  ==> Algorithm <==

  SCF Algorithm Type is DF.
  DIIS enabled.
  MOM disabled.
  Fractional occupation disabled.
  Guess Type is CORE.
  Energy threshold   = 1.00e-08
  Density threshold  = 1.00e-08
  Integral threshold = 0.00e+00

  ==> Primary Basis <==

  Basis Set: AUG-CC-PVDZ
    Number of shells: 74
    Number of basis function: 174
    Number of Cartesian functions: 186
    Spherical Harmonics?: true
    Max angular momentum: 2

  ==> Pre-Iterations <==

   -------------------------------------------------------
    Irrep   Nso     Nmo     Nalpha   Nbeta   Ndocc  Nsocc
   -------------------------------------------------------
     A        174     174       0       0       0       0
   -------------------------------------------------------
    Total     174     174      13      13      13       0
   -------------------------------------------------------

 OEINTS: Wrapper to libmints.
   by Justin Turney

   Calculation information:
      Number of atoms:                  10
      Number of AO shells:              74
      Number of SO shells:              74
      Number of primitives:            178
      Number of atomic orbitals:       186
      Number of basis functions:       174

      Number of irreps:                  1
      Number of functions per irrep: [ 174 ]

      Overlap, kinetic, potential, dipole, and quadrupole integrals
        stored in file 35.

  ==> Integral Setup <==

  ==> DFJK: Density-Fitted J/K Matrices <==

    J tasked:                  Yes
    K tasked:                  Yes
    wK tasked:                  No
    OpenMP threads:              4
    Integrals threads:           4
    Memory (MB):             14305
    Algorithm:                Core
    Integral Cache:           LOAD
    Schwarz Cutoff:          0E+00
    Fitting Condition:       1E-12

   => Auxiliary Basis Set <=

  Basis Set: aug-cc-pvdz-jkfit
    Number of shells: 216
    Number of basis function: 644
    Number of Cartesian functions: 746
    Spherical Harmonics?: true
    Max angular momentum: 3

  Minimum eigenvalue in the overlap matrix is 5.8309714074E-04.
  Using Symmetric Orthogonalization.
  SCF Guess: Core (One-Electron) Hamiltonian.

  Guess energy:  -182.76378136757563

  ==> Iterations <==

                        Total Energy        Delta E     RMS |[F,P]|

   @RHF iter   1:  -218.50423219811375   -2.18504e+02   3.14487e-02 
   @RHF iter   2:  -195.89632747756775    2.26079e+01   3.23689e-02 DIIS
   @RHF iter   3:  -235.89595821002519   -3.99996e+01   1.30076e-02 DIIS
   @RHF iter   4:  -237.65447321528126   -1.75852e+00   4.11388e-03 DIIS
   @RHF iter   5:  -237.90591260941079   -2.51439e-01   1.34918e-03 DIIS
   @RHF iter   6:  -237.93082661750088   -2.49140e-02   2.28556e-04 DIIS
   @RHF iter   7:  -237.93182939628826   -1.00278e-03   6.85729e-05 DIIS
   @RHF iter   8:  -237.93193774735931   -1.08351e-04   1.71464e-05 DIIS
   @RHF iter   9:  -237.93194827979926   -1.05324e-05   3.88711e-06 DIIS
   @RHF iter  10:  -237.93194864200922   -3.62210e-07   8.52657e-07 DIIS
   @RHF iter  11:  -237.93194865426346   -1.22542e-08   1.43610e-07 DIIS
   @RHF iter  12:  -237.93194865471975   -4.56282e-10   5.46713e-08 DIIS
   @RHF iter  13:  -237.93194865475397   -3.42197e-11   1.00839e-08 DIIS
   @RHF iter  14:  -237.93194865475618   -2.21689e-12   1.55938e-09 DIIS

  ==> Post-Iterations <==

	Orbital Energies (a.u.)
	-----------------------

	Doubly Occupied:                                                      

	   1A    -26.325834     2A    -26.325817     3A    -11.416962  
	   4A     -1.668302     5A     -1.607653     6A     -0.975871  
	   7A     -0.780749     8A     -0.772522     9A     -0.757902  
	  10A     -0.668002    11A     -0.633331    12A     -0.623191  
	  13A     -0.538288  

	Virtual:                                                              

	  14A      0.033134    15A      0.044827    16A      0.049999  
	  17A      0.064407    18A      0.093956    19A      0.096184  
	  20A      0.100616    21A      0.129525    22A      0.137586  
	  23A      0.154593    24A      0.157594    25A      0.168681  
	  26A      0.234731    27A      0.236575    28A      0.240829  
	  29A      0.256843    30A      0.265599    31A      0.274702  
	  32A      0.287299    33A      0.288633    34A      0.289425  
	  35A      0.310757    36A      0.314689    37A      0.334312  
	  38A      0.344086    39A      0.349295    40A      0.352221  
	  41A      0.362421    42A      0.363927    43A      0.401627  
	  44A      0.420038    45A      0.434207    46A      0.436623  
	  47A      0.472579    48A      0.490377    49A      0.504848  
	  50A      0.526660    51A      0.531152    52A      0.556376  
	  53A      0.560602    54A      0.583177    55A      0.594515  
	  56A      0.611710    57A      0.633422    58A      0.646693  
	  59A      0.655066    60A      0.688947    61A      0.700684  
	  62A      0.710689    63A      0.715253    64A      0.739394  
	  65A      0.742848    66A      0.745661    67A      0.757762  
	  68A      0.762589    69A      0.772736    70A      0.798238  
	  71A      0.867450    72A      0.893444    73A      0.915521  
	  74A      0.937790    75A      0.996646    76A      1.001329  
	  77A      1.104177    78A      1.138591    79A      1.164904  
	  80A      1.244313    81A      1.251462    82A      1.314406  
	  83A      1.350403    84A      1.350559    85A      1.401764  
	  86A      1.500245    87A      1.502810    88A      1.521027  
	  89A      1.542300    90A      1.553114    91A      1.560859  
	  92A      1.640052    93A      1.643654    94A      1.672004  
	  95A      1.695443    96A      1.708592    97A      1.714366  
	  98A      1.736482    99A      1.746325   100A      1.767108  
	 101A      1.788522   102A      1.794274   103A      1.799263  
	 104A      1.859260   105A      1.890262   106A      1.906086  
	 107A      1.927393   108A      1.951550   109A      1.958294  
	 110A      1.976929   111A      2.007460   112A      2.017832  
	 113A      2.159068   114A      2.207558   115A      2.211977  
	 116A      2.224654   117A      2.269681   118A      2.286161  
	 119A      2.295013   120A      2.299971   121A      2.335336  
	 122A      2.375720   123A      2.450490   124A      2.494296  
	 125A      2.563903   126A      2.605905   127A      2.723894  
	 128A      2.732282   129A      2.781735   130A      2.782675  
	 131A      2.805230   132A      2.879208   133A      2.886763  
	 134A      3.028040   135A      3.192219   136A      3.258621  
	 137A      3.283347   138A      3.441313   139A      3.491041  
	 140A      3.636396   141A      4.113280   142A      4.440954  
	 143A      4.954739   144A      4.958354   145A      4.983755  
	 146A      5.009898   147A      5.035376   148A      5.064814  
	 149A      5.076165   150A      5.102614   151A      5.118118  
	 152A      5.183628   153A      5.241846   154A      5.355776  
	 155A      5.405827   156A      6.759430   157A      6.772658  
	 158A      6.800691   159A      6.810148   160A      6.824128  
	 161A      6.841027   162A      6.872037   163A      6.879002  
	 164A      6.892447   165A      6.956941   166A      7.497839  
	 167A      7.524637   168A      7.665377   169A      7.684370  
	 170A      8.040722   171A      8.050177   172A     18.604443  
	 173A     42.976364   174A     42.984260  

	Final Occupation by Irrep:
	          A 
	DOCC [    13 ]

  Energy converged.

  @RHF Final Energy:  -237.93194865475618

   => Energetics <=

    Nuclear Repulsion Energy =             77.3340381437017044
    One-Electron Energy =                -484.3431284377895167
    Two-Electron Energy =                 169.0771416393316713
    DFT Exchange-Correlation Energy =       0.0000000000000000
    Empirical Dispersion Energy =           0.0000000000000000
    Total Energy =                       -237.9319486547561269



Properties will be evaluated at   0.000000,   0.000000,   0.000000 Bohr
  ==> Properties <==


Properties computed using the SCF density density matrix
  Nuclear Dipole Moment: (a.u.)
     X:    -0.1099      Y:    -0.4993      Z:    97.7704

  Electronic Dipole Moment: (a.u.)
     X:     0.1032      Y:     0.5069      Z:   -96.9005

  Dipole Moment: (a.u.)
     X:    -0.0067      Y:     0.0077      Z:     0.8699     Total:     0.8699

  Dipole Moment: (Debye)
     X:    -0.0171      Y:     0.0194      Z:     2.2110     Total:     2.2112


  Saving occupied orbitals to File 180.

  Saving SAPT 2-MONOMER_A file.

*** tstop() called on node37.bme.utexas.edu at Fri Jul 11 15:47:04 2014
Module time:
	user time   =      11.81 seconds =       0.20 minutes
	system time =       0.13 seconds =       0.00 minutes
	total time  =          3 seconds =       0.05 minutes
Total time:
	user time   =      33.67 seconds =       0.56 minutes
	system time =       0.43 seconds =       0.01 minutes
	total time  =          9 seconds =       0.15 minutes

  //>>>>>>>>>>>>>>>>>>>>>>>>>>>>>>>>>>>//
  //            Monomer B HF           //
  //<<<<<<<<<<<<<<<<<<<<<<<<<<<<<<<<<<<//


  No DF_BASIS_SCF auxiliary basis selected, defaulting to aug-cc-pvdz-jkfit


*** tstart() called on node37.bme.utexas.edu
*** at Fri Jul 11 15:47:04 2014


         ---------------------------------------------------------
                                   SCF
            by Justin Turney, Rob Parrish, and Andy Simmonett
                              RHF Reference
                        4 Threads,  20000 MiB Core
         ---------------------------------------------------------

  ==> Geometry <==

    Molecular point group: c1
    Full point group: C1

    Geometry (in Angstrom), charge = 0, multiplicity = 1:

       Center              X                  Y                   Z       
    ------------   -----------------  -----------------  -----------------
           F(Gh)      0.940895574275     0.556833005221     1.702090952837
           F(Gh)     -0.940922425725    -0.582239994779     1.697666952837
           C(Gh)     -0.006098425725    -0.005753994779     2.493162952837
           H(Gh)     -0.480192425725     0.775210005221     3.080148952837
           H(Gh)      0.458860574275    -0.776239994779     3.100934952837
           F          0.568341658275    -0.927663831779    -2.194278310163
           F         -0.569957341725     0.956100168221    -2.153025310163
           C          0.008019658275     0.002194168221    -1.381009310163
           H          0.788675658275     0.460875168221    -0.782180310163
           H         -0.759256341725    -0.474564831779    -0.779042310163

  Running in c1 symmetry.

  Nuclear repulsion =   77.306442466163546

  Charge       = 0
  Multiplicity = 1
  Electrons    = 26
  Nalpha       = 13
  Nbeta        = 13

  ==> Algorithm <==

  SCF Algorithm Type is DF.
  DIIS enabled.
  MOM disabled.
  Fractional occupation disabled.
  Guess Type is CORE.
  Energy threshold   = 1.00e-08
  Density threshold  = 1.00e-08
  Integral threshold = 0.00e+00

  ==> Primary Basis <==

  Basis Set: AUG-CC-PVDZ
    Number of shells: 74
    Number of basis function: 174
    Number of Cartesian functions: 186
    Spherical Harmonics?: true
    Max angular momentum: 2

  ==> Pre-Iterations <==

   -------------------------------------------------------
    Irrep   Nso     Nmo     Nalpha   Nbeta   Ndocc  Nsocc
   -------------------------------------------------------
     A        174     174       0       0       0       0
   -------------------------------------------------------
    Total     174     174      13      13      13       0
   -------------------------------------------------------

 OEINTS: Wrapper to libmints.
   by Justin Turney

   Calculation information:
      Number of atoms:                  10
      Number of AO shells:              74
      Number of SO shells:              74
      Number of primitives:            178
      Number of atomic orbitals:       186
      Number of basis functions:       174

      Number of irreps:                  1
      Number of functions per irrep: [ 174 ]

      Overlap, kinetic, potential, dipole, and quadrupole integrals
        stored in file 35.

  ==> Integral Setup <==

  ==> DFJK: Density-Fitted J/K Matrices <==

    J tasked:                  Yes
    K tasked:                  Yes
    wK tasked:                  No
    OpenMP threads:              4
    Integrals threads:           4
    Memory (MB):             14305
    Algorithm:                Core
    Integral Cache:           LOAD
    Schwarz Cutoff:          0E+00
    Fitting Condition:       1E-12

   => Auxiliary Basis Set <=

  Basis Set: aug-cc-pvdz-jkfit
    Number of shells: 216
    Number of basis function: 644
    Number of Cartesian functions: 746
    Spherical Harmonics?: true
    Max angular momentum: 3

  Minimum eigenvalue in the overlap matrix is 5.8309714074E-04.
  Using Symmetric Orthogonalization.
  SCF Guess: Core (One-Electron) Hamiltonian.

  Guess energy:  -182.75480302750429

  ==> Iterations <==

                        Total Energy        Delta E     RMS |[F,P]|

   @RHF iter   1:  -218.52010146059695   -2.18520e+02   3.14600e-02 
   @RHF iter   2:  -188.94906214197823    2.95710e+01   3.54704e-02 DIIS
   @RHF iter   3:  -236.71224418561889   -4.77632e+01   1.02270e-02 DIIS
   @RHF iter   4:  -237.81121679028763   -1.09897e+00   2.53083e-03 DIIS
   @RHF iter   5:  -237.92100034022161   -1.09784e-01   8.55572e-04 DIIS
   @RHF iter   6:  -237.93107835353504   -1.00780e-02   2.08584e-04 DIIS
   @RHF iter   7:  -237.93168098156798   -6.02628e-04   5.22214e-05 DIIS
   @RHF iter   8:  -237.93174706256985   -6.60810e-05   9.01343e-06 DIIS
   @RHF iter   9:  -237.93174926437035   -2.20180e-06   3.69612e-06 DIIS
   @RHF iter  10:  -237.93174949596602   -2.31596e-07   1.10339e-06 DIIS
   @RHF iter  11:  -237.93174951818281   -2.22168e-08   1.94728e-07 DIIS
   @RHF iter  12:  -237.93174951924993   -1.06712e-09   2.93764e-08 DIIS
   @RHF iter  13:  -237.93174951927034   -2.04068e-11   4.63620e-09 DIIS

  ==> Post-Iterations <==

	Orbital Energies (a.u.)
	-----------------------

	Doubly Occupied:                                                      

	   1A    -26.325987     2A    -26.325970     3A    -11.417084  
	   4A     -1.668230     5A     -1.607803     6A     -0.976086  
	   7A     -0.780428     8A     -0.772767     9A     -0.757923  
	  10A     -0.668200    11A     -0.633613    12A     -0.623518  
	  13A     -0.538152  

	Virtual:                                                              

	  14A      0.021586    15A      0.049292    16A      0.049674  
	  17A      0.051591    18A      0.088483    19A      0.093358  
	  20A      0.095352    21A      0.118237    22A      0.140286  
	  23A      0.142238    24A      0.162158    25A      0.176377  
	  26A      0.205055    27A      0.218800    28A      0.219502  
	  29A      0.235803    30A      0.242647    31A      0.266314  
	  32A      0.279806    33A      0.287372    34A      0.288367  
	  35A      0.298085    36A      0.327424    37A      0.329251  
	  38A      0.331910    39A      0.344991    40A      0.357873  
	  41A      0.379124    42A      0.382818    43A      0.385457  
	  44A      0.427302    45A      0.431532    46A      0.436233  
	  47A      0.447556    48A      0.490561    49A      0.491650  
	  50A      0.504673    51A      0.514777    52A      0.515374  
	  53A      0.550034    54A      0.574821    55A      0.603011  
	  56A      0.624724    57A      0.625518    58A      0.626853  
	  59A      0.629604    60A      0.650380    61A      0.669645  
	  62A      0.686082    63A      0.692497    64A      0.704296  
	  65A      0.725365    66A      0.749263    67A      0.765697  
	  68A      0.769806    69A      0.776113    70A      0.798485  
	  71A      0.813640    72A      0.828581    73A      0.886104  
	  74A      0.928793    75A      1.006962    76A      1.012489  
	  77A      1.087636    78A      1.099874    79A      1.176511  
	  80A      1.230370    81A      1.247801    82A      1.298493  
	  83A      1.318938    84A      1.393883    85A      1.425941  
	  86A      1.429102    87A      1.482555    88A      1.497063  
	  89A      1.497291    90A      1.570313    91A      1.578823  
	  92A      1.617873    93A      1.620998    94A      1.662448  
	  95A      1.667909    96A      1.677557    97A      1.717302  
	  98A      1.728667    99A      1.741738   100A      1.746638  
	 101A      1.753725   102A      1.769671   103A      1.837466  
	 104A      1.849610   105A      1.856109   106A      1.906075  
	 107A      1.914069   108A      1.915083   109A      1.967851  
	 110A      1.972260   111A      1.990058   112A      2.016398  
	 113A      2.134354   114A      2.200605   115A      2.201745  
	 116A      2.220210   117A      2.222743   118A      2.264363  
	 119A      2.294623   120A      2.309358   121A      2.313720  
	 122A      2.330991   123A      2.488979   124A      2.498512  
	 125A      2.553920   126A      2.560442   127A      2.657608  
	 128A      2.732712   129A      2.760381   130A      2.781825  
	 131A      2.784883   132A      2.898613   133A      2.940009  
	 134A      2.964758   135A      3.111003   136A      3.231786  
	 137A      3.270332   138A      3.450782   139A      3.455985  
	 140A      3.651844   141A      4.027940   142A      4.408498  
	 143A      4.941156   144A      4.945658   145A      4.953486  
	 146A      5.000825   147A      5.009339   148A      5.036184  
	 149A      5.066188   150A      5.080323   151A      5.105890  
	 152A      5.137517   153A      5.233742   154A      5.309415  
	 155A      5.395363   156A      6.744384   157A      6.764502  
	 158A      6.768288   159A      6.796929   160A      6.803946  
	 161A      6.843119   162A      6.882011   163A      6.896788  
	 164A      6.904244   165A      6.940011   166A      7.477226  
	 167A      7.516351   168A      7.614762   169A      7.617851  
	 170A      8.031094   171A      8.046377   172A     18.555231  
	 173A     42.939972   174A     42.954581  

	Final Occupation by Irrep:
	          A 
	DOCC [    13 ]

  Energy converged.

  @RHF Final Energy:  -237.93174951927034

   => Energetics <=

    Nuclear Repulsion Energy =             77.3064424661635456
    One-Electron Energy =                -484.2848608712253053
    Two-Electron Energy =                 169.0466688857913482
    DFT Exchange-Correlation Energy =       0.0000000000000000
    Empirical Dispersion Energy =           0.0000000000000000
    Total Energy =                       -237.9317495192703973



Properties will be evaluated at   0.000000,   0.000000,   0.000000 Bohr
  ==> Properties <==


Properties computed using the SCF density density matrix
  Nuclear Dipole Moment: (a.u.)
     X:     0.1190      Y:     0.4826      Z:   -92.5456

  Electronic Dipole Moment: (a.u.)
     X:    -0.1093      Y:    -0.4958      Z:    93.4183

  Dipole Moment: (a.u.)
     X:     0.0097      Y:    -0.0132      Z:     0.8727     Total:     0.8729

  Dipole Moment: (Debye)
     X:     0.0247      Y:    -0.0336      Z:     2.2182     Total:     2.2186


  Saving occupied orbitals to File 180.

  Saving SAPT 2-MONOMER_B file.

*** tstop() called on node37.bme.utexas.edu at Fri Jul 11 15:47:07 2014
Module time:
	user time   =      11.15 seconds =       0.19 minutes
	system time =       0.15 seconds =       0.00 minutes
	total time  =          3 seconds =       0.05 minutes
Total time:
	user time   =      44.90 seconds =       0.75 minutes
	system time =       0.59 seconds =       0.01 minutes
	total time  =         12 seconds =       0.20 minutes
  No DF_BASIS_SAPT auxiliary basis selected, defaulting to aug-cc-pvdz-ri

  //>>>>>>>>>>>>>>>>>>>>>>>>>>>>>>>>>>>//
  //               SAPT2+              //
  //<<<<<<<<<<<<<<<<<<<<<<<<<<<<<<<<<<<//


*** tstart() called on node37.bme.utexas.edu
*** at Fri Jul 11 15:47:07 2014

        SAPT2+  
    Ed Hohenstein
     6 June 2009

      Orbital Information
  --------------------------
    NSO        =       174
    NMO        =       174
    NRI        =       524
    NOCC A     =        13
    NOCC B     =        13
    FOCC A     =         3
    FOCC B     =         3
    NVIR A     =       161
    NVIR B     =       161

    Estimated memory usage: 213.8 MB

    Elst10,r            =    -0.004279738735 H
    Exch10 (S^2)        =     0.003789128958 H
    Exch10              =     0.003793921374 H
    Ind20,r (A<-B)      =    -0.000394719881 H
    Ind20,r (B<-A)      =    -0.000723645502 H
    Ind20,r             =    -0.001118365382 H
    Exch-Ind20,r (A<-B) =     0.000176358914 H
    Exch-Ind20,r (B<-A) =     0.000633868679 H
    Exch-Ind20,r        =     0.000810227593 H
    Disp20              =    -0.002503383078 H
    Exch-Disp20         =     0.000245708434 H
    Elst12,r            =     0.000315301769 H
    Exch11              =    -0.000070356089 H
    Exch12              =     0.000873286020 H
    Ind22               =    -0.000200969954 H
    Disp21              =     0.000025001634 H
    Disp22 (SDQ)        =    -0.000120439382 H

    (i =   1 of  10)         33 seconds
    (i =   2 of  10)         67 seconds
    (i =   3 of  10)         99 seconds
    (i =   4 of  10)        133 seconds
    (i =   5 of  10)        168 seconds
    (i =   6 of  10)        203 seconds
    (i =   7 of  10)        235 seconds
    (i =   8 of  10)        267 seconds
    (i =   9 of  10)        299 seconds
    (i =  10 of  10)        331 seconds

    Disp220 (T)         =    -0.000222299525 H

    (i =   1 of  10)         33 seconds
    (i =   2 of  10)         58 seconds
    (i =   3 of  10)         85 seconds
    (i =   4 of  10)        115 seconds
    (i =   5 of  10)        144 seconds
    (i =   6 of  10)        175 seconds
    (i =   7 of  10)        203 seconds
    (i =   8 of  10)        232 seconds
    (i =   9 of  10)        260 seconds
    (i =  10 of  10)        290 seconds

    Disp202 (T)         =    -0.000155644777 H

    Disp22 (T)          =    -0.000377944303 H

    SAPT Results  
  -----------------------------------------------------------------------
    Electrostatics          -3.96443697 mH      -2.48772186 kcal mol^-1
      Elst10,r              -4.27973874 mH      -2.68557671 kcal mol^-1
      Elst12,r               0.31530177 mH       0.19785486 kcal mol^-1

    Exchange                 4.59685131 mH       2.88456786 kcal mol^-1
      Exch10                 3.79392137 mH       2.38072170 kcal mol^-1
      Exch10(S^2)            3.78912896 mH       2.37771442 kcal mol^-1
      Exch11(S^2)           -0.07035609 mH      -0.04414911 kcal mol^-1
      Exch12(S^2)            0.87328602 mH       0.54799527 kcal mol^-1

    Induction               -0.62185077 mH      -0.39021726 kcal mol^-1
      Ind20,r               -1.11836538 mH      -0.70178490 kcal mol^-1
      Ind22                 -0.20096995 mH      -0.12611056 kcal mol^-1
      Exch-Ind20,r           0.81022759 mH       0.50842551 kcal mol^-1
      Exch-Ind22             0.14559768 mH       0.09136393 kcal mol^-1
      delta HF,r (2)        -0.25834070 mH      -0.16211124 kcal mol^-1

    Dispersion              -2.73105669 mH      -1.71376402 kcal mol^-1
      Disp20                -2.50338308 mH      -1.57089666 kcal mol^-1
      Disp21                 0.02500163 mH       0.01568876 kcal mol^-1
      Disp22 (SDQ)          -0.12043938 mH      -0.07557686 kcal mol^-1
      Disp22 (T)            -0.37794430 mH      -0.23716364 kcal mol^-1
      Exch-Disp20            0.24570843 mH       0.15418438 kcal mol^-1

    Total HF                -1.05229585 mH      -0.66032564 kcal mol^-1
    Total SAPT0             -3.30997050 mH      -2.07703793 kcal mol^-1
    Total SAPT2             -2.24711107 mH      -1.41008355 kcal mol^-1
    Total SAPT2+            -2.72049312 mH      -1.70713528 kcal mol^-1

*** tstop() called on node37.bme.utexas.edu at Fri Jul 11 15:59:00 2014
Module time:
	user time   =    2659.39 seconds =      44.32 minutes
	system time =      29.83 seconds =       0.50 minutes
	total time  =        713 seconds =      11.88 minutes
Total time:
	user time   =    2704.30 seconds =      45.07 minutes
	system time =      30.42 seconds =       0.51 minutes
	total time  =        725 seconds =      12.08 minutes

*** PSI4 exiting successfully. Buy a developer a beer!
