    -----------------------------------------------------------------------
          PSI4: An Open-Source Ab Initio Electronic Structure Package
                              PSI 4.0.0-beta4 Driver

    J. M. Turney, A. C. Simmonett, R. M. Parrish, E. G. Hohenstein,
    F. A. Evangelista, J. T. Fermann, B. J. Mintz, L. A. Burns, J. J. Wilke,
    M. L. Abrams, N. J. Russ, M. L. Leininger, C. L. Janssen, E. T. Seidl,
    W. D. Allen, H. F. Schaefer, R. A. King, E. F. Valeev, C. D. Sherrill,
    and T. D. Crawford, WIREs Comput. Mol. Sci., (2011) (doi: 10.1002/wcms.93)

                         Additional Contributions by
    A. E. DePrince, M. Saitow, U. Bozkaya, A. Yu. Sokolov
    -----------------------------------------------------------------------

    Process ID:   3281
    PSI4DATADIR: /home/xzhu216/psi4/psi4-install/share/psi

    Using LocalCommunicator (Number of processes = 1)

    Memory level set to 256.000 MB

  ==> Input File <==

--------------------------------------------------------------------------
#psi4
#
memory 20 gb

molecule CH2Br2_CH2Br2 {
0 1
   Br     0.377721000     1.549726000     1.434409000
   Br    -0.393013000    -1.562582000     1.428419000
    C    -0.013169000    -0.007087000     2.485715000
    H    -0.885771000     0.207901000     3.087328000
    H     0.853113000    -0.222737000     3.096162000
--
0 1
   Br    -0.393470018    -1.545085795    -2.783336967
   Br     0.374916982     1.569405205    -2.780602967
    C     0.016448982     0.004903205    -1.731116967
    H     0.897620982    -0.212998795    -1.144215967
    H    -0.834560018     0.214306205    -1.098664967
units angstrom
no_reorient  #important for SAPT in psi4, default
symmetry c1  #important for SAPT in psi4, default
}

set {
basis aug-cc-pVDZ
scf_type DF
freeze_core True
}
energy('sapt2+')
--------------------------------------------------------------------------

  Memory set to  20.000 GiB by Python script.

  //>>>>>>>>>>>>>>>>>>>>>>>>>>>>>>>>>>>//
  //              Dimer HF             //
  //<<<<<<<<<<<<<<<<<<<<<<<<<<<<<<<<<<<//


  No DF_BASIS_SCF auxiliary basis selected, defaulting to aug-cc-pvdz-jkfit


*** tstart() called on node33.bme.utexas.edu
*** at Sat Jul 12 18:02:12 2014


         ---------------------------------------------------------
                                   SCF
            by Justin Turney, Rob Parrish, and Andy Simmonett
                              RHF Reference
                        4 Threads,  20000 MiB Core
         ---------------------------------------------------------

  ==> Geometry <==

    Molecular point group: c1
    Full point group: C1

    Geometry (in Angstrom), charge = 0, multiplicity = 1:

       Center              X                  Y                   Z       
    ------------   -----------------  -----------------  -----------------
          BR          0.385288524382     1.547209789449     2.016713144416
          BR         -0.385445475618    -1.565098210551     2.010723144416
           C         -0.005601475618    -0.009603210551     3.068019144416
           H         -0.878203475618     0.205384789449     3.669632144416
           H          0.860680524382    -0.225253210551     3.678466144416
          BR         -0.385902493618    -1.547602005551    -2.201032822584
          BR          0.382484506382     1.566888994449    -2.198298822584
           C          0.024016506382     0.002386994449    -1.148812822584
           H          0.905188506382    -0.215515005551    -0.561911822584
           H         -0.826992493618     0.211789994449    -0.516360822584

  Running in c1 symmetry.

  Nuclear repulsion = 1407.371620313683479

  Charge       = 0
  Multiplicity = 1
  Electrons    = 156
  Nalpha       = 78
  Nbeta        = 78

  ==> Algorithm <==

  SCF Algorithm Type is DF.
  DIIS enabled.
  MOM disabled.
  Fractional occupation disabled.
  Guess Type is CORE.
  Energy threshold   = 1.00e-08
  Density threshold  = 1.00e-08
  Integral threshold = 0.00e+00

  ==> Primary Basis <==

  Basis Set: AUG-CC-PVDZ
    Number of shells: 94
    Number of basis function: 226
    Number of Cartesian functions: 242
    Spherical Harmonics?: true
    Max angular momentum: 2

  ==> Pre-Iterations <==

   -------------------------------------------------------
    Irrep   Nso     Nmo     Nalpha   Nbeta   Ndocc  Nsocc
   -------------------------------------------------------
     A        226     226       0       0       0       0
   -------------------------------------------------------
    Total     226     226      78      78      78       0
   -------------------------------------------------------

 OEINTS: Wrapper to libmints.
   by Justin Turney

   Calculation information:
      Number of atoms:                  10
      Number of AO shells:              94
      Number of SO shells:              94
      Number of primitives:            450
      Number of atomic orbitals:       242
      Number of basis functions:       226

      Number of irreps:                  1
      Number of functions per irrep: [ 226 ]

      Overlap, kinetic, potential, dipole, and quadrupole integrals
        stored in file 35.

  ==> Integral Setup <==

  ==> DFJK: Density-Fitted J/K Matrices <==

    J tasked:                  Yes
    K tasked:                  Yes
    wK tasked:                  No
    OpenMP threads:              4
    Integrals threads:           4
    Memory (MB):             14305
    Algorithm:                Core
    Integral Cache:           SAVE
    Schwarz Cutoff:          0E+00
    Fitting Condition:       1E-12

   => Auxiliary Basis Set <=

  Basis Set: aug-cc-pvdz-jkfit
    Number of shells: 312
    Number of basis function: 1076
    Number of Cartesian functions: 1298
    Spherical Harmonics?: true
    Max angular momentum: 3

  Minimum eigenvalue in the overlap matrix is 4.0646460345E-04.
  Using Symmetric Orthogonalization.
  SCF Guess: Core (One-Electron) Hamiltonian.

  Guess energy: -7360.37996611041217

  ==> Iterations <==

                        Total Energy        Delta E     RMS |[F,P]|

   @RHF iter   1: -10322.32865827740534   -1.03223e+04   2.99263e-02 
   @RHF iter   2: -10237.16140726160666    8.51673e+01   4.37277e-02 DIIS
   @RHF iter   3: -10316.71130335935595   -7.95499e+01   2.07014e-02 DIIS
   @RHF iter   4: -10267.84610012159465    4.88652e+01   3.52600e-02 DIIS
   @RHF iter   5: -10326.09921469767687   -5.82531e+01   2.40239e-02 DIIS
   @RHF iter   6: -10362.52977585415465   -3.64306e+01   6.40943e-03 DIIS
   @RHF iter   7: -10364.74350968417821   -2.21373e+00   2.42815e-03 DIIS
   @RHF iter   8: -10364.89384650475949   -1.50337e-01   6.36826e-04 DIIS
   @RHF iter   9: -10364.90540967426568   -1.15632e-02   1.97711e-04 DIIS
   @RHF iter  10: -10364.90708858148537   -1.67891e-03   5.90572e-05 DIIS
   @RHF iter  11: -10364.90724819161551   -1.59610e-04   2.21882e-05 DIIS
   @RHF iter  12: -10364.90727024774969   -2.20561e-05   4.82853e-06 DIIS
   @RHF iter  13: -10364.90727215048719   -1.90274e-06   1.54969e-06 DIIS
   @RHF iter  14: -10364.90727231466371   -1.64177e-07   3.41815e-07 DIIS
   @RHF iter  15: -10364.90727232320933   -8.54561e-09   1.16349e-07 DIIS
   @RHF iter  16: -10364.90727232420068   -9.91349e-10   3.43533e-08 DIIS
   @RHF iter  17: -10364.90727232432801   -1.27329e-10   8.14259e-09 DIIS

  ==> Post-Iterations <==

	Orbital Energies (a.u.)
	-----------------------

	Doubly Occupied:                                                      

	   1A   -490.125912     2A   -490.125874     3A   -490.106186  
	   4A   -490.106134     5A    -65.260278     6A    -65.260238  
	   7A    -65.240568     8A    -65.240517     9A    -58.617635  
	  10A    -58.617595    11A    -58.616128    12A    -58.616111  
	  13A    -58.616087    14A    -58.616070    15A    -58.597907  
	  16A    -58.597856    17A    -58.596452    18A    -58.596419  
	  19A    -58.596401    20A    -58.596368    21A    -11.372991  
	  22A    -11.351146    23A     -9.896385    24A     -9.896339  
	  25A     -9.876538    26A     -9.876488    27A     -7.509177  
	  28A     -7.509133    29A     -7.500430    30A     -7.500383  
	  31A     -7.500187    32A     -7.500140    33A     -7.489292  
	  34A     -7.489244    35A     -7.480609    36A     -7.480559  
	  37A     -7.480425    38A     -7.480377    39A     -3.110517  
	  40A     -3.110469    41A     -3.106113    42A     -3.106066  
	  43A     -3.105873    44A     -3.105828    45A     -3.095707  
	  46A     -3.095682    47A     -3.095658    48A     -3.095633  
	  49A     -3.090590    50A     -3.090538    51A     -3.086233  
	  52A     -3.086180    53A     -3.086039    54A     -3.085991  
	  55A     -3.075912    56A     -3.075901    57A     -3.075863  
	  58A     -3.075851    59A     -1.136955    60A     -1.115787  
	  61A     -1.031104    62A     -1.010769    63A     -0.891380  
	  64A     -0.868742    65A     -0.675207    66A     -0.653263  
	  67A     -0.591646    68A     -0.572816    69A     -0.554927  
	  70A     -0.532666    71A     -0.443890    72A     -0.443006  
	  73A     -0.428369    74A     -0.424871    75A     -0.423076  
	  76A     -0.421225    77A     -0.407343    78A     -0.398631  

	Virtual:                                                              

	  79A      0.029056    80A      0.046313    81A      0.051565  
	  82A      0.068666    83A      0.070797    84A      0.073205  
	  85A      0.076964    86A      0.089900    87A      0.114873  
	  88A      0.122472    89A      0.124475    90A      0.131334  
	  91A      0.138291    92A      0.146721    93A      0.156058  
	  94A      0.157735    95A      0.158443    96A      0.163658  
	  97A      0.175265    98A      0.176767    99A      0.180799  
	 100A      0.185143   101A      0.196584   102A      0.202238  
	 103A      0.211490   104A      0.215196   105A      0.223514  
	 106A      0.227744   107A      0.250406   108A      0.267549  
	 109A      0.283585   110A      0.289639   111A      0.290168  
	 112A      0.308843   113A      0.334237   114A      0.345532  
	 115A      0.356192   116A      0.376844   117A      0.380488  
	 118A      0.389068   119A      0.391862   120A      0.411628  
	 121A      0.426545   122A      0.427377   123A      0.439939  
	 124A      0.447969   125A      0.467143   126A      0.471023  
	 127A      0.475456   128A      0.475867   129A      0.491994  
	 130A      0.493466   131A      0.510035   132A      0.523743  
	 133A      0.527533   134A      0.531279   135A      0.557903  
	 136A      0.559751   137A      0.600301   138A      0.604394  
	 139A      0.605592   140A      0.626125   141A      0.631181  
	 142A      0.636686   143A      0.643815   144A      0.651125  
	 145A      0.674875   146A      0.679070   147A      0.690947  
	 148A      0.696495   149A      0.712223   150A      0.754994  
	 151A      0.757623   152A      0.776309   153A      0.794720  
	 154A      0.796889   155A      0.797922   156A      0.832936  
	 157A      0.889599   158A      0.909800   159A      0.947922  
	 160A      0.955911   161A      0.983637   162A      0.994086  
	 163A      1.000003   164A      1.012112   165A      1.017700  
	 166A      1.027309   167A      1.048968   168A      1.060615  
	 169A      1.086978   170A      1.088212   171A      1.102479  
	 172A      1.157617   173A      1.176979   174A      1.186513  
	 175A      1.212396   176A      1.221819   177A      1.240466  
	 178A      1.243740   179A      1.260612   180A      1.261767  
	 181A      1.265884   182A      1.274806   183A      1.275435  
	 184A      1.284183   185A      1.301540   186A      1.310656  
	 187A      1.318219   188A      1.321755   189A      1.322803  
	 190A      1.349976   191A      1.358382   192A      1.366012  
	 193A      1.370606   194A      1.390630   195A      1.470253  
	 196A      1.477820   197A      1.495004   198A      1.501787  
	 199A      1.524678   200A      1.551579   201A      1.631566  
	 202A      1.732197   203A      1.779832   204A      1.793397  
	 205A      1.817792   206A      1.853094   207A      1.919141  
	 208A      2.039039   209A      2.050327   210A      2.057218  
	 211A      2.090728   212A      2.110299   213A      2.174606  
	 214A      2.176962   215A      2.206544   216A      2.220527  
	 217A      2.234883   218A      2.270126   219A      2.288454  
	 220A      2.292569   221A      2.455867   222A      2.549679  
	 223A      2.827594   224A      2.882689   225A      2.908433  
	 226A      2.921533  

	Final Occupation by Irrep:
	          A 
	DOCC [    78 ]

  Energy converged.

  @RHF Final Energy: -10364.90727232432801

   => Energetics <=

    Nuclear Repulsion Energy =           1407.3716203136834793
    One-Electron Energy =              -17240.9199906561225362
    Two-Electron Energy =                5468.6410980180971819
    DFT Exchange-Correlation Energy =       0.0000000000000000
    Empirical Dispersion Energy =           0.0000000000000000
    Total Energy =                     -10364.9072723243425571



Properties will be evaluated at   0.000000,   0.000000,   0.000000 Bohr
  ==> Properties <==


Properties computed using the SCF density density matrix
  Nuclear Dipole Moment: (a.u.)
     X:     0.0870      Y:    -0.0339      Z:     9.0116

  Electronic Dipole Moment: (a.u.)
     X:    -0.0747      Y:     0.0276      Z:    -7.4787

  Dipole Moment: (a.u.)
     X:     0.0123      Y:    -0.0063      Z:     1.5329     Total:     1.5330

  Dipole Moment: (Debye)
     X:     0.0312      Y:    -0.0161      Z:     3.8963     Total:     3.8965


  Saving occupied orbitals to File 180.

  Saving SAPT 2-DIMER file.

*** tstop() called on node33.bme.utexas.edu at Sat Jul 12 18:02:52 2014
Module time:
	user time   =     130.38 seconds =       2.17 minutes
	system time =       2.11 seconds =       0.04 minutes
	total time  =         40 seconds =       0.67 minutes
Total time:
	user time   =     130.38 seconds =       2.17 minutes
	system time =       2.11 seconds =       0.04 minutes
	total time  =         40 seconds =       0.67 minutes

  //>>>>>>>>>>>>>>>>>>>>>>>>>>>>>>>>>>>//
  //            Monomer A HF           //
  //<<<<<<<<<<<<<<<<<<<<<<<<<<<<<<<<<<<//


  No DF_BASIS_SCF auxiliary basis selected, defaulting to aug-cc-pvdz-jkfit


*** tstart() called on node33.bme.utexas.edu
*** at Sat Jul 12 18:02:52 2014


         ---------------------------------------------------------
                                   SCF
            by Justin Turney, Rob Parrish, and Andy Simmonett
                              RHF Reference
                        4 Threads,  20000 MiB Core
         ---------------------------------------------------------

  ==> Geometry <==

    Molecular point group: c1
    Full point group: C1

    Geometry (in Angstrom), charge = 0, multiplicity = 1:

       Center              X                  Y                   Z       
    ------------   -----------------  -----------------  -----------------
          BR          0.385288524382     1.547209789449     2.016713144416
          BR         -0.385445475618    -1.565098210551     2.010723144416
           C         -0.005601475618    -0.009603210551     3.068019144416
           H         -0.878203475618     0.205384789449     3.669632144416
           H          0.860680524382    -0.225253210551     3.678466144416
          BR(Gh)     -0.385902493618    -1.547602005551    -2.201032822584
          BR(Gh)      0.382484506382     1.566888994449    -2.198298822584
           C(Gh)      0.024016506382     0.002386994449    -1.148812822584
           H(Gh)      0.905188506382    -0.215515005551    -0.561911822584
           H(Gh)     -0.826992493618     0.211789994449    -0.516360822584

  Running in c1 symmetry.

  Nuclear repulsion =  354.098711374282743

  Charge       = 0
  Multiplicity = 1
  Electrons    = 78
  Nalpha       = 39
  Nbeta        = 39

  ==> Algorithm <==

  SCF Algorithm Type is DF.
  DIIS enabled.
  MOM disabled.
  Fractional occupation disabled.
  Guess Type is CORE.
  Energy threshold   = 1.00e-08
  Density threshold  = 1.00e-08
  Integral threshold = 0.00e+00

  ==> Primary Basis <==

  Basis Set: AUG-CC-PVDZ
    Number of shells: 94
    Number of basis function: 226
    Number of Cartesian functions: 242
    Spherical Harmonics?: true
    Max angular momentum: 2

  ==> Pre-Iterations <==

   -------------------------------------------------------
    Irrep   Nso     Nmo     Nalpha   Nbeta   Ndocc  Nsocc
   -------------------------------------------------------
     A        226     226       0       0       0       0
   -------------------------------------------------------
    Total     226     226      39      39      39       0
   -------------------------------------------------------

 OEINTS: Wrapper to libmints.
   by Justin Turney

   Calculation information:
      Number of atoms:                  10
      Number of AO shells:              94
      Number of SO shells:              94
      Number of primitives:            450
      Number of atomic orbitals:       242
      Number of basis functions:       226

      Number of irreps:                  1
      Number of functions per irrep: [ 226 ]

      Overlap, kinetic, potential, dipole, and quadrupole integrals
        stored in file 35.

  ==> Integral Setup <==

  ==> DFJK: Density-Fitted J/K Matrices <==

    J tasked:                  Yes
    K tasked:                  Yes
    wK tasked:                  No
    OpenMP threads:              4
    Integrals threads:           4
    Memory (MB):             14305
    Algorithm:                Core
    Integral Cache:           LOAD
    Schwarz Cutoff:          0E+00
    Fitting Condition:       1E-12

   => Auxiliary Basis Set <=

  Basis Set: aug-cc-pvdz-jkfit
    Number of shells: 312
    Number of basis function: 1076
    Number of Cartesian functions: 1298
    Spherical Harmonics?: true
    Max angular momentum: 3

  Minimum eigenvalue in the overlap matrix is 4.0646460345E-04.
  Using Symmetric Orthogonalization.
  SCF Guess: Core (One-Electron) Hamiltonian.

  Guess energy: -3680.54918080515108

  ==> Iterations <==

                        Total Energy        Delta E     RMS |[F,P]|

   @RHF iter   1: -5161.63988745854567   -5.16164e+03   1.98738e-02 
   @RHF iter   2: -5154.31562504269004    7.32426e+00   2.22851e-02 DIIS
   @RHF iter   3: -5180.69941967922296   -2.63838e+01   6.70436e-03 DIIS
   @RHF iter   4: -5182.27533199716618   -1.57591e+00   2.47881e-03 DIIS
   @RHF iter   5: -5182.43995906130931   -1.64627e-01   6.89054e-04 DIIS
   @RHF iter   6: -5182.45315319800920   -1.31941e-02   2.20470e-04 DIIS
   @RHF iter   7: -5182.45499643792209   -1.84324e-03   4.02863e-05 DIIS
   @RHF iter   8: -5182.45507506080503   -7.86229e-05   1.23316e-05 DIIS
   @RHF iter   9: -5182.45508024488481   -5.18408e-06   2.46103e-06 DIIS
   @RHF iter  10: -5182.45508063037505   -3.85490e-07   7.29868e-07 DIIS
   @RHF iter  11: -5182.45508066396633   -3.35913e-08   1.55366e-07 DIIS
   @RHF iter  12: -5182.45508066644743   -2.48110e-09   4.38795e-08 DIIS
   @RHF iter  13: -5182.45508066655293   -1.05501e-10   8.03172e-09 DIIS

  ==> Post-Iterations <==

	Orbital Energies (a.u.)
	-----------------------

	Doubly Occupied:                                                      

	   1A   -490.114628     2A   -490.114623     3A    -65.248910  
	   4A    -65.248904     5A    -58.606277     6A    -58.606271  
	   7A    -58.604775     8A    -58.604769     9A    -58.604752  
	  10A    -58.604746    11A    -11.362959    12A     -9.884912  
	  13A     -9.884902    14A     -7.497745    15A     -7.497739  
	  16A     -7.488906    17A     -7.488901    18A     -7.488715  
	  19A     -7.488709    20A     -3.099083    21A     -3.099062  
	  22A     -3.094655    23A     -3.094638    24A     -3.094431  
	  25A     -3.094424    26A     -3.084200    27A     -3.084195  
	  28A     -3.084175    29A     -3.084170    30A     -1.124958  
	  31A     -1.018879    32A     -0.879157    33A     -0.664808  
	  34A     -0.579964    35A     -0.542150    36A     -0.433503  
	  37A     -0.431000    38A     -0.416205    39A     -0.407202  

	Virtual:                                                              

	  40A      0.033879    41A      0.039241    42A      0.050213  
	  43A      0.059085    44A      0.067365    45A      0.070589  
	  46A      0.086912    47A      0.087417    48A      0.117311  
	  49A      0.120616    50A      0.123452    51A      0.124167  
	  52A      0.127130    53A      0.134045    54A      0.147993  
	  55A      0.154462    56A      0.155965    57A      0.161329  
	  58A      0.172414    59A      0.177712    60A      0.178273  
	  61A      0.188683    62A      0.190983    63A      0.197534  
	  64A      0.209577    65A      0.219987    66A      0.231401  
	  67A      0.233568    68A      0.273420    69A      0.294902  
	  70A      0.304733    71A      0.313617    72A      0.336157  
	  73A      0.344734    74A      0.362593    75A      0.379462  
	  76A      0.387471    77A      0.390614    78A      0.410366  
	  79A      0.412501    80A      0.427850    81A      0.441424  
	  82A      0.450921    83A      0.451457    84A      0.457961  
	  85A      0.472436    86A      0.478348    87A      0.490320  
	  88A      0.501915    89A      0.518305    90A      0.527252  
	  91A      0.528542    92A      0.531394    93A      0.536601  
	  94A      0.537342    95A      0.555100    96A      0.567841  
	  97A      0.573173    98A      0.590982    99A      0.591234  
	 100A      0.611347   101A      0.637915   102A      0.649179  
	 103A      0.653179   104A      0.662053   105A      0.663324  
	 106A      0.671626   107A      0.687631   108A      0.690652  
	 109A      0.721325   110A      0.726028   111A      0.748647  
	 112A      0.762181   113A      0.787226   114A      0.790422  
	 115A      0.790661   116A      0.835686   117A      0.850348  
	 118A      0.859051   119A      0.864491   120A      0.880860  
	 121A      0.887251   122A      0.903999   123A      0.938347  
	 124A      0.939409   125A      0.988987   126A      1.012033  
	 127A      1.013240   128A      1.020191   129A      1.028136  
	 130A      1.069723   131A      1.071111   132A      1.082566  
	 133A      1.090494   134A      1.152492   135A      1.197517  
	 136A      1.233952   137A      1.237439   138A      1.246864  
	 139A      1.292643   140A      1.293652   141A      1.304255  
	 142A      1.312469   143A      1.328123   144A      1.329160  
	 145A      1.345524   146A      1.426342   147A      1.438969  
	 148A      1.488933   149A      1.497032   150A      1.553695  
	 151A      1.643823   152A      1.649542   153A      1.724831  
	 154A      1.747797   155A      1.753709   156A      1.781894  
	 157A      1.790307   158A      1.803648   159A      1.831914  
	 160A      1.884138   161A      1.887948   162A      1.909801  
	 163A      1.915609   164A      1.917754   165A      1.937701  
	 166A      1.939298   167A      1.949928   168A      1.953182  
	 169A      1.973079   170A      2.019023   171A      2.049492  
	 172A      2.057071   173A      2.057160   174A      2.076755  
	 175A      2.136997   176A      2.184157   177A      2.193906  
	 178A      2.244593   179A      2.297841   180A      2.351010  
	 181A      2.353676   182A      2.463242   183A      2.523972  
	 184A      2.589982   185A      2.688194   186A      2.730616  
	 187A      2.830401   188A      2.834907   189A      2.865721  
	 190A      2.893886   191A      2.906093   192A      2.998136  
	 193A      3.234030   194A      3.250403   195A      3.669296  
	 196A      4.498866   197A      5.173974   198A      5.888766  
	 199A      5.891675   200A     11.669812   201A     11.677123  
	 202A     11.715186   203A     11.722269   204A     11.885978  
	 205A     11.953763   206A     18.322457   207A     23.134982  
	 208A     23.159820   209A     23.163702   210A     23.169457  
	 211A     23.239141   212A     23.243862   213A     23.257972  
	 214A     23.285651   215A     23.352922   216A     23.361472  
	 217A     41.530038   218A     41.537660   219A    135.524788  
	 220A    135.538097   221A    135.593421   222A    135.602851  
	 223A    135.826415   224A    135.922027   225A    699.885274  
	 226A    699.911412  

	Final Occupation by Irrep:
	          A 
	DOCC [    39 ]

  Energy converged.

  @RHF Final Energy: -5182.45508066655293

   => Energetics <=

    Nuclear Repulsion Energy =            354.0987113742827432
    One-Electron Energy =               -7921.4015862448031839
    Two-Electron Energy =                2384.8477942039826303
    DFT Exchange-Correlation Energy =       0.0000000000000000
    Empirical Dispersion Energy =           0.0000000000000000
    Total Energy =                      -5182.4550806665374694



Properties will be evaluated at   0.000000,   0.000000,   0.000000 Bohr
  ==> Properties <==


Properties computed using the SCF density density matrix
  Nuclear Dipole Moment: (a.u.)
     X:    -0.1070      Y:    -1.3296      Z:   315.0485

  Electronic Dipole Moment: (a.u.)
     X:     0.1035      Y:     1.3291      Z:  -314.3737

  Dipole Moment: (a.u.)
     X:    -0.0035      Y:    -0.0005      Z:     0.6748     Total:     0.6749

  Dipole Moment: (Debye)
     X:    -0.0090      Y:    -0.0011      Z:     1.7153     Total:     1.7153


  Saving occupied orbitals to File 180.

  Saving SAPT 2-MONOMER_A file.

*** tstop() called on node33.bme.utexas.edu at Sat Jul 12 18:03:17 2014
Module time:
	user time   =      79.51 seconds =       1.33 minutes
	system time =       1.05 seconds =       0.02 minutes
	total time  =         25 seconds =       0.42 minutes
Total time:
	user time   =     209.94 seconds =       3.50 minutes
	system time =       3.16 seconds =       0.05 minutes
	total time  =         65 seconds =       1.08 minutes

  //>>>>>>>>>>>>>>>>>>>>>>>>>>>>>>>>>>>//
  //            Monomer B HF           //
  //<<<<<<<<<<<<<<<<<<<<<<<<<<<<<<<<<<<//


  No DF_BASIS_SCF auxiliary basis selected, defaulting to aug-cc-pvdz-jkfit


*** tstart() called on node33.bme.utexas.edu
*** at Sat Jul 12 18:03:17 2014


         ---------------------------------------------------------
                                   SCF
            by Justin Turney, Rob Parrish, and Andy Simmonett
                              RHF Reference
                        4 Threads,  20000 MiB Core
         ---------------------------------------------------------

  ==> Geometry <==

    Molecular point group: c1
    Full point group: C1

    Geometry (in Angstrom), charge = 0, multiplicity = 1:

       Center              X                  Y                   Z       
    ------------   -----------------  -----------------  -----------------
          BR(Gh)      0.385288524382     1.547209789449     2.016713144416
          BR(Gh)     -0.385445475618    -1.565098210551     2.010723144416
           C(Gh)     -0.005601475618    -0.009603210551     3.068019144416
           H(Gh)     -0.878203475618     0.205384789449     3.669632144416
           H(Gh)      0.860680524382    -0.225253210551     3.678466144416
          BR         -0.385902493618    -1.547602005551    -2.201032822584
          BR          0.382484506382     1.566888994449    -2.198298822584
           C          0.024016506382     0.002386994449    -1.148812822584
           H          0.905188506382    -0.215515005551    -0.561911822584
           H         -0.826992493618     0.211789994449    -0.516360822584

  Running in c1 symmetry.

  Nuclear repulsion =  354.072649504076651

  Charge       = 0
  Multiplicity = 1
  Electrons    = 78
  Nalpha       = 39
  Nbeta        = 39

  ==> Algorithm <==

  SCF Algorithm Type is DF.
  DIIS enabled.
  MOM disabled.
  Fractional occupation disabled.
  Guess Type is CORE.
  Energy threshold   = 1.00e-08
  Density threshold  = 1.00e-08
  Integral threshold = 0.00e+00

  ==> Primary Basis <==

  Basis Set: AUG-CC-PVDZ
    Number of shells: 94
    Number of basis function: 226
    Number of Cartesian functions: 242
    Spherical Harmonics?: true
    Max angular momentum: 2

  ==> Pre-Iterations <==

   -------------------------------------------------------
    Irrep   Nso     Nmo     Nalpha   Nbeta   Ndocc  Nsocc
   -------------------------------------------------------
     A        226     226       0       0       0       0
   -------------------------------------------------------
    Total     226     226      39      39      39       0
   -------------------------------------------------------

 OEINTS: Wrapper to libmints.
   by Justin Turney

   Calculation information:
      Number of atoms:                  10
      Number of AO shells:              94
      Number of SO shells:              94
      Number of primitives:            450
      Number of atomic orbitals:       242
      Number of basis functions:       226

      Number of irreps:                  1
      Number of functions per irrep: [ 226 ]

      Overlap, kinetic, potential, dipole, and quadrupole integrals
        stored in file 35.

  ==> Integral Setup <==

  ==> DFJK: Density-Fitted J/K Matrices <==

    J tasked:                  Yes
    K tasked:                  Yes
    wK tasked:                  No
    OpenMP threads:              4
    Integrals threads:           4
    Memory (MB):             14305
    Algorithm:                Core
    Integral Cache:           LOAD
    Schwarz Cutoff:          0E+00
    Fitting Condition:       1E-12

   => Auxiliary Basis Set <=

  Basis Set: aug-cc-pvdz-jkfit
    Number of shells: 312
    Number of basis function: 1076
    Number of Cartesian functions: 1298
    Spherical Harmonics?: true
    Max angular momentum: 3

  Minimum eigenvalue in the overlap matrix is 4.0646460345E-04.
  Using Symmetric Orthogonalization.
  SCF Guess: Core (One-Electron) Hamiltonian.

  Guess energy: -3679.68489378559616

  ==> Iterations <==

                        Total Energy        Delta E     RMS |[F,P]|

   @RHF iter   1: -5162.14124472061758   -5.16214e+03   1.95462e-02 
   @RHF iter   2: -5154.33977218080963    7.80147e+00   2.17119e-02 DIIS
   @RHF iter   3: -5180.80127182416527   -2.64615e+01   6.53263e-03 DIIS
   @RHF iter   4: -5182.30686228986178   -1.50559e+00   2.22178e-03 DIIS
   @RHF iter   5: -5182.44004782003867   -1.33186e-01   6.87668e-04 DIIS
   @RHF iter   6: -5182.45306030625488   -1.30125e-02   2.13383e-04 DIIS
   @RHF iter   7: -5182.45473340306853   -1.67310e-03   4.26899e-05 DIIS
   @RHF iter   8: -5182.45482186020308   -8.84571e-05   1.20700e-05 DIIS
   @RHF iter   9: -5182.45482665067630   -4.79047e-06   2.31720e-06 DIIS
   @RHF iter  10: -5182.45482699096738   -3.40291e-07   6.64561e-07 DIIS
   @RHF iter  11: -5182.45482701638412   -2.54167e-08   1.27468e-07 DIIS
   @RHF iter  12: -5182.45482701797482   -1.59071e-09   3.42583e-08 DIIS
   @RHF iter  13: -5182.45482701801757   -4.27463e-11   6.44442e-09 DIIS

  ==> Post-Iterations <==

	Orbital Energies (a.u.)
	-----------------------

	Doubly Occupied:                                                      

	   1A   -490.114903     2A   -490.114899     3A    -65.249251  
	   4A    -65.249249     5A    -58.606608     6A    -58.606606  
	   7A    -58.605121     8A    -58.605119     9A    -58.605086  
	  10A    -58.605083    11A    -11.362733    12A     -9.885201  
	  13A     -9.885195    14A     -7.498030    15A     -7.498027  
	  16A     -7.489203    17A     -7.489201    18A     -7.489012  
	  19A     -7.489010    20A     -3.099370    21A     -3.099352  
	  22A     -3.094948    23A     -3.094932    24A     -3.094738  
	  25A     -3.094733    26A     -3.084437    27A     -3.084434  
	  28A     -3.084426    29A     -3.084422    30A     -1.125360  
	  31A     -1.019296    32A     -0.879496    33A     -0.664144  
	  34A     -0.580722    35A     -0.542599    36A     -0.433561  
	  37A     -0.431336    38A     -0.416277    39A     -0.407404  

	Virtual:                                                              

	  40A      0.021327    41A      0.043557    42A      0.052527  
	  43A      0.056055    44A      0.063481    45A      0.072014  
	  46A      0.081809    47A      0.083275    48A      0.107672  
	  49A      0.111669    50A      0.121623    51A      0.127501  
	  52A      0.127817    53A      0.136517    54A      0.138706  
	  55A      0.150282    56A      0.153926    57A      0.155677  
	  58A      0.161243    59A      0.173440    60A      0.178437  
	  61A      0.180568    62A      0.192411    63A      0.196929  
	  64A      0.209726    65A      0.215482    66A      0.221413  
	  67A      0.229505    68A      0.271247    69A      0.283695  
	  70A      0.308574    71A      0.321792    72A      0.327855  
	  73A      0.331119    74A      0.353222    75A      0.371697  
	  76A      0.391204    77A      0.393307    78A      0.402172  
	  79A      0.406463    80A      0.410261    81A      0.428078  
	  82A      0.436802    83A      0.438038    84A      0.450209  
	  85A      0.459204    86A      0.460085    87A      0.470963  
	  88A      0.473836    89A      0.485949    90A      0.500649  
	  91A      0.502875    92A      0.516863    93A      0.539017  
	  94A      0.555602    95A      0.563811    96A      0.565714  
	  97A      0.576507    98A      0.602559    99A      0.608438  
	 100A      0.624621   101A      0.627224   102A      0.635760  
	 103A      0.642903   104A      0.648510   105A      0.676717  
	 106A      0.697466   107A      0.705472   108A      0.721787  
	 109A      0.738519   110A      0.742490   111A      0.749851  
	 112A      0.785715   113A      0.791756   114A      0.802277  
	 115A      0.804639   116A      0.811228   117A      0.839813  
	 118A      0.841498   119A      0.848712   120A      0.859869  
	 121A      0.863244   122A      0.879471   123A      0.901687  
	 124A      0.920349   125A      0.937729   126A      0.971322  
	 127A      0.995777   128A      1.008215   129A      1.015035  
	 130A      1.034927   131A      1.041625   132A      1.051075  
	 133A      1.062513   134A      1.073408   135A      1.153545  
	 136A      1.217212   137A      1.232735   138A      1.246402  
	 139A      1.249679   140A      1.261665   141A      1.282437  
	 142A      1.283534   143A      1.306316   144A      1.328454  
	 145A      1.330072   146A      1.362228   147A      1.388913  
	 148A      1.482333   149A      1.550975   150A      1.567683  
	 151A      1.611385   152A      1.662600   153A      1.706595  
	 154A      1.758194   155A      1.762175   156A      1.796872  
	 157A      1.799845   158A      1.819183   159A      1.824461  
	 160A      1.851441   161A      1.870630   162A      1.897817  
	 163A      1.907325   164A      1.923399   165A      1.945440  
	 166A      1.956572   167A      1.984481   168A      2.000208  
	 169A      2.035911   170A      2.037159   171A      2.049341  
	 172A      2.069545   173A      2.108181   174A      2.128750  
	 175A      2.160562   176A      2.179545   177A      2.197840  
	 178A      2.259340   179A      2.281527   180A      2.318897  
	 181A      2.329744   182A      2.385207   183A      2.478704  
	 184A      2.538794   185A      2.674409   186A      2.683272  
	 187A      2.790386   188A      2.810534   189A      2.814145  
	 190A      2.895669   191A      2.909848   192A      2.959453  
	 193A      3.211875   194A      3.224520   195A      3.558894  
	 196A      4.459587   197A      5.149856   198A      5.862948  
	 199A      5.872372   200A     11.661344   201A     11.716995  
	 202A     11.778187   203A     11.780053   204A     11.903809  
	 205A     11.917099   206A     18.290262   207A     23.179563  
	 208A     23.189018   209A     23.192440   210A     23.214288  
	 211A     23.222166   212A     23.227361   213A     23.238935  
	 214A     23.283111   215A     23.359490   216A     23.377166  
	 217A     41.507959   218A     41.518080   219A    135.523585  
	 220A    135.604106   221A    135.685263   222A    135.687911  
	 223A    135.859311   224A    135.877334   225A    699.870751  
	 226A    699.888382  

	Final Occupation by Irrep:
	          A 
	DOCC [    39 ]

  Energy converged.

  @RHF Final Energy: -5182.45482701801757

   => Energetics <=

    Nuclear Repulsion Energy =            354.0726495040766508
    One-Electron Energy =               -7921.3279090576115777
    Two-Electron Energy =                2384.8004325355186666
    DFT Exchange-Correlation Energy =       0.0000000000000000
    Empirical Dispersion Energy =           0.0000000000000000
    Total Energy =                      -5182.4548270180166583



Properties will be evaluated at   0.000000,   0.000000,   0.000000 Bohr
  ==> Properties <==


Properties computed using the SCF density density matrix
  Nuclear Dipole Moment: (a.u.)
     X:     0.1940      Y:     1.2957      Z:  -306.0369

  Electronic Dipole Moment: (a.u.)
     X:    -0.1776      Y:    -1.3003      Z:   306.7100

  Dipole Moment: (a.u.)
     X:     0.0164      Y:    -0.0046      Z:     0.6731     Total:     0.6733

  Dipole Moment: (Debye)
     X:     0.0417      Y:    -0.0117      Z:     1.7109     Total:     1.7114


  Saving occupied orbitals to File 180.

  Saving SAPT 2-MONOMER_B file.

*** tstop() called on node33.bme.utexas.edu at Sat Jul 12 18:03:46 2014
Module time:
	user time   =      89.89 seconds =       1.50 minutes
	system time =       1.67 seconds =       0.03 minutes
	total time  =         29 seconds =       0.48 minutes
Total time:
	user time   =     299.86 seconds =       5.00 minutes
	system time =       4.83 seconds =       0.08 minutes
	total time  =         94 seconds =       1.57 minutes
  No DF_BASIS_SAPT auxiliary basis selected, defaulting to aug-cc-pvdz-ri

  //>>>>>>>>>>>>>>>>>>>>>>>>>>>>>>>>>>>//
  //               SAPT2+              //
  //<<<<<<<<<<<<<<<<<<<<<<<<<<<<<<<<<<<//


*** tstart() called on node33.bme.utexas.edu
*** at Sat Jul 12 18:03:46 2014

        SAPT2+  
    Ed Hohenstein
     6 June 2009

      Orbital Information
  --------------------------
    NSO        =       226
    NMO        =       226
    NRI        =       756
    NOCC A     =        39
    NOCC B     =        39
    FOCC A     =        19
    FOCC B     =        19
    NVIR A     =       187
    NVIR B     =       187

    Estimated memory usage: 1488.0 MB

    Elst10,r            =    -0.005893571092 H
    Exch10 (S^2)        =     0.009622869373 H
    Exch10              =     0.009679035352 H
    Ind20,r (A<-B)      =    -0.003314501495 H
    Ind20,r (B<-A)      =    -0.001701997800 H
    Ind20,r             =    -0.005016499295 H
    Exch-Ind20,r (A<-B) =     0.002863554825 H
    Exch-Ind20,r (B<-A) =     0.001571968292 H
    Exch-Ind20,r        =     0.004435523117 H
    Disp20              =    -0.008803647633 H
    Exch-Disp20         =     0.000976114598 H
    Elst12,r            =    -0.000298621780 H
    Exch11              =     0.000190708775 H
    Exch12              =     0.000938181013 H
    Ind22               =    -0.000683879969 H
    Disp21              =     0.001792938727 H
    Disp22 (SDQ)        =    -0.000253119547 H

    (i =   1 of  20)        258 seconds
    (i =   2 of  20)        511 seconds
    (i =   3 of  20)        765 seconds
    (i =   4 of  20)       1019 seconds
    (i =   5 of  20)       1274 seconds
    (i =   6 of  20)       1525 seconds
    (i =   7 of  20)       1778 seconds
    (i =   8 of  20)       2036 seconds
    (i =   9 of  20)       2292 seconds
    (i =  10 of  20)       2551 seconds
    (i =  11 of  20)       2811 seconds
    (i =  12 of  20)       3069 seconds
    (i =  13 of  20)       3327 seconds
    (i =  14 of  20)       3589 seconds
    (i =  15 of  20)       3846 seconds
    (i =  16 of  20)       4104 seconds
    (i =  17 of  20)       4362 seconds
    (i =  18 of  20)       4616 seconds
    (i =  19 of  20)       4871 seconds
    (i =  20 of  20)       5129 seconds

    Disp220 (T)         =    -0.000584398349 H

    (i =   1 of  20)        258 seconds
    (i =   2 of  20)        511 seconds
    (i =   3 of  20)        768 seconds
    (i =   4 of  20)       1028 seconds
    (i =   5 of  20)       1286 seconds
    (i =   6 of  20)       1543 seconds
    (i =   7 of  20)       1804 seconds
    (i =   8 of  20)       2059 seconds
    (i =   9 of  20)       2316 seconds
    (i =  10 of  20)       2579 seconds
    (i =  11 of  20)       2842 seconds
    (i =  12 of  20)       3101 seconds
    (i =  13 of  20)       3362 seconds
    (i =  14 of  20)       3622 seconds
    (i =  15 of  20)       3880 seconds
    (i =  16 of  20)       4140 seconds
    (i =  17 of  20)       4400 seconds
    (i =  18 of  20)       4659 seconds
    (i =  19 of  20)       4916 seconds
    (i =  20 of  20)       5174 seconds

    Disp202 (T)         =    -0.000650582893 H

    Disp22 (T)          =    -0.001234981242 H

    SAPT Results  
  -----------------------------------------------------------------------
    Electrostatics          -6.19219287 mH      -3.88565985 kcal mol^-1
      Elst10,r              -5.89357109 mH      -3.69827185 kcal mol^-1
      Elst12,r              -0.29862178 mH      -0.18738800 kcal mol^-1

    Exchange                10.80792514 mH       6.78207570 kcal mol^-1
      Exch10                 9.67903535 mH       6.07368663 kcal mol^-1
      Exch10(S^2)            9.62286937 mH       6.03844195 kcal mol^-1
      Exch11(S^2)            0.19070877 mH       0.11967157 kcal mol^-1
      Exch12(S^2)            0.93818101 mH       0.58871750 kcal mol^-1

    Induction               -1.22930626 mH      -0.77140135 kcal mol^-1
      Ind20,r               -5.01649929 mH      -3.14790096 kcal mol^-1
      Ind22                 -0.68387997 mH      -0.42914118 kcal mol^-1
      Exch-Ind20,r           4.43552312 mH       2.78333289 kcal mol^-1
      Exch-Ind22             0.60467773 mH       0.37944102 kcal mol^-1
      delta HF,r (2)        -0.56912784 mH      -0.35713313 kcal mol^-1

    Dispersion              -7.52269510 mH      -4.72056264 kcal mol^-1
      Disp20                -8.80364763 mH      -5.52437252 kcal mol^-1
      Disp21                 1.79293873 mH       1.12508608 kcal mol^-1
      Disp22 (SDQ)          -0.25311955 mH      -0.15883492 kcal mol^-1
      Disp22 (T)            -1.23498124 mH      -0.77496246 kcal mol^-1
      Exch-Disp20            0.97611460 mH       0.61252118 kcal mol^-1

    Total HF                 2.63536024 mH       1.65371359 kcal mol^-1
    Total SAPT0             -5.19217279 mH      -3.25813775 kcal mol^-1
    Total SAPT2             -4.44110702 mH      -2.78683685 kcal mol^-1
    Total SAPT2+            -4.13626908 mH      -2.59554814 kcal mol^-1

*** tstop() called on node33.bme.utexas.edu at Sat Jul 12 21:04:22 2014
Module time:
	user time   =   37438.08 seconds =     623.97 minutes
	system time =     221.81 seconds =       3.70 minutes
	total time  =      10836 seconds =     180.60 minutes
Total time:
	user time   =   37737.94 seconds =     628.97 minutes
	system time =     226.64 seconds =       3.78 minutes
	total time  =      10930 seconds =     182.17 minutes

*** PSI4 exiting successfully. Buy a developer a beer!
