    -----------------------------------------------------------------------
          PSI4: An Open-Source Ab Initio Electronic Structure Package
                              PSI 4.0.0-beta4 Driver

    J. M. Turney, A. C. Simmonett, R. M. Parrish, E. G. Hohenstein,
    F. A. Evangelista, J. T. Fermann, B. J. Mintz, L. A. Burns, J. J. Wilke,
    M. L. Abrams, N. J. Russ, M. L. Leininger, C. L. Janssen, E. T. Seidl,
    W. D. Allen, H. F. Schaefer, R. A. King, E. F. Valeev, C. D. Sherrill,
    and T. D. Crawford, WIREs Comput. Mol. Sci., (2011) (doi: 10.1002/wcms.93)

                         Additional Contributions by
    A. E. DePrince, M. Saitow, U. Bozkaya, A. Yu. Sokolov
    -----------------------------------------------------------------------

    Process ID:  38444
    PSI4DATADIR: /home/xzhu216/psi4/psi4-install/share/psi

    Using LocalCommunicator (Number of processes = 1)

    Memory level set to 256.000 MB

  ==> Input File <==

--------------------------------------------------------------------------
#psi4
#
memory 7 gb

molecule MeNH3_Water {
1 1
    N    -0.635097000    -0.241601000     0.273162000
    H    -0.701594000    -1.189162000     0.641236000
    H    -1.171272000    -0.218097000    -0.592711000
    H     0.365437000    -0.049953000     0.043146000
    C    -1.152753000     0.758203000     1.257002000
    H    -1.060655000     1.744724000     0.818995000
    H    -2.190130000     0.536315000     1.477240000
    H    -0.551778000     0.692606000     2.155936000
--
0 1
    O     1.907975750     0.376500100    -0.208443450
    H     2.253322750     0.923601100    -0.920182450
    H     2.689530750     0.021874100     0.225800550
units angstrom
no_reorient  #important for SAPT in psi4, default
symmetry c1  #important for SAPT in psi4, default
}

set {
basis aug-cc-pVDZ
scf_type DF
freeze_core True
}
energy('sapt2+')
--------------------------------------------------------------------------

  Memory set to   7.000 GiB by Python script.

  //>>>>>>>>>>>>>>>>>>>>>>>>>>>>>>>>>>>//
  //              Dimer HF             //
  //<<<<<<<<<<<<<<<<<<<<<<<<<<<<<<<<<<<//


  No DF_BASIS_SCF auxiliary basis selected, defaulting to aug-cc-pvdz-jkfit


*** tstart() called on node37.bme.utexas.edu
*** at Tue Aug 26 20:12:46 2014


         ---------------------------------------------------------
                                   SCF
            by Justin Turney, Rob Parrish, and Andy Simmonett
                              RHF Reference
                        4 Threads,   7000 MiB Core
         ---------------------------------------------------------

  ==> Geometry <==

    Molecular point group: c1
    Full point group: C1

    Geometry (in Angstrom), charge = 1, multiplicity = 1:

       Center              X                  Y                   Z       
    ------------   -----------------  -----------------  -----------------
           N         -0.783348383406    -0.525627602555    -0.115460651055
           H         -0.849845383406    -1.473188602555     0.252613348945
           H         -1.319523383406    -0.502123602555    -0.981333651055
           H          0.217185616594    -0.333979602555    -0.345476651055
           C         -1.301004383406     0.474176397445     0.868379348945
           H         -1.208906383406     1.460697397445     0.430372348945
           H         -2.338381383406     0.252288397445     1.088617348945
           H         -0.700029383406     0.408579397445     1.767313348945
           O          1.759724366594     0.092473497445    -0.597066101055
           H          2.105071366594     0.639574497445    -1.308805101055
           H          2.541279366594    -0.262152502555    -0.162822101055

  Running in c1 symmetry.

  Nuclear repulsion =   89.974332154014490

  Charge       = 1
  Multiplicity = 1
  Electrons    = 28
  Nalpha       = 14
  Nbeta        = 14

  ==> Algorithm <==

  SCF Algorithm Type is DF.
  DIIS enabled.
  MOM disabled.
  Fractional occupation disabled.
  Guess Type is CORE.
  Energy threshold   = 1.00e-08
  Density threshold  = 1.00e-08
  Integral threshold = 0.00e+00

  ==> Primary Basis <==

  Basis Set: AUG-CC-PVDZ
    Number of shells: 67
    Number of basis function: 141
    Number of Cartesian functions: 147
    Spherical Harmonics?: true
    Max angular momentum: 2

  ==> Pre-Iterations <==

   -------------------------------------------------------
    Irrep   Nso     Nmo     Nalpha   Nbeta   Ndocc  Nsocc
   -------------------------------------------------------
     A        141     141       0       0       0       0
   -------------------------------------------------------
    Total     141     141      14      14      14       0
   -------------------------------------------------------

 OEINTS: Wrapper to libmints.
   by Justin Turney

   Calculation information:
      Number of atoms:                  11
      Number of AO shells:              67
      Number of SO shells:              67
      Number of primitives:            131
      Number of atomic orbitals:       147
      Number of basis functions:       141

      Number of irreps:                  1
      Number of functions per irrep: [ 141 ]

      Overlap, kinetic, potential, dipole, and quadrupole integrals
        stored in file 35.

  ==> Integral Setup <==

  ==> DFJK: Density-Fitted J/K Matrices <==

    J tasked:                  Yes
    K tasked:                  Yes
    wK tasked:                  No
    OpenMP threads:              4
    Integrals threads:           4
    Memory (MB):              5006
    Algorithm:                Core
    Integral Cache:           SAVE
    Schwarz Cutoff:          0E+00
    Fitting Condition:       1E-12

   => Auxiliary Basis Set <=

  Basis Set: aug-cc-pvdz-jkfit
    Number of shells: 180
    Number of basis function: 514
    Number of Cartesian functions: 583
    Spherical Harmonics?: true
    Max angular momentum: 3

  Minimum eigenvalue in the overlap matrix is 2.1285281878E-04.
  Using Symmetric Orthogonalization.
  SCF Guess: Core (One-Electron) Hamiltonian.

  Guess energy:  -130.57995517807802

  ==> Iterations <==

                        Total Energy        Delta E     RMS |[F,P]|

   @RHF iter   1:  -147.68480241066169   -1.47685e+02   4.02214e-02 
   @RHF iter   2:  -136.98250978184248    1.07023e+01   3.26796e-02 DIIS
   @RHF iter   3:  -166.52485382569589   -2.95423e+01   2.03171e-02 DIIS
   @RHF iter   4:  -171.02723841989004   -4.50238e+00   7.99317e-03 DIIS
   @RHF iter   5:  -171.54176644441466   -5.14528e-01   3.45485e-03 DIIS
   @RHF iter   6:  -171.64643763717984   -1.04671e-01   9.73326e-04 DIIS
   @RHF iter   7:  -171.65687578317412   -1.04381e-02   3.05635e-04 DIIS
   @RHF iter   8:  -171.65799044196231   -1.11466e-03   7.93884e-05 DIIS
   @RHF iter   9:  -171.65805494365574   -6.45017e-05   2.05632e-05 DIIS
   @RHF iter  10:  -171.65806141167812   -6.46802e-06   5.15321e-06 DIIS
   @RHF iter  11:  -171.65806202806758   -6.16389e-07   8.25969e-07 DIIS
   @RHF iter  12:  -171.65806204542505   -1.73575e-08   1.34143e-07 DIIS
   @RHF iter  13:  -171.65806204586536   -4.40309e-10   2.71611e-08 DIIS
   @RHF iter  14:  -171.65806204588333   -1.79625e-11   4.98907e-09 DIIS

  ==> Post-Iterations <==

	Orbital Energies (a.u.)
	-----------------------

	Doubly Occupied:                                                      

	   1A    -20.770108     2A    -15.865830     3A    -11.467728  
	   4A     -1.555115     5A     -1.485047     6A     -1.145644  
	   7A     -0.958450     8A     -0.946826     9A     -0.911786  
	  10A     -0.835630    11A     -0.791660    12A     -0.752248  
	  13A     -0.739274    14A     -0.707742  

	Virtual:                                                              

	  15A     -0.106830    16A     -0.078318    17A     -0.075237  
	  18A     -0.069540    19A     -0.044656    20A     -0.043473  
	  21A     -0.030943    22A     -0.020889    23A     -0.015352  
	  24A      0.013278    25A      0.029422    26A      0.032295  
	  27A      0.040481    28A      0.042384    29A      0.054415  
	  30A      0.075381    31A      0.078988    32A      0.085162  
	  33A      0.086646    34A      0.113033    35A      0.132091  
	  36A      0.135515    37A      0.151863    38A      0.156047  
	  39A      0.185070    40A      0.200009    41A      0.215167  
	  42A      0.217042    43A      0.230828    44A      0.255821  
	  45A      0.266417    46A      0.283439    47A      0.287743  
	  48A      0.309668    49A      0.315878    50A      0.334910  
	  51A      0.339308    52A      0.358722    53A      0.375195  
	  54A      0.376359    55A      0.401193    56A      0.402786  
	  57A      0.414079    58A      0.427512    59A      0.437666  
	  60A      0.445320    61A      0.470695    62A      0.480777  
	  63A      0.484561    64A      0.502898    65A      0.505741  
	  66A      0.516281    67A      0.555339    68A      0.567945  
	  69A      0.569977    70A      0.581360    71A      0.602936  
	  72A      0.688015    73A      0.696050    74A      0.760453  
	  75A      0.770561    76A      0.793648    77A      0.814303  
	  78A      0.847284    79A      0.857531    80A      0.883746  
	  81A      0.908360    82A      0.916160    83A      0.962115  
	  84A      0.970444    85A      1.040519    86A      1.122237  
	  87A      1.148368    88A      1.152140    89A      1.211073  
	  90A      1.257810    91A      1.342389    92A      1.398581  
	  93A      1.437962    94A      1.449460    95A      1.539244  
	  96A      1.578940    97A      1.696917    98A      1.698916  
	  99A      1.714078   100A      1.735949   101A      1.744520  
	 102A      1.757050   103A      1.844049   104A      1.855450  
	 105A      1.881117   106A      1.912618   107A      1.912655  
	 108A      1.931825   109A      1.986929   110A      2.071269  
	 111A      2.079315   112A      2.119074   113A      2.176356  
	 114A      2.220960   115A      2.241728   116A      2.269393  
	 117A      2.288993   118A      2.329042   119A      2.330149  
	 120A      2.373423   121A      2.455347   122A      2.481822  
	 123A      2.496359   124A      2.507701   125A      2.650822  
	 126A      2.658146   127A      2.685629   128A      2.728955  
	 129A      2.758811   130A      2.773422   131A      2.869176  
	 132A      2.937620   133A      2.965922   134A      3.092744  
	 135A      3.350435   136A      3.501102   137A      3.511085  
	 138A      3.592445   139A      3.681949   140A      3.914875  
	 141A      4.174234  

	Final Occupation by Irrep:
	          A 
	DOCC [    14 ]

  Energy converged.

  @RHF Final Energy:  -171.65806204588333

   => Energetics <=

    Nuclear Repulsion Energy =             89.9743321540144905
    One-Electron Energy =                -405.3986110121371098
    Two-Electron Energy =                 143.7662168122391790
    DFT Exchange-Correlation Energy =       0.0000000000000000
    Empirical Dispersion Energy =           0.0000000000000000
    Total Energy =                       -171.6580620458834687



Properties will be evaluated at   0.000000,   0.000000,   0.000000 Bohr
  ==> Properties <==


Properties computed using the SCF density density matrix
  Nuclear Dipole Moment: (a.u.)
     X:    -1.4453      Y:     0.1798      Z:     0.6916

  Electronic Dipole Moment: (a.u.)
     X:     1.1738      Y:    -0.6351      Z:    -0.9466

  Dipole Moment: (a.u.)
     X:    -0.2715      Y:    -0.4553      Z:    -0.2549     Total:     0.5882

  Dipole Moment: (Debye)
     X:    -0.6900      Y:    -1.1572      Z:    -0.6480     Total:     1.4950


  Saving occupied orbitals to File 180.

  Saving SAPT 2-DIMER file.

*** tstop() called on node37.bme.utexas.edu at Tue Aug 26 20:12:49 2014
Module time:
	user time   =      11.06 seconds =       0.18 minutes
	system time =       0.17 seconds =       0.00 minutes
	total time  =          3 seconds =       0.05 minutes
Total time:
	user time   =      11.06 seconds =       0.18 minutes
	system time =       0.17 seconds =       0.00 minutes
	total time  =          3 seconds =       0.05 minutes

  //>>>>>>>>>>>>>>>>>>>>>>>>>>>>>>>>>>>//
  //            Monomer A HF           //
  //<<<<<<<<<<<<<<<<<<<<<<<<<<<<<<<<<<<//


  No DF_BASIS_SCF auxiliary basis selected, defaulting to aug-cc-pvdz-jkfit


*** tstart() called on node37.bme.utexas.edu
*** at Tue Aug 26 20:12:49 2014


         ---------------------------------------------------------
                                   SCF
            by Justin Turney, Rob Parrish, and Andy Simmonett
                              RHF Reference
                        4 Threads,   7000 MiB Core
         ---------------------------------------------------------

  ==> Geometry <==

    Molecular point group: c1
    Full point group: C1

    Geometry (in Angstrom), charge = 1, multiplicity = 1:

       Center              X                  Y                   Z       
    ------------   -----------------  -----------------  -----------------
           N         -0.783348383406    -0.525627602555    -0.115460651055
           H         -0.849845383406    -1.473188602555     0.252613348945
           H         -1.319523383406    -0.502123602555    -0.981333651055
           H          0.217185616594    -0.333979602555    -0.345476651055
           C         -1.301004383406     0.474176397445     0.868379348945
           H         -1.208906383406     1.460697397445     0.430372348945
           H         -2.338381383406     0.252288397445     1.088617348945
           H         -0.700029383406     0.408579397445     1.767313348945
           O(Gh)      1.759724366594     0.092473497445    -0.597066101055
           H(Gh)      2.105071366594     0.639574497445    -1.308805101055
           H(Gh)      2.541279366594    -0.262152502555    -0.162822101055

  Running in c1 symmetry.

  Nuclear repulsion =   47.987811514604047

  Charge       = 1
  Multiplicity = 1
  Electrons    = 18
  Nalpha       = 9
  Nbeta        = 9

  ==> Algorithm <==

  SCF Algorithm Type is DF.
  DIIS enabled.
  MOM disabled.
  Fractional occupation disabled.
  Guess Type is CORE.
  Energy threshold   = 1.00e-08
  Density threshold  = 1.00e-08
  Integral threshold = 0.00e+00

  ==> Primary Basis <==

  Basis Set: AUG-CC-PVDZ
    Number of shells: 67
    Number of basis function: 141
    Number of Cartesian functions: 147
    Spherical Harmonics?: true
    Max angular momentum: 2

  ==> Pre-Iterations <==

   -------------------------------------------------------
    Irrep   Nso     Nmo     Nalpha   Nbeta   Ndocc  Nsocc
   -------------------------------------------------------
     A        141     141       0       0       0       0
   -------------------------------------------------------
    Total     141     141       9       9       9       0
   -------------------------------------------------------

 OEINTS: Wrapper to libmints.
   by Justin Turney

   Calculation information:
      Number of atoms:                  11
      Number of AO shells:              67
      Number of SO shells:              67
      Number of primitives:            131
      Number of atomic orbitals:       147
      Number of basis functions:       141

      Number of irreps:                  1
      Number of functions per irrep: [ 141 ]

      Overlap, kinetic, potential, dipole, and quadrupole integrals
        stored in file 35.

  ==> Integral Setup <==

  ==> DFJK: Density-Fitted J/K Matrices <==

    J tasked:                  Yes
    K tasked:                  Yes
    wK tasked:                  No
    OpenMP threads:              4
    Integrals threads:           4
    Memory (MB):              5006
    Algorithm:                Core
    Integral Cache:           LOAD
    Schwarz Cutoff:          0E+00
    Fitting Condition:       1E-12

   => Auxiliary Basis Set <=

  Basis Set: aug-cc-pvdz-jkfit
    Number of shells: 180
    Number of basis function: 514
    Number of Cartesian functions: 583
    Spherical Harmonics?: true
    Max angular momentum: 3

  Minimum eigenvalue in the overlap matrix is 2.1285281878E-04.
  Using Symmetric Orthogonalization.
  SCF Guess: Core (One-Electron) Hamiltonian.

  Guess energy:   -71.95548733882717

  ==> Iterations <==

                        Total Energy        Delta E     RMS |[F,P]|

   @RHF iter   1:   -79.37853278350009   -7.93785e+01   3.17497e-02 
   @RHF iter   2:   -76.90201538084692    2.47652e+00   2.35444e-02 DIIS
   @RHF iter   3:   -94.10660053134337   -1.72046e+01   1.24965e-02 DIIS
   @RHF iter   4:   -95.35192234456939   -1.24532e+00   4.64964e-03 DIIS
   @RHF iter   5:   -95.56149945623478   -2.09577e-01   1.69900e-03 DIIS
   @RHF iter   6:   -95.59119389914132   -2.96944e-02   2.06285e-04 DIIS
   @RHF iter   7:   -95.59171800973054   -5.24111e-04   5.07161e-05 DIIS
   @RHF iter   8:   -95.59176466214943   -4.66524e-05   1.12456e-05 DIIS
   @RHF iter   9:   -95.59176795136797   -3.28922e-06   1.97374e-06 DIIS
   @RHF iter  10:   -95.59176803891050   -8.75425e-08   3.17472e-07 DIIS
   @RHF iter  11:   -95.59176804078471   -1.87421e-09   6.09378e-08 DIIS
   @RHF iter  12:   -95.59176804086503   -8.03198e-11   1.21619e-08 DIIS
   @RHF iter  13:   -95.59176804086734   -2.30216e-12   1.41114e-09 DIIS

  ==> Post-Iterations <==

	Orbital Energies (a.u.)
	-----------------------

	Doubly Occupied:                                                      

	   1A    -15.920693     2A    -11.496333     3A     -1.529424  
	   4A     -1.177772     5A     -0.988291     6A     -0.984703  
	   7A     -0.867262     8A     -0.781378     9A     -0.780847  

	Virtual:                                                              

	  10A     -0.127993    11A     -0.086233    12A     -0.085182  
	  13A     -0.082628    14A     -0.047401    15A     -0.046334  
	  16A     -0.037545    17A     -0.031827    18A     -0.027411  
	  19A     -0.013624    20A      0.016447    21A      0.022110  
	  22A      0.026649    23A      0.026824    24A      0.030013  
	  25A      0.051597    26A      0.056457    27A      0.064857  
	  28A      0.071539    29A      0.095181    30A      0.112768  
	  31A      0.125379    32A      0.134026    33A      0.137784  
	  34A      0.186682    35A      0.200598    36A      0.204880  
	  37A      0.227450    38A      0.233937    39A      0.264030  
	  40A      0.265211    41A      0.275979    42A      0.279808  
	  43A      0.304867    44A      0.305831    45A      0.312993  
	  46A      0.328438    47A      0.335099    48A      0.351816  
	  49A      0.371988    50A      0.374804    51A      0.386673  
	  52A      0.393804    53A      0.396657    54A      0.407157  
	  55A      0.421552    56A      0.447654    57A      0.452069  
	  58A      0.461603    59A      0.480460    60A      0.493767  
	  61A      0.500513    62A      0.530746    63A      0.548574  
	  64A      0.564447    65A      0.566569    66A      0.574497  
	  67A      0.645012    68A      0.692630    69A      0.720742  
	  70A      0.725195    71A      0.797881    72A      0.816005  
	  73A      0.846466    74A      0.867221    75A      0.882952  
	  76A      0.910594    77A      0.969006    78A      0.983088  
	  79A      1.057086    80A      1.063128    81A      1.110414  
	  82A      1.112444    83A      1.161062    84A      1.171293  
	  85A      1.218427    86A      1.262945    87A      1.283758  
	  88A      1.342216    89A      1.365253    90A      1.437621  
	  91A      1.515525    92A      1.541003    93A      1.659208  
	  94A      1.673180    95A      1.677019    96A      1.704662  
	  97A      1.715799    98A      1.730459    99A      1.848795  
	 100A      1.875639   101A      1.891117   102A      1.936758  
	 103A      2.026996   104A      2.049228   105A      2.083889  
	 106A      2.100356   107A      2.172824   108A      2.184466  
	 109A      2.210966   110A      2.253836   111A      2.255332  
	 112A      2.284520   113A      2.332663   114A      2.336461  
	 115A      2.404416   116A      2.431664   117A      2.471313  
	 118A      2.507995   119A      2.514434   120A      2.608623  
	 121A      2.643901   122A      2.652312   123A      2.681730  
	 124A      2.862319   125A      2.880997   126A      2.921223  
	 127A      3.003193   128A      3.309139   129A      3.309924  
	 130A      3.727232   131A      3.929916   132A      3.986573  
	 133A      4.770554   134A      4.829196   135A      4.913777  
	 136A      5.150468   137A      5.226904   138A      5.553113  
	 139A      6.700682   140A      6.857461   141A     33.398908  

	Final Occupation by Irrep:
	          A 
	DOCC [     9 ]

  Energy converged.

  @RHF Final Energy:   -95.59176804086734

   => Energetics <=

    Nuclear Repulsion Energy =             47.9878115146040471
    One-Electron Energy =                -218.1057523701766172
    Two-Electron Energy =                  74.5261728147052622
    DFT Exchange-Correlation Energy =       0.0000000000000000
    Empirical Dispersion Energy =           0.0000000000000000
    Total Energy =                        -95.5917680408672936



Properties will be evaluated at   0.000000,   0.000000,   0.000000 Bohr
  ==> Properties <==


Properties computed using the SCF density density matrix
  Nuclear Dipole Moment: (a.u.)
     X:   -36.8288      Y:    -1.9314      Z:    12.4989

  Electronic Dipole Moment: (a.u.)
     X:    35.1961      Y:     1.2611      Z:   -12.4049

  Dipole Moment: (a.u.)
     X:    -1.6327      Y:    -0.6703      Z:     0.0940     Total:     1.7675

  Dipole Moment: (Debye)
     X:    -4.1500      Y:    -1.7037      Z:     0.2390     Total:     4.4924


  Saving occupied orbitals to File 180.

  Saving SAPT 2-MONOMER_A file.

*** tstop() called on node37.bme.utexas.edu at Tue Aug 26 20:12:50 2014
Module time:
	user time   =       5.48 seconds =       0.09 minutes
	system time =       0.07 seconds =       0.00 minutes
	total time  =          1 seconds =       0.02 minutes
Total time:
	user time   =      16.55 seconds =       0.28 minutes
	system time =       0.24 seconds =       0.00 minutes
	total time  =          4 seconds =       0.07 minutes

  //>>>>>>>>>>>>>>>>>>>>>>>>>>>>>>>>>>>//
  //            Monomer B HF           //
  //<<<<<<<<<<<<<<<<<<<<<<<<<<<<<<<<<<<//


  No DF_BASIS_SCF auxiliary basis selected, defaulting to aug-cc-pvdz-jkfit


*** tstart() called on node37.bme.utexas.edu
*** at Tue Aug 26 20:12:50 2014


         ---------------------------------------------------------
                                   SCF
            by Justin Turney, Rob Parrish, and Andy Simmonett
                              RHF Reference
                        4 Threads,   7000 MiB Core
         ---------------------------------------------------------

  ==> Geometry <==

    Molecular point group: c1
    Full point group: C1

    Geometry (in Angstrom), charge = 0, multiplicity = 1:

       Center              X                  Y                   Z       
    ------------   -----------------  -----------------  -----------------
           N(Gh)     -0.783348383406    -0.525627602555    -0.115460651055
           H(Gh)     -0.849845383406    -1.473188602555     0.252613348945
           H(Gh)     -1.319523383406    -0.502123602555    -0.981333651055
           H(Gh)      0.217185616594    -0.333979602555    -0.345476651055
           C(Gh)     -1.301004383406     0.474176397445     0.868379348945
           H(Gh)     -1.208906383406     1.460697397445     0.430372348945
           H(Gh)     -2.338381383406     0.252288397445     1.088617348945
           H(Gh)     -0.700029383406     0.408579397445     1.767313348945
           O          1.759724366594     0.092473497445    -0.597066101055
           H          2.105071366594     0.639574497445    -1.308805101055
           H          2.541279366594    -0.262152502555    -0.162822101055

  Running in c1 symmetry.

  Nuclear repulsion =    9.150325397064465

  Charge       = 0
  Multiplicity = 1
  Electrons    = 10
  Nalpha       = 5
  Nbeta        = 5

  ==> Algorithm <==

  SCF Algorithm Type is DF.
  DIIS enabled.
  MOM disabled.
  Fractional occupation disabled.
  Guess Type is CORE.
  Energy threshold   = 1.00e-08
  Density threshold  = 1.00e-08
  Integral threshold = 0.00e+00

  ==> Primary Basis <==

  Basis Set: AUG-CC-PVDZ
    Number of shells: 67
    Number of basis function: 141
    Number of Cartesian functions: 147
    Spherical Harmonics?: true
    Max angular momentum: 2

  ==> Pre-Iterations <==

   -------------------------------------------------------
    Irrep   Nso     Nmo     Nalpha   Nbeta   Ndocc  Nsocc
   -------------------------------------------------------
     A        141     141       0       0       0       0
   -------------------------------------------------------
    Total     141     141       5       5       5       0
   -------------------------------------------------------

 OEINTS: Wrapper to libmints.
   by Justin Turney

   Calculation information:
      Number of atoms:                  11
      Number of AO shells:              67
      Number of SO shells:              67
      Number of primitives:            131
      Number of atomic orbitals:       147
      Number of basis functions:       141

      Number of irreps:                  1
      Number of functions per irrep: [ 141 ]

      Overlap, kinetic, potential, dipole, and quadrupole integrals
        stored in file 35.

  ==> Integral Setup <==

  ==> DFJK: Density-Fitted J/K Matrices <==

    J tasked:                  Yes
    K tasked:                  Yes
    wK tasked:                  No
    OpenMP threads:              4
    Integrals threads:           4
    Memory (MB):              5006
    Algorithm:                Core
    Integral Cache:           LOAD
    Schwarz Cutoff:          0E+00
    Fitting Condition:       1E-12

   => Auxiliary Basis Set <=

  Basis Set: aug-cc-pvdz-jkfit
    Number of shells: 180
    Number of basis function: 514
    Number of Cartesian functions: 583
    Spherical Harmonics?: true
    Max angular momentum: 3

  Minimum eigenvalue in the overlap matrix is 2.1285281878E-04.
  Using Symmetric Orthogonalization.
  SCF Guess: Core (One-Electron) Hamiltonian.

  Guess energy:   -58.70559206508129

  ==> Iterations <==

                        Total Energy        Delta E     RMS |[F,P]|

   @RHF iter   1:   -68.29109680085131   -6.82911e+01   2.47187e-02 
   @RHF iter   2:   -64.99720151101647    3.29390e+00   1.84662e-02 DIIS
   @RHF iter   3:   -74.97451120759744   -9.97731e+00   1.16651e-02 DIIS
   @RHF iter   4:   -75.82026550331923   -8.45754e-01   5.10595e-03 DIIS
   @RHF iter   5:   -76.04029298606766   -2.20027e-01   4.35643e-04 DIIS
   @RHF iter   6:   -76.04151554503544   -1.22256e-03   1.96283e-04 DIIS
   @RHF iter   7:   -76.04177778725513   -2.62242e-04   2.20438e-05 DIIS
   @RHF iter   8:   -76.04178262795671   -4.84070e-06   3.77988e-06 DIIS
   @RHF iter   9:   -76.04178285790820   -2.29951e-07   8.46654e-07 DIIS
   @RHF iter  10:   -76.04178286664292   -8.73472e-09   1.71279e-07 DIIS
   @RHF iter  11:   -76.04178286700659   -3.63670e-10   1.39495e-08 DIIS
   @RHF iter  12:   -76.04178286701071   -4.12115e-12   3.11143e-09 DIIS

  ==> Post-Iterations <==

	Orbital Energies (a.u.)
	-----------------------

	Doubly Occupied:                                                      

	   1A    -20.578152     2A     -1.354095     3A     -0.716759  
	   4A     -0.584300     5A     -0.508685  

	Virtual:                                                              

	   6A      0.027680     7A      0.042539     8A      0.051444  
	   9A      0.056686    10A      0.072248    11A      0.072782  
	  12A      0.086645    13A      0.104386    14A      0.121681  
	  15A      0.135759    16A      0.159390    17A      0.160543  
	  18A      0.179809    19A      0.188094    20A      0.200060  
	  21A      0.226732    22A      0.234892    23A      0.235502  
	  24A      0.245449    25A      0.293693    26A      0.316354  
	  27A      0.321377    28A      0.354681    29A      0.355763  
	  30A      0.375387    31A      0.376615    32A      0.420725  
	  33A      0.424193    34A      0.429173    35A      0.440063  
	  36A      0.447280    37A      0.460732    38A      0.477329  
	  39A      0.489290    40A      0.495081    41A      0.497383  
	  42A      0.549159    43A      0.552524    44A      0.559210  
	  45A      0.571094    46A      0.600092    47A      0.613049  
	  48A      0.642566    49A      0.652001    50A      0.662858  
	  51A      0.675303    52A      0.697004    53A      0.702933  
	  54A      0.713400    55A      0.728385    56A      0.761937  
	  57A      0.762814    58A      0.781749    59A      0.841057  
	  60A      0.845327    61A      0.869756    62A      0.880101  
	  63A      0.890105    64A      0.932259    65A      0.958403  
	  66A      0.976433    67A      0.989838    68A      1.002175  
	  69A      1.062152    70A      1.103175    71A      1.119321  
	  72A      1.161153    73A      1.167457    74A      1.202376  
	  75A      1.255116    76A      1.295737    77A      1.301788  
	  78A      1.334421    79A      1.375539    80A      1.444208  
	  81A      1.464449    82A      1.650404    83A      1.674382  
	  84A      1.892809    85A      1.962736    86A      2.009825  
	  87A      2.031050    88A      2.045291    89A      2.108638  
	  90A      2.155104    91A      2.226695    92A      2.266857  
	  93A      2.278190    94A      2.286575    95A      2.347101  
	  96A      2.364950    97A      2.374209    98A      2.403412  
	  99A      2.419660   100A      2.502149   101A      2.515673  
	 102A      2.551416   103A      2.555661   104A      2.616265  
	 105A      2.622615   106A      2.624030   107A      2.697216  
	 108A      2.814372   109A      2.846059   110A      2.854528  
	 111A      2.898621   112A      2.954487   113A      2.978159  
	 114A      3.006150   115A      3.050270   116A      3.089992  
	 117A      3.232916   118A      3.397989   119A      3.419706  
	 120A      3.513564   121A      3.524282   122A      3.690933  
	 123A      3.708867   124A      3.735487   125A      3.798006  
	 126A      3.834905   127A      3.910584   128A      3.921358  
	 129A      4.076800   130A      4.106031   131A      4.305597  
	 132A      4.385468   133A      4.496170   134A      4.946559  
	 135A      5.195268   136A      5.203402   137A      5.698631  
	 138A      6.069007   139A      6.195938   140A     18.538068  
	 141A     25.526357  

	Final Occupation by Irrep:
	          A 
	DOCC [     5 ]

  Energy converged.

  @RHF Final Energy:   -76.04178286701071

   => Energetics <=

    Nuclear Repulsion Energy =              9.1503253970644653
    One-Electron Energy =                -122.9002356353080074
    Two-Electron Energy =                  37.7081273712328198
    DFT Exchange-Correlation Energy =       0.0000000000000000
    Empirical Dispersion Energy =           0.0000000000000000
    Total Energy =                        -76.0417828670107241



Properties will be evaluated at   0.000000,   0.000000,   0.000000 Bohr
  ==> Properties <==


Properties computed using the SCF density density matrix
  Nuclear Dipole Moment: (a.u.)
     X:    35.3835      Y:     2.1112      Z:   -11.8073

  Electronic Dipole Moment: (a.u.)
     X:   -34.6344      Y:    -1.9834      Z:    11.6228

  Dipole Moment: (a.u.)
     X:     0.7491      Y:     0.1279      Z:    -0.1845     Total:     0.7820

  Dipole Moment: (Debye)
     X:     1.9040      Y:     0.3250      Z:    -0.4690     Total:     1.9877


  Saving occupied orbitals to File 180.

  Saving SAPT 2-MONOMER_B file.

*** tstop() called on node37.bme.utexas.edu at Tue Aug 26 20:12:52 2014
Module time:
	user time   =       4.54 seconds =       0.08 minutes
	system time =       0.08 seconds =       0.00 minutes
	total time  =          2 seconds =       0.03 minutes
Total time:
	user time   =      21.16 seconds =       0.35 minutes
	system time =       0.33 seconds =       0.01 minutes
	total time  =          6 seconds =       0.10 minutes
  No DF_BASIS_SAPT auxiliary basis selected, defaulting to aug-cc-pvdz-ri

  //>>>>>>>>>>>>>>>>>>>>>>>>>>>>>>>>>>>//
  //               SAPT2+              //
  //<<<<<<<<<<<<<<<<<<<<<<<<<<<<<<<<<<<//


*** tstart() called on node37.bme.utexas.edu
*** at Tue Aug 26 20:12:52 2014

        SAPT2+  
    Ed Hohenstein
     6 June 2009

      Orbital Information
  --------------------------
    NSO        =       141
    NMO        =       141
    NRI        =       400
    NOCC A     =         9
    NOCC B     =         5
    FOCC A     =         2
    FOCC B     =         1
    NVIR A     =       132
    NVIR B     =       136

    Estimated memory usage: 95.1 MB

    Elst10,r            =    -0.039925230914 H
    Exch10 (S^2)        =     0.032628296285 H
    Exch10              =     0.033259911223 H
    Ind20,r (A<-B)      =    -0.004164239545 H
    Ind20,r (B<-A)      =    -0.015641016967 H
    Ind20,r             =    -0.019805256513 H
    Exch-Ind20,r (A<-B) =     0.003099622864 H
    Exch-Ind20,r (B<-A) =     0.005360538121 H
    Exch-Ind20,r        =     0.008460160986 H
    Disp20              =    -0.007591184330 H
    Exch-Disp20         =     0.001284011745 H
    Elst12,r            =     0.001752241825 H
    Exch11              =     0.000136212694 H
    Exch12              =     0.003127146049 H
    Ind22               =    -0.002116137349 H
    Disp21              =     0.000469482766 H
    Disp22 (SDQ)        =    -0.000066919536 H

    (i =   1 of   4)          5 seconds
    (i =   2 of   4)         11 seconds
    (i =   3 of   4)         17 seconds
    (i =   4 of   4)         21 seconds

    Disp220 (T)         =    -0.000437013941 H

    (i =   1 of   7)          2 seconds
    (i =   2 of   7)          5 seconds
    (i =   3 of   7)          7 seconds
    (i =   4 of   7)         10 seconds
    (i =   5 of   7)         12 seconds
    (i =   6 of   7)         15 seconds
    (i =   7 of   7)         18 seconds

    Disp202 (T)         =    -0.000514274440 H

    Disp22 (T)          =    -0.000951288382 H

    SAPT Results  
  -----------------------------------------------------------------------
    Electrostatics         -38.17298909 mH     -23.95391330 kcal mol^-1
      Elst10,r             -39.92523091 mH     -25.05346169 kcal mol^-1
      Elst12,r               1.75224183 mH       1.09954839 kcal mol^-1

    Exchange                36.52326997 mH      22.91869887 kcal mol^-1
      Exch10                33.25991122 mH      20.87091026 kcal mol^-1
      Exch10(S^2)           32.62829629 mH      20.47456589 kcal mol^-1
      Exch11(S^2)            0.13621269 mH       0.08547476 kcal mol^-1
      Exch12(S^2)            3.12714605 mH       1.96231385 kcal mol^-1

    Induction              -19.05801066 mH     -11.95908274 kcal mol^-1
      Ind20,r              -19.80525651 mH     -12.42798661 kcal mol^-1
      Ind22                 -2.11613735 mH      -1.32789629 kcal mol^-1
      Exch-Ind20,r           8.46016099 mH       5.30883139 kcal mol^-1
      Exch-Ind22             0.90394500 mH       0.56723408 kcal mol^-1
      delta HF,r (2)        -6.50072279 mH      -4.07926531 kcal mol^-1

    Dispersion              -6.85589774 mH      -4.30214096 kcal mol^-1
      Disp20                -7.59118433 mH      -4.76354028 kcal mol^-1
      Disp21                 0.46948277 mH       0.29460490 kcal mol^-1
      Disp22 (SDQ)          -0.06691954 mH      -0.04199264 kcal mol^-1
      Disp22 (T)            -0.95128838 mH      -0.59694250 kcal mol^-1
      Exch-Disp20            1.28401175 mH       0.80572957 kcal mol^-1

    Total HF               -24.51113801 mH     -15.38097195 kcal mol^-1
    Total SAPT0            -30.81831059 mH     -19.33878267 kcal mol^-1
    Total SAPT2            -27.01490237 mH     -16.95210788 kcal mol^-1
    Total SAPT2+           -27.56362752 mH     -17.29643812 kcal mol^-1

*** tstop() called on node37.bme.utexas.edu at Tue Aug 26 20:13:54 2014
Module time:
	user time   =     238.69 seconds =       3.98 minutes
	system time =       3.78 seconds =       0.06 minutes
	total time  =         62 seconds =       1.03 minutes
Total time:
	user time   =     259.86 seconds =       4.33 minutes
	system time =       4.11 seconds =       0.07 minutes
	total time  =         68 seconds =       1.13 minutes

*** PSI4 exiting successfully. Buy a developer a beer!
