    -----------------------------------------------------------------------
          PSI4: An Open-Source Ab Initio Electronic Structure Package
                              PSI 4.0.0-beta4 Driver

    J. M. Turney, A. C. Simmonett, R. M. Parrish, E. G. Hohenstein,
    F. A. Evangelista, J. T. Fermann, B. J. Mintz, L. A. Burns, J. J. Wilke,
    M. L. Abrams, N. J. Russ, M. L. Leininger, C. L. Janssen, E. T. Seidl,
    W. D. Allen, H. F. Schaefer, R. A. King, E. F. Valeev, C. D. Sherrill,
    and T. D. Crawford, WIREs Comput. Mol. Sci., (2011) (doi: 10.1002/wcms.93)

                         Additional Contributions by
    A. E. DePrince, M. Saitow, U. Bozkaya, A. Yu. Sokolov
    -----------------------------------------------------------------------

    Process ID:  14614
    PSI4DATADIR: /home/xzhu216/psi4/psi4-install/share/psi

    Using LocalCommunicator (Number of processes = 1)

    Memory level set to 256.000 MB

  ==> Input File <==

--------------------------------------------------------------------------
#psi4
#
memory 7 gb

molecule ImidazolePlus_Water {
1 1
    C    -3.719509000    -0.009372000     0.031827000
    C    -2.658058000    -0.870707000     0.104485000
    N    -1.521489000    -0.112432000     0.004909000
    C    -1.848695000     1.171982000    -0.125030000
    N    -3.184323000     1.244973000    -0.109768000
    H    -3.709716000     2.103605000    -0.191360000
    H    -0.548997000    -0.468427000     0.025751000
    H    -4.778047000    -0.186573000     0.068733000
    H    -2.630335000    -1.938369000     0.216692000
    H    -1.167957000     1.997303000    -0.223838000
--
0 1
    O     0.740751000    -0.903491800     0.049503000
    H     1.289978000    -1.058655800     0.822935000
    H     1.264084000    -1.218536800    -0.692651000
units angstrom
no_reorient  #important for SAPT in psi4, default
symmetry c1  #important for SAPT in psi4, default
}

set {
basis aug-cc-pVDZ
scf_type DF
freeze_core True
}
energy('sapt2+')
--------------------------------------------------------------------------

  Memory set to   7.000 GiB by Python script.

  //>>>>>>>>>>>>>>>>>>>>>>>>>>>>>>>>>>>//
  //              Dimer HF             //
  //<<<<<<<<<<<<<<<<<<<<<<<<<<<<<<<<<<<//


  No DF_BASIS_SCF auxiliary basis selected, defaulting to aug-cc-pvdz-jkfit


*** tstart() called on node32.bme.utexas.edu
*** at Tue Aug 26 20:27:06 2014


         ---------------------------------------------------------
                                   SCF
            by Justin Turney, Rob Parrish, and Andy Simmonett
                              RHF Reference
                        4 Threads,   7000 MiB Core
         ---------------------------------------------------------

  ==> Geometry <==

    Molecular point group: c1
    Full point group: C1

    Geometry (in Angstrom), charge = 1, multiplicity = 1:

       Center              X                  Y                   Z       
    ------------   -----------------  -----------------  -----------------
           C         -1.845721189928    -0.056869573670     0.037739303992
           C         -0.784270189928    -0.918204573670     0.110397303992
           N          0.352298810072    -0.159929573670     0.010821303992
           C          0.025092810072     1.124484426330    -0.119117696008
           N         -1.310535189928     1.197475426330    -0.103855696008
           H         -1.835928189928     2.056107426330    -0.185447696008
           H          1.324790810072    -0.515924573670     0.031663303992
           H         -2.904259189928    -0.234070573670     0.074645303992
           H         -0.756547189928    -1.985866573670     0.222604303992
           H          0.705830810072     1.949805426330    -0.217925696008
           O          2.614538810072    -0.950989373670     0.055415303992
           H          3.163765810072    -1.106153373670     0.828847303992
           H          3.137871810072    -1.266034373670    -0.686738696008

  Running in c1 symmetry.

  Nuclear repulsion =  238.791630190246167

  Charge       = 1
  Multiplicity = 1
  Electrons    = 46
  Nalpha       = 23
  Nbeta        = 23

  ==> Algorithm <==

  SCF Algorithm Type is DF.
  DIIS enabled.
  MOM disabled.
  Fractional occupation disabled.
  Guess Type is CORE.
  Energy threshold   = 1.00e-08
  Density threshold  = 1.00e-08
  Integral threshold = 0.00e+00

  ==> Primary Basis <==

  Basis Set: AUG-CC-PVDZ
    Number of shells: 89
    Number of basis function: 201
    Number of Cartesian functions: 213
    Spherical Harmonics?: true
    Max angular momentum: 2

  ==> Pre-Iterations <==

   -------------------------------------------------------
    Irrep   Nso     Nmo     Nalpha   Nbeta   Ndocc  Nsocc
   -------------------------------------------------------
     A        201     201       0       0       0       0
   -------------------------------------------------------
    Total     201     201      23      23      23       0
   -------------------------------------------------------

 OEINTS: Wrapper to libmints.
   by Justin Turney

   Calculation information:
      Number of atoms:                  13
      Number of AO shells:              89
      Number of SO shells:              89
      Number of primitives:            199
      Number of atomic orbitals:       213
      Number of basis functions:       201

      Number of irreps:                  1
      Number of functions per irrep: [ 201 ]

      Overlap, kinetic, potential, dipole, and quadrupole integrals
        stored in file 35.

  ==> Integral Setup <==

  ==> DFJK: Density-Fitted J/K Matrices <==

    J tasked:                  Yes
    K tasked:                  Yes
    wK tasked:                  No
    OpenMP threads:              4
    Integrals threads:           4
    Memory (MB):              5006
    Algorithm:                Core
    Integral Cache:           SAVE
    Schwarz Cutoff:          0E+00
    Fitting Condition:       1E-12

   => Auxiliary Basis Set <=

  Basis Set: aug-cc-pvdz-jkfit
    Number of shells: 252
    Number of basis function: 740
    Number of Cartesian functions: 851
    Spherical Harmonics?: true
    Max angular momentum: 3

  Minimum eigenvalue in the overlap matrix is 1.4658176241E-05.
  Using Symmetric Orthogonalization.
  SCF Guess: Core (One-Electron) Hamiltonian.

  Guess energy:  -231.67390453817814

  ==> Iterations <==

                        Total Energy        Delta E     RMS |[F,P]|

   @RHF iter   1:  -240.43648053772296   -2.40436e+02   3.50402e-02 
   @RHF iter   2:  -127.76363792680462    1.12673e+02   5.50852e-02 DIIS
   @RHF iter   3:  -249.12838444297455   -1.21365e+02   3.49630e-02 DIIS
   @RHF iter   4:  -271.92881488341590   -2.28004e+01   2.93399e-02 DIIS
   @RHF iter   5:  -300.56966418719190   -2.86408e+01   6.24404e-03 DIIS
   @RHF iter   6:  -301.06603644752585   -4.96372e-01   3.47980e-03 DIIS
   @RHF iter   7:  -301.27000631181903   -2.03970e-01   3.53124e-04 DIIS
   @RHF iter   8:  -301.27443659208501   -4.43028e-03   1.94801e-04 DIIS
   @RHF iter   9:  -301.27549078857732   -1.05420e-03   6.51215e-05 DIIS
   @RHF iter  10:  -301.27580264999443   -3.11861e-04   2.83540e-05 DIIS
   @RHF iter  11:  -301.27587258864384   -6.99386e-05   9.90369e-06 DIIS
   @RHF iter  12:  -301.27588116641385   -8.57777e-06   3.79040e-06 DIIS
   @RHF iter  13:  -301.27588198001359   -8.13600e-07   9.57426e-07 DIIS
   @RHF iter  14:  -301.27588203984186   -5.98283e-08   2.53789e-07 DIIS
   @RHF iter  15:  -301.27588204317743   -3.33557e-09   7.62425e-08 DIIS
   @RHF iter  16:  -301.27588204347973   -3.02293e-10   3.63908e-08 DIIS
   @RHF iter  17:  -301.27588204354646   -6.67342e-11   1.34915e-08 DIIS
   @RHF iter  18:  -301.27588204356124   -1.47793e-11   4.97785e-09 DIIS

  ==> Post-Iterations <==

	Orbital Energies (a.u.)
	-----------------------

	Doubly Occupied:                                                      

	   1A    -20.770240     2A    -15.826601     3A    -15.795990  
	   4A    -11.520540     5A    -11.452216     6A    -11.447744  
	   7A     -1.571981     8A     -1.557944     9A     -1.398656  
	  10A     -1.216954    11A     -1.071720    12A     -1.017556  
	  13A     -0.967291    14A     -0.918299    15A     -0.906078  
	  16A     -0.808789    17A     -0.806742    18A     -0.793672  
	  19A     -0.786157    20A     -0.731341    21A     -0.715218  
	  22A     -0.626228    23A     -0.512959  

	Virtual:                                                              

	  24A     -0.086982    25A     -0.073865    26A     -0.059482  
	  27A     -0.057487    28A     -0.046515    29A     -0.039880  
	  30A     -0.038037    31A     -0.027867    32A     -0.009399  
	  33A     -0.004601    34A      0.000824    35A      0.013854  
	  36A      0.016721    37A      0.022305    38A      0.032713  
	  39A      0.045602    40A      0.046883    41A      0.050277  
	  42A      0.058198    43A      0.065391    44A      0.078396  
	  45A      0.088888    46A      0.092892    47A      0.101287  
	  48A      0.105988    49A      0.116366    50A      0.124124  
	  51A      0.139168    52A      0.149829    53A      0.158057  
	  54A      0.162954    55A      0.182366    56A      0.191856  
	  57A      0.199180    58A      0.228646    59A      0.239012  
	  60A      0.242350    61A      0.243873    62A      0.245151  
	  63A      0.258717    64A      0.260279    65A      0.268361  
	  66A      0.286943    67A      0.304126    68A      0.321943  
	  69A      0.323618    70A      0.344390    71A      0.353566  
	  72A      0.354424    73A      0.383310    74A      0.388246  
	  75A      0.405170    76A      0.410219    77A      0.413796  
	  78A      0.423231    79A      0.423442    80A      0.433772  
	  81A      0.448459    82A      0.451144    83A      0.466351  
	  84A      0.490771    85A      0.496808    86A      0.500893  
	  87A      0.508812    88A      0.522103    89A      0.527467  
	  90A      0.535852    91A      0.543672    92A      0.559630  
	  93A      0.565027    94A      0.570889    95A      0.601716  
	  96A      0.608592    97A      0.652672    98A      0.671764  
	  99A      0.677858   100A      0.677966   101A      0.684005  
	 102A      0.696474   103A      0.720357   104A      0.728200  
	 105A      0.759870   106A      0.775513   107A      0.783786  
	 108A      0.834979   109A      0.845621   110A      0.854284  
	 111A      0.860131   112A      0.874423   113A      0.891019  
	 114A      0.896254   115A      0.940256   116A      0.956268  
	 117A      0.979442   118A      0.988540   119A      1.001617  
	 120A      1.017247   121A      1.049036   122A      1.060920  
	 123A      1.103919   124A      1.133960   125A      1.165739  
	 126A      1.244253   127A      1.267233   128A      1.305609  
	 129A      1.328052   130A      1.370123   131A      1.382959  
	 132A      1.388805   133A      1.415897   134A      1.417064  
	 135A      1.447041   136A      1.483233   137A      1.521068  
	 138A      1.528432   139A      1.534641   140A      1.589882  
	 141A      1.602448   142A      1.614137   143A      1.631096  
	 144A      1.710797   145A      1.713170   146A      1.768598  
	 147A      1.788075   148A      1.816320   149A      1.844680  
	 150A      1.873128   151A      1.900143   152A      1.911791  
	 153A      1.935768   154A      1.962533   155A      1.964906  
	 156A      1.986596   157A      2.002004   158A      2.047185  
	 159A      2.051686   160A      2.102518   161A      2.129164  
	 162A      2.147357   163A      2.205250   164A      2.230162  
	 165A      2.315691   166A      2.341642   167A      2.355910  
	 168A      2.359293   169A      2.386757   170A      2.390734  
	 171A      2.416527   172A      2.484841   173A      2.489296  
	 174A      2.563290   175A      2.572410   176A      2.581504  
	 177A      2.599292   178A      2.635291   179A      2.643960  
	 180A      2.696747   181A      2.738971   182A      2.755518  
	 183A      2.782268   184A      2.842311   185A      2.867396  
	 186A      2.908726   187A      2.937456   188A      2.939614  
	 189A      3.080115   190A      3.112027   191A      3.169992  
	 192A      3.197218   193A      3.223683   194A      3.388056  
	 195A      3.505304   196A      3.656427   197A      3.733753  
	 198A      3.892430   199A      3.960244   200A      4.160017  
	 201A      4.286627  

	Final Occupation by Irrep:
	          A 
	DOCC [    23 ]

  Energy converged.

  @RHF Final Energy:  -301.27588204356124

   => Energetics <=

    Nuclear Repulsion Energy =            238.7916301902461669
    One-Electron Energy =                -873.6931933006389954
    Two-Electron Energy =                 333.6256810668310209
    DFT Exchange-Correlation Energy =       0.0000000000000000
    Empirical Dispersion Energy =           0.0000000000000000
    Total Energy =                       -301.2758820435617508



Properties will be evaluated at   0.000000,   0.000000,   0.000000 Bohr
  ==> Properties <==


Properties computed using the SCF density density matrix
  Nuclear Dipole Moment: (a.u.)
     X:     2.6736      Y:    -1.0408      Z:     0.0640

  Electronic Dipole Moment: (a.u.)
     X:    -1.9338      Y:     1.3696      Z:    -0.1113

  Dipole Moment: (a.u.)
     X:     0.7397      Y:     0.3288      Z:    -0.0474     Total:     0.8109

  Dipole Moment: (Debye)
     X:     1.8802      Y:     0.8357      Z:    -0.1204     Total:     2.0611


  Saving occupied orbitals to File 180.

  Saving SAPT 2-DIMER file.

*** tstop() called on node32.bme.utexas.edu at Tue Aug 26 20:27:19 2014
Module time:
	user time   =      48.27 seconds =       0.80 minutes
	system time =       0.53 seconds =       0.01 minutes
	total time  =         13 seconds =       0.22 minutes
Total time:
	user time   =      48.27 seconds =       0.80 minutes
	system time =       0.53 seconds =       0.01 minutes
	total time  =         13 seconds =       0.22 minutes

  //>>>>>>>>>>>>>>>>>>>>>>>>>>>>>>>>>>>//
  //            Monomer A HF           //
  //<<<<<<<<<<<<<<<<<<<<<<<<<<<<<<<<<<<//


  No DF_BASIS_SCF auxiliary basis selected, defaulting to aug-cc-pvdz-jkfit


*** tstart() called on node32.bme.utexas.edu
*** at Tue Aug 26 20:27:19 2014


         ---------------------------------------------------------
                                   SCF
            by Justin Turney, Rob Parrish, and Andy Simmonett
                              RHF Reference
                        4 Threads,   7000 MiB Core
         ---------------------------------------------------------

  ==> Geometry <==

    Molecular point group: c1
    Full point group: C1

    Geometry (in Angstrom), charge = 1, multiplicity = 1:

       Center              X                  Y                   Z       
    ------------   -----------------  -----------------  -----------------
           C         -1.845721189928    -0.056869573670     0.037739303992
           C         -0.784270189928    -0.918204573670     0.110397303992
           N          0.352298810072    -0.159929573670     0.010821303992
           C          0.025092810072     1.124484426330    -0.119117696008
           N         -1.310535189928     1.197475426330    -0.103855696008
           H         -1.835928189928     2.056107426330    -0.185447696008
           H          1.324790810072    -0.515924573670     0.031663303992
           H         -2.904259189928    -0.234070573670     0.074645303992
           H         -0.756547189928    -1.985866573670     0.222604303992
           H          0.705830810072     1.949805426330    -0.217925696008
           O(Gh)      2.614538810072    -0.950989373670     0.055415303992
           H(Gh)      3.163765810072    -1.106153373670     0.828847303992
           H(Gh)      3.137871810072    -1.266034373670    -0.686738696008

  Running in c1 symmetry.

  Nuclear repulsion =  173.244282900312271

  Charge       = 1
  Multiplicity = 1
  Electrons    = 36
  Nalpha       = 18
  Nbeta        = 18

  ==> Algorithm <==

  SCF Algorithm Type is DF.
  DIIS enabled.
  MOM disabled.
  Fractional occupation disabled.
  Guess Type is CORE.
  Energy threshold   = 1.00e-08
  Density threshold  = 1.00e-08
  Integral threshold = 0.00e+00

  ==> Primary Basis <==

  Basis Set: AUG-CC-PVDZ
    Number of shells: 89
    Number of basis function: 201
    Number of Cartesian functions: 213
    Spherical Harmonics?: true
    Max angular momentum: 2

  ==> Pre-Iterations <==

   -------------------------------------------------------
    Irrep   Nso     Nmo     Nalpha   Nbeta   Ndocc  Nsocc
   -------------------------------------------------------
     A        201     201       0       0       0       0
   -------------------------------------------------------
    Total     201     201      18      18      18       0
   -------------------------------------------------------

 OEINTS: Wrapper to libmints.
   by Justin Turney

   Calculation information:
      Number of atoms:                  13
      Number of AO shells:              89
      Number of SO shells:              89
      Number of primitives:            199
      Number of atomic orbitals:       213
      Number of basis functions:       201

      Number of irreps:                  1
      Number of functions per irrep: [ 201 ]

      Overlap, kinetic, potential, dipole, and quadrupole integrals
        stored in file 35.

  ==> Integral Setup <==

  ==> DFJK: Density-Fitted J/K Matrices <==

    J tasked:                  Yes
    K tasked:                  Yes
    wK tasked:                  No
    OpenMP threads:              4
    Integrals threads:           4
    Memory (MB):              5006
    Algorithm:                Core
    Integral Cache:           LOAD
    Schwarz Cutoff:          0E+00
    Fitting Condition:       1E-12

   => Auxiliary Basis Set <=

  Basis Set: aug-cc-pvdz-jkfit
    Number of shells: 252
    Number of basis function: 740
    Number of Cartesian functions: 851
    Spherical Harmonics?: true
    Max angular momentum: 3

  Minimum eigenvalue in the overlap matrix is 1.4658176241E-05.
  Using Symmetric Orthogonalization.
  SCF Guess: Core (One-Electron) Hamiltonian.

  Guess energy:  -170.42327421620803

  ==> Iterations <==

                        Total Energy        Delta E     RMS |[F,P]|

   @RHF iter   1:  -191.65846735690735   -1.91658e+02   2.90807e-02 
   @RHF iter   2:  -168.28195865687900    2.33765e+01   2.67512e-02 DIIS
   @RHF iter   3:  -213.08840716315353   -4.48064e+01   2.08962e-02 DIIS
   @RHF iter   4:  -223.70920437394619   -1.06208e+01   8.40327e-03 DIIS
   @RHF iter   5:  -224.90959419731428   -1.20039e+00   3.55684e-03 DIIS
   @RHF iter   6:  -225.18306004147712   -2.73466e-01   1.11401e-03 DIIS
   @RHF iter   7:  -225.22254473941786   -3.94847e-02   2.64519e-04 DIIS
   @RHF iter   8:  -225.22444941056244   -1.90467e-03   8.61962e-05 DIIS
   @RHF iter   9:  -225.22476532625797   -3.15916e-04   3.88608e-05 DIIS
   @RHF iter  10:  -225.22484388786199   -7.85616e-05   1.85561e-05 DIIS
   @RHF iter  11:  -225.22486140845291   -1.75206e-05   7.47861e-06 DIIS
   @RHF iter  12:  -225.22486488186587   -3.47341e-06   1.78941e-06 DIIS
   @RHF iter  13:  -225.22486510184450   -2.19979e-07   3.79265e-07 DIIS
   @RHF iter  14:  -225.22486510908408   -7.23958e-09   1.17175e-07 DIIS
   @RHF iter  15:  -225.22486510957134   -4.87262e-10   3.06468e-08 DIIS
   @RHF iter  16:  -225.22486510961085   -3.95062e-11   6.04145e-09 DIIS

  ==> Post-Iterations <==

	Orbital Energies (a.u.)
	-----------------------

	Doubly Occupied:                                                      

	   1A    -15.860878     2A    -15.858390     3A    -11.558506  
	   4A    -11.482026     5A    -11.480446     6A     -1.601224  
	   7A     -1.437630     8A     -1.250031     9A     -1.099595  
	  10A     -1.050557    11A     -0.995211    12A     -0.899478  
	  13A     -0.843347    14A     -0.836975    15A     -0.819250  
	  16A     -0.805698    17A     -0.666853    18A     -0.543077  

	Virtual:                                                              

	  19A     -0.097114    20A     -0.080661    21A     -0.074810  
	  22A     -0.069009    23A     -0.050645    24A     -0.048476  
	  25A     -0.046658    26A     -0.033471    27A     -0.031509  
	  28A     -0.012727    29A     -0.012369    30A     -0.000990  
	  31A      0.004273    32A      0.009129    33A      0.019622  
	  34A      0.033058    35A      0.036788    36A      0.038437  
	  37A      0.045276    38A      0.056356    39A      0.066139  
	  40A      0.074008    41A      0.075225    42A      0.083734  
	  43A      0.089561    44A      0.107567    45A      0.116035  
	  46A      0.129856    47A      0.135866    48A      0.140761  
	  49A      0.152267    50A      0.169006    51A      0.177361  
	  52A      0.204150    53A      0.204366    54A      0.223122  
	  55A      0.227824    56A      0.230634    57A      0.250645  
	  58A      0.269565    59A      0.279793    60A      0.284754  
	  61A      0.287652    62A      0.296666    63A      0.305686  
	  64A      0.309338    65A      0.313138    66A      0.330356  
	  67A      0.339493    68A      0.357872    69A      0.366904  
	  70A      0.381302    71A      0.384414    72A      0.399886  
	  73A      0.408754    74A      0.409745    75A      0.415553  
	  76A      0.419996    77A      0.441722    78A      0.456141  
	  79A      0.456790    80A      0.473930    81A      0.481685  
	  82A      0.483573    83A      0.509406    84A      0.513039  
	  85A      0.517023    86A      0.525709    87A      0.528447  
	  88A      0.542494    89A      0.577235    90A      0.585808  
	  91A      0.588908    92A      0.618852    93A      0.628315  
	  94A      0.645390    95A      0.659569    96A      0.666047  
	  97A      0.681387    98A      0.690112    99A      0.706249  
	 100A      0.748126   101A      0.750820   102A      0.787759  
	 103A      0.822193   104A      0.829296   105A      0.848435  
	 106A      0.865466   107A      0.867120   108A      0.916287  
	 109A      0.919179   110A      0.934970   111A      0.951787  
	 112A      0.972492   113A      1.019395   114A      1.020605  
	 115A      1.044750   116A      1.066849   117A      1.073915  
	 118A      1.115119   119A      1.125814   120A      1.162945  
	 121A      1.192301   122A      1.206764   123A      1.212978  
	 124A      1.249393   125A      1.281927   126A      1.347498  
	 127A      1.364042   128A      1.377894   129A      1.395637  
	 130A      1.419502   131A      1.440900   132A      1.444912  
	 133A      1.494086   134A      1.504215   135A      1.528524  
	 136A      1.557364   137A      1.575599   138A      1.591650  
	 139A      1.604138   140A      1.683389   141A      1.688747  
	 142A      1.717420   143A      1.781118   144A      1.809908  
	 145A      1.840841   146A      1.901257   147A      1.904419  
	 148A      1.911388   149A      1.940800   150A      1.948813  
	 151A      2.001179   152A      2.007989   153A      2.026087  
	 154A      2.062373   155A      2.095857   156A      2.143888  
	 157A      2.202245   158A      2.234291   159A      2.279391  
	 160A      2.302385   161A      2.338498   162A      2.346254  
	 163A      2.364008   164A      2.371496   165A      2.401130  
	 166A      2.412932   167A      2.450463   168A      2.452896  
	 169A      2.538831   170A      2.539693   171A      2.558059  
	 172A      2.584092   173A      2.615543   174A      2.669542  
	 175A      2.708539   176A      2.718145   177A      2.789611  
	 178A      2.815763   179A      2.829320   180A      2.868240  
	 181A      2.938616   182A      2.995808   183A      3.091660  
	 184A      3.133306   185A      3.179774   186A      3.222111  
	 187A      3.350667   188A      3.772416   189A      3.892445  
	 190A      3.953537   191A      4.005736   192A      4.037886  
	 193A      4.769845   194A      4.888693   195A      5.102962  
	 196A      5.212098   197A      5.217860   198A      5.705904  
	 199A      6.720547   200A      6.863114   201A     33.393952  

	Final Occupation by Irrep:
	          A 
	DOCC [    18 ]

  Energy converged.

  @RHF Final Energy:  -225.22486510961085

   => Energetics <=

    Nuclear Repulsion Energy =            173.2442829003122711
    One-Electron Energy =                -638.7599543797496153
    Two-Electron Energy =                 240.2908063698263277
    DFT Exchange-Correlation Energy =       0.0000000000000000
    Empirical Dispersion Energy =           0.0000000000000000
    Total Energy =                       -225.2248651096110166



Properties will be evaluated at   0.000000,   0.000000,   0.000000 Bohr
  ==> Properties <==


Properties computed using the SCF density density matrix
  Nuclear Dipole Moment: (a.u.)
     X:   -48.7609      Y:    17.8189      Z:    -1.0423

  Electronic Dipole Moment: (a.u.)
     X:    47.8912      Y:   -16.8340      Z:     0.9533

  Dipole Moment: (a.u.)
     X:    -0.8697      Y:     0.9849      Z:    -0.0890     Total:     1.3170

  Dipole Moment: (Debye)
     X:    -2.2107      Y:     2.5034      Z:    -0.2262     Total:     3.3474


  Saving occupied orbitals to File 180.

  Saving SAPT 2-MONOMER_A file.

*** tstop() called on node32.bme.utexas.edu at Tue Aug 26 20:27:29 2014
Module time:
	user time   =      38.32 seconds =       0.64 minutes
	system time =       0.48 seconds =       0.01 minutes
	total time  =         10 seconds =       0.17 minutes
Total time:
	user time   =      86.65 seconds =       1.44 minutes
	system time =       1.01 seconds =       0.02 minutes
	total time  =         23 seconds =       0.38 minutes

  //>>>>>>>>>>>>>>>>>>>>>>>>>>>>>>>>>>>//
  //            Monomer B HF           //
  //<<<<<<<<<<<<<<<<<<<<<<<<<<<<<<<<<<<//


  No DF_BASIS_SCF auxiliary basis selected, defaulting to aug-cc-pvdz-jkfit


*** tstart() called on node32.bme.utexas.edu
*** at Tue Aug 26 20:27:29 2014


         ---------------------------------------------------------
                                   SCF
            by Justin Turney, Rob Parrish, and Andy Simmonett
                              RHF Reference
                        4 Threads,   7000 MiB Core
         ---------------------------------------------------------

  ==> Geometry <==

    Molecular point group: c1
    Full point group: C1

    Geometry (in Angstrom), charge = 0, multiplicity = 1:

       Center              X                  Y                   Z       
    ------------   -----------------  -----------------  -----------------
           C(Gh)     -1.845721189928    -0.056869573670     0.037739303992
           C(Gh)     -0.784270189928    -0.918204573670     0.110397303992
           N(Gh)      0.352298810072    -0.159929573670     0.010821303992
           C(Gh)      0.025092810072     1.124484426330    -0.119117696008
           N(Gh)     -1.310535189928     1.197475426330    -0.103855696008
           H(Gh)     -1.835928189928     2.056107426330    -0.185447696008
           H(Gh)      1.324790810072    -0.515924573670     0.031663303992
           H(Gh)     -2.904259189928    -0.234070573670     0.074645303992
           H(Gh)     -0.756547189928    -1.985866573670     0.222604303992
           H(Gh)      0.705830810072     1.949805426330    -0.217925696008
           O          2.614538810072    -0.950989373670     0.055415303992
           H          3.163765810072    -1.106153373670     0.828847303992
           H          3.137871810072    -1.266034373670    -0.686738696008

  Running in c1 symmetry.

  Nuclear repulsion =    9.155704341639030

  Charge       = 0
  Multiplicity = 1
  Electrons    = 10
  Nalpha       = 5
  Nbeta        = 5

  ==> Algorithm <==

  SCF Algorithm Type is DF.
  DIIS enabled.
  MOM disabled.
  Fractional occupation disabled.
  Guess Type is CORE.
  Energy threshold   = 1.00e-08
  Density threshold  = 1.00e-08
  Integral threshold = 0.00e+00

  ==> Primary Basis <==

  Basis Set: AUG-CC-PVDZ
    Number of shells: 89
    Number of basis function: 201
    Number of Cartesian functions: 213
    Spherical Harmonics?: true
    Max angular momentum: 2

  ==> Pre-Iterations <==

   -------------------------------------------------------
    Irrep   Nso     Nmo     Nalpha   Nbeta   Ndocc  Nsocc
   -------------------------------------------------------
     A        201     201       0       0       0       0
   -------------------------------------------------------
    Total     201     201       5       5       5       0
   -------------------------------------------------------

 OEINTS: Wrapper to libmints.
   by Justin Turney

   Calculation information:
      Number of atoms:                  13
      Number of AO shells:              89
      Number of SO shells:              89
      Number of primitives:            199
      Number of atomic orbitals:       213
      Number of basis functions:       201

      Number of irreps:                  1
      Number of functions per irrep: [ 201 ]

      Overlap, kinetic, potential, dipole, and quadrupole integrals
        stored in file 35.

  ==> Integral Setup <==

  ==> DFJK: Density-Fitted J/K Matrices <==

    J tasked:                  Yes
    K tasked:                  Yes
    wK tasked:                  No
    OpenMP threads:              4
    Integrals threads:           4
    Memory (MB):              5006
    Algorithm:                Core
    Integral Cache:           LOAD
    Schwarz Cutoff:          0E+00
    Fitting Condition:       1E-12

   => Auxiliary Basis Set <=

  Basis Set: aug-cc-pvdz-jkfit
    Number of shells: 252
    Number of basis function: 740
    Number of Cartesian functions: 851
    Spherical Harmonics?: true
    Max angular momentum: 3

  Minimum eigenvalue in the overlap matrix is 1.4658176241E-05.
  Using Symmetric Orthogonalization.
  SCF Guess: Core (One-Electron) Hamiltonian.

  Guess energy:   -58.71953820365152

  ==> Iterations <==

                        Total Energy        Delta E     RMS |[F,P]|

   @RHF iter   1:   -68.22516632356346   -6.82252e+01   1.75683e-02 
   @RHF iter   2:   -64.83572258775345    3.38944e+00   1.29919e-02 DIIS
   @RHF iter   3:   -74.94309667083215   -1.01074e+01   8.31240e-03 DIIS
   @RHF iter   4:   -75.81415206090969   -8.71055e-01   3.63349e-03 DIIS
   @RHF iter   5:   -76.04057100235099   -2.26419e-01   3.11382e-04 DIIS
   @RHF iter   6:   -76.04183871437846   -1.26771e-03   1.39370e-04 DIIS
   @RHF iter   7:   -76.04210678617696   -2.68072e-04   1.59384e-05 DIIS
   @RHF iter   8:   -76.04211188893635   -5.10276e-06   2.75281e-06 DIIS
   @RHF iter   9:   -76.04211213141622   -2.42480e-07   6.00422e-07 DIIS
   @RHF iter  10:   -76.04211214040180   -8.98558e-09   1.23287e-07 DIIS
   @RHF iter  11:   -76.04211214078168   -3.79885e-10   9.87984e-09 DIIS

  ==> Post-Iterations <==

	Orbital Energies (a.u.)
	-----------------------

	Doubly Occupied:                                                      

	   1A    -20.577709     2A     -1.354122     3A     -0.717610  
	   4A     -0.583706     5A     -0.508626  

	Virtual:                                                              

	   6A      0.025633     7A      0.036128     8A      0.045257  
	   9A      0.055744    10A      0.059428    11A      0.071414  
	  12A      0.086166    13A      0.089490    14A      0.111023  
	  15A      0.131675    16A      0.132953    17A      0.134659  
	  18A      0.139348    19A      0.140491    20A      0.144993  
	  21A      0.156408    22A      0.179069    23A      0.184232  
	  24A      0.210144    25A      0.214278    26A      0.217914  
	  27A      0.218658    28A      0.235562    29A      0.243103  
	  30A      0.246883    31A      0.251840    32A      0.285031  
	  33A      0.300156    34A      0.315118    35A      0.330853  
	  36A      0.335916    37A      0.348754    38A      0.369443  
	  39A      0.372494    40A      0.383038    41A      0.389854  
	  42A      0.396574    43A      0.409189    44A      0.450779  
	  45A      0.452352    46A      0.453380    47A      0.462158  
	  48A      0.478379    49A      0.501294    50A      0.505045  
	  51A      0.516157    52A      0.527106    53A      0.538950  
	  54A      0.546691    55A      0.550717    56A      0.559254  
	  57A      0.565307    58A      0.569961    59A      0.575189  
	  60A      0.595126    61A      0.596868    62A      0.615558  
	  63A      0.625376    64A      0.648678    65A      0.649600  
	  66A      0.659340    67A      0.666790    68A      0.686073  
	  69A      0.694719    70A      0.709659    71A      0.721513  
	  72A      0.748157    73A      0.770991    74A      0.795508  
	  75A      0.816889    76A      0.829080    77A      0.834132  
	  78A      0.850190    79A      0.859153    80A      0.893828  
	  81A      0.917416    82A      0.919120    83A      0.929329  
	  84A      0.954976    85A      0.976938    86A      0.986933  
	  87A      1.006724    88A      1.029680    89A      1.037622  
	  90A      1.096591    91A      1.111605    92A      1.124193  
	  93A      1.128654    94A      1.157166    95A      1.157214  
	  96A      1.185861    97A      1.203325    98A      1.212239  
	  99A      1.225837   100A      1.234903   101A      1.239431  
	 102A      1.283345   103A      1.319526   104A      1.321908  
	 105A      1.339527   106A      1.402318   107A      1.414975  
	 108A      1.442968   109A      1.446592   110A      1.492581  
	 111A      1.527551   112A      1.582970   113A      1.596482  
	 114A      1.645062   115A      1.664334   116A      1.746719  
	 117A      1.833257   118A      2.022861   119A      2.046399  
	 120A      2.103818   121A      2.125546   122A      2.143714  
	 123A      2.147000   124A      2.167109   125A      2.175907  
	 126A      2.194129   127A      2.237831   128A      2.286295  
	 129A      2.326344   130A      2.367608   131A      2.383693  
	 132A      2.416883   133A      2.436816   134A      2.472069  
	 135A      2.482135   136A      2.488600   137A      2.515417  
	 138A      2.533195   139A      2.547403   140A      2.569075  
	 141A      2.611443   142A      2.620676   143A      2.652347  
	 144A      2.713659   145A      2.727296   146A      2.772780  
	 147A      2.844723   148A      2.895177   149A      2.940220  
	 150A      2.964825   151A      2.978168   152A      3.014487  
	 153A      3.080012   154A      3.098606   155A      3.143286  
	 156A      3.177736   157A      3.179499   158A      3.225415  
	 159A      3.239093   160A      3.325626   161A      3.343765  
	 162A      3.434017   163A      3.440672   164A      3.506999  
	 165A      3.584628   166A      3.639859   167A      3.690155  
	 168A      3.703983   169A      3.734476   170A      3.776678  
	 171A      3.804325   172A      3.846837   173A      3.885333  
	 174A      3.895822   175A      3.905913   176A      3.937387  
	 177A      3.949508   178A      4.080559   179A      4.202073  
	 180A      4.294552   181A      4.369751   182A      4.412538  
	 183A      4.708992   184A      4.747119   185A      4.808042  
	 186A      4.890301   187A      5.013961   188A      5.228870  
	 189A      5.395608   190A      5.605576   191A      5.653078  
	 192A      5.803356   193A      5.859210   194A      6.186972  
	 195A      6.236631   196A      6.631156   197A     18.283381  
	 198A     18.648487   199A     19.388006   200A     25.456039  
	 201A     25.542944  

	Final Occupation by Irrep:
	          A 
	DOCC [     5 ]

  Energy converged.

  @RHF Final Energy:   -76.04211214078168

   => Energetics <=

    Nuclear Repulsion Energy =              9.1557043416390300
    One-Electron Energy =                -122.9120784210623611
    Two-Electron Energy =                  37.7142619386419113
    DFT Exchange-Correlation Energy =       0.0000000000000000
    Empirical Dispersion Energy =           0.0000000000000000
    Total Energy =                        -76.0421121407814127



Properties will be evaluated at   0.000000,   0.000000,   0.000000 Bohr
  ==> Properties <==


Properties computed using the SCF density density matrix
  Nuclear Dipole Moment: (a.u.)
     X:    51.4345      Y:   -18.8597      Z:     1.1063

  Electronic Dipole Moment: (a.u.)
     X:   -50.7221      Y:    18.5471      Z:    -1.0855

  Dipole Moment: (a.u.)
     X:     0.7123      Y:    -0.3125      Z:     0.0208     Total:     0.7782

  Dipole Moment: (Debye)
     X:     1.8106      Y:    -0.7944      Z:     0.0529     Total:     1.9779


  Saving occupied orbitals to File 180.

  Saving SAPT 2-MONOMER_B file.

*** tstop() called on node32.bme.utexas.edu at Tue Aug 26 20:27:37 2014
Module time:
	user time   =      24.88 seconds =       0.41 minutes
	system time =       0.47 seconds =       0.01 minutes
	total time  =          8 seconds =       0.13 minutes
Total time:
	user time   =     111.62 seconds =       1.86 minutes
	system time =       1.49 seconds =       0.02 minutes
	total time  =         31 seconds =       0.52 minutes
  No DF_BASIS_SAPT auxiliary basis selected, defaulting to aug-cc-pvdz-ri

  //>>>>>>>>>>>>>>>>>>>>>>>>>>>>>>>>>>>//
  //               SAPT2+              //
  //<<<<<<<<<<<<<<<<<<<<<<<<<<<<<<<<<<<//


*** tstart() called on node32.bme.utexas.edu
*** at Tue Aug 26 20:27:37 2014

        SAPT2+  
    Ed Hohenstein
     6 June 2009

      Orbital Information
  --------------------------
    NSO        =       201
    NMO        =       201
    NRI        =       593
    NOCC A     =        18
    NOCC B     =         5
    FOCC A     =         5
    FOCC B     =         1
    NVIR A     =       183
    NVIR B     =       196

    Estimated memory usage: 481.0 MB

    Elst10,r            =    -0.055234946892 H
    Exch10 (S^2)        =     0.077821660524 H
    Exch10              =     0.081201267308 H
    Ind20,r (A<-B)      =    -0.013255129463 H
    Ind20,r (B<-A)      =    -0.028886036072 H
    Ind20,r             =    -0.042141165535 H
    Exch-Ind20,r (A<-B) =     0.010996712539 H
    Exch-Ind20,r (B<-A) =     0.010458360527 H
    Exch-Ind20,r        =     0.021455073066 H
    Disp20              =    -0.014248744910 H
    Exch-Disp20         =     0.002762635527 H
    Elst12,r            =     0.001598344679 H
    Exch11              =    -0.000045964197 H
    Exch12              =     0.006116766313 H
    Ind22               =    -0.004692911243 H
    Disp21              =     0.001517536995 H
    Disp22 (SDQ)        =    -0.000265515466 H

    (i =   1 of   4)         96 seconds
    (i =   2 of   4)        195 seconds
    (i =   3 of   4)        287 seconds
    (i =   4 of   4)        384 seconds

    Disp220 (T)         =    -0.000987252204 H

    (i =   1 of  13)         25 seconds
    (i =   2 of  13)         49 seconds
    (i =   3 of  13)         74 seconds
    (i =   4 of  13)         95 seconds
    (i =   5 of  13)        116 seconds
    (i =   6 of  13)        137 seconds
    (i =   7 of  13)        158 seconds
    (i =   8 of  13)        180 seconds
    (i =   9 of  13)        204 seconds
    (i =  10 of  13)        225 seconds
    (i =  11 of  13)        245 seconds
    (i =  12 of  13)        266 seconds
    (i =  13 of  13)        287 seconds

    Disp202 (T)         =    -0.000908126903 H

    Disp22 (T)          =    -0.001895379107 H

    SAPT Results  
  -----------------------------------------------------------------------
    Electrostatics         -53.63660221 mH     -33.65747744 kcal mol^-1
      Elst10,r             -55.23494689 mH     -34.66045391 kcal mol^-1
      Elst12,r               1.59834468 mH       1.00297647 kcal mol^-1

    Exchange                87.27206942 mH      54.76405265 kcal mol^-1
      Exch10                81.20126731 mH      50.95456665 kcal mol^-1
      Exch10(S^2)           77.82166052 mH      48.83383128 kcal mol^-1
      Exch11(S^2)           -0.04596420 mH      -0.02884297 kcal mol^-1
      Exch12(S^2)            6.11676631 mH       3.83832897 kcal mol^-1

    Induction              -37.17475172 mH     -23.32750986 kcal mol^-1
      Ind20,r              -42.14116553 mH     -26.44398171 kcal mol^-1
      Ind22                 -4.69291124 mH      -2.94484639 kcal mol^-1
      Exch-Ind20,r          21.45507307 mH      13.46326217 kcal mol^-1
      Exch-Ind22             2.38927311 mH       1.49929157 kcal mol^-1
      delta HF,r (2)       -14.18502112 mH      -8.90123551 kcal mol^-1

    Dispersion             -12.12946696 mH      -7.61135575 kcal mol^-1
      Disp20               -14.24874491 mH      -8.94122279 kcal mol^-1
      Disp21                 1.51753700 mH       0.95226888 kcal mol^-1
      Disp22 (SDQ)          -0.26551547 mH      -0.16661348 kcal mol^-1
      Disp22 (T)            -1.89537911 mH      -1.18936840 kcal mol^-1
      Exch-Disp20            2.76263553 mH       1.73358004 kcal mol^-1

    Total HF                -8.90479317 mH      -5.58784231 kcal mol^-1
    Total SAPT0            -20.39090255 mH     -12.79548506 kcal mol^-1
    Total SAPT2            -15.02539389 mH      -9.42857741 kcal mol^-1
    Total SAPT2+           -15.66875147 mH      -9.83229040 kcal mol^-1

*** tstop() called on node32.bme.utexas.edu at Tue Aug 26 20:41:59 2014
Module time:
	user time   =    3245.32 seconds =      54.09 minutes
	system time =      37.27 seconds =       0.62 minutes
	total time  =        862 seconds =      14.37 minutes
Total time:
	user time   =    3356.95 seconds =      55.95 minutes
	system time =      38.76 seconds =       0.65 minutes
	total time  =        893 seconds =      14.88 minutes

*** PSI4 exiting successfully. Buy a developer a beer!
