    -----------------------------------------------------------------------
          PSI4: An Open-Source Ab Initio Electronic Structure Package
                              PSI 4.0.0-beta4 Driver

    J. M. Turney, A. C. Simmonett, R. M. Parrish, E. G. Hohenstein,
    F. A. Evangelista, J. T. Fermann, B. J. Mintz, L. A. Burns, J. J. Wilke,
    M. L. Abrams, N. J. Russ, M. L. Leininger, C. L. Janssen, E. T. Seidl,
    W. D. Allen, H. F. Schaefer, R. A. King, E. F. Valeev, C. D. Sherrill,
    and T. D. Crawford, WIREs Comput. Mol. Sci., (2011) (doi: 10.1002/wcms.93)

                         Additional Contributions by
    A. E. DePrince, M. Saitow, U. Bozkaya, A. Yu. Sokolov
    -----------------------------------------------------------------------

    Process ID:  17407
    PSI4DATADIR: /home/xzhu216/psi4/psi4-install/share/psi

    Using LocalCommunicator (Number of processes = 1)

    Memory level set to 256.000 MB

  ==> Input File <==

--------------------------------------------------------------------------
#psi4
#
memory 7 gb

molecule ImidazolePlus_Water {
1 1
    C    -3.719509000    -0.009372000     0.031827000
    C    -2.658058000    -0.870707000     0.104485000
    N    -1.521489000    -0.112432000     0.004909000
    C    -1.848695000     1.171982000    -0.125030000
    N    -3.184323000     1.244973000    -0.109768000
    H    -3.709716000     2.103605000    -0.191360000
    H    -0.548997000    -0.468427000     0.025751000
    H    -4.778047000    -0.186573000     0.068733000
    H    -2.630335000    -1.938369000     0.216692000
    H    -1.167957000     1.997303000    -0.223838000
--
0 1
    O     0.982578750    -0.985066450     0.053956500
    H     1.531805750    -1.140230450     0.827388500
    H     1.505911750    -1.300111450    -0.688197500
units angstrom
no_reorient  #important for SAPT in psi4, default
symmetry c1  #important for SAPT in psi4, default
}

set {
basis aug-cc-pVDZ
scf_type DF
freeze_core True
}
energy('sapt2+')
--------------------------------------------------------------------------

  Memory set to   7.000 GiB by Python script.

  //>>>>>>>>>>>>>>>>>>>>>>>>>>>>>>>>>>>//
  //              Dimer HF             //
  //<<<<<<<<<<<<<<<<<<<<<<<<<<<<<<<<<<<//


  No DF_BASIS_SCF auxiliary basis selected, defaulting to aug-cc-pvdz-jkfit


*** tstart() called on node53.bme.utexas.edu
*** at Tue Aug 26 20:27:38 2014


         ---------------------------------------------------------
                                   SCF
            by Justin Turney, Rob Parrish, and Andy Simmonett
                              RHF Reference
                        4 Threads,   7000 MiB Core
         ---------------------------------------------------------

  ==> Geometry <==

    Molecular point group: c1
    Full point group: C1

    Geometry (in Angstrom), charge = 1, multiplicity = 1:

       Center              X                  Y                   Z       
    ------------   -----------------  -----------------  -----------------
           C         -1.895751773070    -0.039992985648     0.036817940741
           C         -0.834300773070    -0.901327985648     0.109475940741
           N          0.302268226930    -0.143052985648     0.009899940741
           C         -0.024937773070     1.141361014352    -0.120039059259
           N         -1.360565773070     1.214352014352    -0.104777059259
           H         -1.885958773070     2.072984014352    -0.186369059259
           H          1.274760226930    -0.499047985648     0.030741940741
           H         -2.954289773070    -0.217193985648     0.073723940741
           H         -0.806577773070    -1.968989985648     0.221682940741
           H          0.655800226930     1.966682014352    -0.218847059259
           O          2.806335976930    -1.015687435648     0.058947440741
           H          3.355562976930    -1.170851435648     0.832379440741
           H          3.329668976930    -1.330732435648    -0.683206559259

  Running in c1 symmetry.

  Nuclear repulsion =  234.670495818596095

  Charge       = 1
  Multiplicity = 1
  Electrons    = 46
  Nalpha       = 23
  Nbeta        = 23

  ==> Algorithm <==

  SCF Algorithm Type is DF.
  DIIS enabled.
  MOM disabled.
  Fractional occupation disabled.
  Guess Type is CORE.
  Energy threshold   = 1.00e-08
  Density threshold  = 1.00e-08
  Integral threshold = 0.00e+00

  ==> Primary Basis <==

  Basis Set: AUG-CC-PVDZ
    Number of shells: 89
    Number of basis function: 201
    Number of Cartesian functions: 213
    Spherical Harmonics?: true
    Max angular momentum: 2

  ==> Pre-Iterations <==

   -------------------------------------------------------
    Irrep   Nso     Nmo     Nalpha   Nbeta   Ndocc  Nsocc
   -------------------------------------------------------
     A        201     201       0       0       0       0
   -------------------------------------------------------
    Total     201     201      23      23      23       0
   -------------------------------------------------------

 OEINTS: Wrapper to libmints.
   by Justin Turney

   Calculation information:
      Number of atoms:                  13
      Number of AO shells:              89
      Number of SO shells:              89
      Number of primitives:            199
      Number of atomic orbitals:       213
      Number of basis functions:       201

      Number of irreps:                  1
      Number of functions per irrep: [ 201 ]

      Overlap, kinetic, potential, dipole, and quadrupole integrals
        stored in file 35.

  ==> Integral Setup <==

  ==> DFJK: Density-Fitted J/K Matrices <==

    J tasked:                  Yes
    K tasked:                  Yes
    wK tasked:                  No
    OpenMP threads:              4
    Integrals threads:           4
    Memory (MB):              5006
    Algorithm:                Core
    Integral Cache:           SAVE
    Schwarz Cutoff:          0E+00
    Fitting Condition:       1E-12

   => Auxiliary Basis Set <=

  Basis Set: aug-cc-pvdz-jkfit
    Number of shells: 252
    Number of basis function: 740
    Number of Cartesian functions: 851
    Spherical Harmonics?: true
    Max angular momentum: 3

  Minimum eigenvalue in the overlap matrix is 1.5200050097E-05.
  Using Symmetric Orthogonalization.
  SCF Guess: Core (One-Electron) Hamiltonian.

  Guess energy:  -232.83833477232466

  ==> Iterations <==

                        Total Energy        Delta E     RMS |[F,P]|

   @RHF iter   1:  -222.05805192492332   -2.22058e+02   3.70795e-02 
   @RHF iter   2:   -89.13280391665936    1.32925e+02   6.84166e-02 DIIS
   @RHF iter   3:  -249.58857209681290   -1.60456e+02   2.97136e-02 DIIS
   @RHF iter   4:  -280.83568405437131   -3.12471e+01   2.01933e-02 DIIS
   @RHF iter   5:  -299.47238852399948   -1.86367e+01   9.80839e-03 DIIS
   @RHF iter   6:  -301.20187435657931   -1.72949e+00   2.10159e-03 DIIS
   @RHF iter   7:  -301.27934788728396   -7.74735e-02   5.00508e-04 DIIS
   @RHF iter   8:  -301.28534970890837   -6.00182e-03   3.05939e-04 DIIS
   @RHF iter   9:  -301.28729684623693   -1.94714e-03   1.38107e-04 DIIS
   @RHF iter  10:  -301.28778479044252   -4.87944e-04   8.12516e-05 DIIS
   @RHF iter  11:  -301.28797823584011   -1.93445e-04   2.20430e-05 DIIS
   @RHF iter  12:  -301.28799281971249   -1.45839e-05   3.88768e-06 DIIS
   @RHF iter  13:  -301.28799344832782   -6.28615e-07   1.39645e-06 DIIS
   @RHF iter  14:  -301.28799354411808   -9.57903e-08   7.23180e-07 DIIS
   @RHF iter  15:  -301.28799357276932   -2.86512e-08   1.79351e-07 DIIS
   @RHF iter  16:  -301.28799357582830   -3.05897e-09   5.10835e-08 DIIS
   @RHF iter  17:  -301.28799357598484   -1.56547e-10   1.65510e-08 DIIS
   @RHF iter  18:  -301.28799357599360   -8.75389e-12   4.35923e-09 DIIS

  ==> Post-Iterations <==

	Orbital Energies (a.u.)
	-----------------------

	Doubly Occupied:                                                      

	   1A    -20.750418     2A    -15.833952     3A    -15.816341  
	   4A    -11.529813     5A    -11.458812     6A    -11.455543  
	   7A     -1.573027     8A     -1.534491     9A     -1.407853  
	  10A     -1.224493    11A     -1.072889    12A     -1.024295  
	  13A     -0.971790    14A     -0.893347    15A     -0.885354  
	  16A     -0.815481    17A     -0.813439    18A     -0.797092  
	  19A     -0.791004    20A     -0.746062    21A     -0.688861  
	  22A     -0.636323    23A     -0.519721  

	Virtual:                                                              

	  24A     -0.085162    25A     -0.072968    26A     -0.060289  
	  27A     -0.058249    28A     -0.046448    29A     -0.040078  
	  30A     -0.038623    31A     -0.027568    32A     -0.013966  
	  33A     -0.007449    34A     -0.000458    35A      0.013889  
	  36A      0.014836    37A      0.021683    38A      0.031093  
	  39A      0.044068    40A      0.045828    41A      0.046987  
	  42A      0.059302    43A      0.068264    44A      0.077021  
	  45A      0.086887    46A      0.093745    47A      0.100625  
	  48A      0.108735    49A      0.115840    50A      0.127765  
	  51A      0.140766    52A      0.145750    53A      0.153234  
	  54A      0.161169    55A      0.183786    56A      0.190437  
	  57A      0.199094    58A      0.224275    59A      0.237398  
	  60A      0.242011    61A      0.243400    62A      0.248616  
	  63A      0.252748    64A      0.252932    65A      0.264752  
	  66A      0.283460    67A      0.301721    68A      0.304131  
	  69A      0.318806    70A      0.333340    71A      0.347886  
	  72A      0.349534    73A      0.377370    74A      0.389246  
	  75A      0.395867    76A      0.398975    77A      0.409430  
	  78A      0.417554    79A      0.420784    80A      0.429702  
	  81A      0.442625    82A      0.445835    83A      0.458859  
	  84A      0.483485    85A      0.490363    86A      0.498490  
	  87A      0.505681    88A      0.522741    89A      0.531293  
	  90A      0.532767    91A      0.540647    92A      0.554298  
	  93A      0.557136    94A      0.567935    95A      0.597342  
	  96A      0.599089    97A      0.645444    98A      0.663386  
	  99A      0.665141   100A      0.673984   101A      0.681025  
	 102A      0.695978   103A      0.706656   104A      0.723018  
	 105A      0.737665   106A      0.770843   107A      0.794746  
	 108A      0.823072   109A      0.845521   110A      0.846370  
	 111A      0.849830   112A      0.869238   113A      0.885692  
	 114A      0.888960   115A      0.934994   116A      0.969902  
	 117A      0.978193   118A      0.984170   119A      0.993996  
	 120A      1.006995   121A      1.047176   122A      1.058180  
	 123A      1.114226   124A      1.137189   125A      1.164541  
	 126A      1.235668   127A      1.254400   128A      1.257614  
	 129A      1.296707   130A      1.344069   131A      1.370421  
	 132A      1.383240   133A      1.403079   134A      1.416438  
	 135A      1.428076   136A      1.485971   137A      1.509874  
	 138A      1.517632   139A      1.524700   140A      1.540038  
	 141A      1.594477   142A      1.605954   143A      1.625438  
	 144A      1.694381   145A      1.707799   146A      1.762687  
	 147A      1.794241   148A      1.803774   149A      1.847152  
	 150A      1.851341   151A      1.863984   152A      1.890018  
	 153A      1.929362   154A      1.937672   155A      1.954260  
	 156A      1.961267   157A      1.976555   158A      2.004030  
	 159A      2.037274   160A      2.068122   161A      2.088403  
	 162A      2.111067   163A      2.176730   164A      2.208779  
	 165A      2.311445   166A      2.326027   167A      2.346376  
	 168A      2.355815   169A      2.375233   170A      2.388550  
	 171A      2.410082   172A      2.432629   173A      2.470660  
	 174A      2.541566   175A      2.561118   176A      2.569417  
	 177A      2.600147   178A      2.613901   179A      2.625517  
	 180A      2.681782   181A      2.720120   182A      2.745364  
	 183A      2.753528   184A      2.830719   185A      2.837806  
	 186A      2.853427   187A      2.884749   188A      2.912769  
	 189A      3.065048   190A      3.086445   191A      3.162466  
	 192A      3.199272   193A      3.314594   194A      3.375090  
	 195A      3.527880   196A      3.665801   197A      3.671856  
	 198A      3.925315   199A      3.937143   200A      4.047427  
	 201A      4.184217  

	Final Occupation by Irrep:
	          A 
	DOCC [    23 ]

  Energy converged.

  @RHF Final Energy:  -301.28799357599360

   => Energetics <=

    Nuclear Repulsion Energy =            234.6704958185960948
    One-Electron Energy =                -865.4361706627066724
    Two-Electron Energy =                 329.4776812681168394
    DFT Exchange-Correlation Energy =       0.0000000000000000
    Empirical Dispersion Energy =           0.0000000000000000
    Total Energy =                       -301.2879935759937098



Properties will be evaluated at   0.000000,   0.000000,   0.000000 Bohr
  ==> Properties <==


Properties computed using the SCF density density matrix
  Nuclear Dipole Moment: (a.u.)
     X:     2.7999      Y:    -1.0834      Z:     0.0663

  Electronic Dipole Moment: (a.u.)
     X:    -2.3821      Y:     1.5335      Z:    -0.1209

  Dipole Moment: (a.u.)
     X:     0.4178      Y:     0.4501      Z:    -0.0546     Total:     0.6166

  Dipole Moment: (Debye)
     X:     1.0620      Y:     1.1441      Z:    -0.1389     Total:     1.5671


  Saving occupied orbitals to File 180.

  Saving SAPT 2-DIMER file.

*** tstop() called on node53.bme.utexas.edu at Tue Aug 26 20:27:51 2014
Module time:
	user time   =      49.37 seconds =       0.82 minutes
	system time =       0.46 seconds =       0.01 minutes
	total time  =         13 seconds =       0.22 minutes
Total time:
	user time   =      49.37 seconds =       0.82 minutes
	system time =       0.46 seconds =       0.01 minutes
	total time  =         13 seconds =       0.22 minutes

  //>>>>>>>>>>>>>>>>>>>>>>>>>>>>>>>>>>>//
  //            Monomer A HF           //
  //<<<<<<<<<<<<<<<<<<<<<<<<<<<<<<<<<<<//


  No DF_BASIS_SCF auxiliary basis selected, defaulting to aug-cc-pvdz-jkfit


*** tstart() called on node53.bme.utexas.edu
*** at Tue Aug 26 20:27:51 2014


         ---------------------------------------------------------
                                   SCF
            by Justin Turney, Rob Parrish, and Andy Simmonett
                              RHF Reference
                        4 Threads,   7000 MiB Core
         ---------------------------------------------------------

  ==> Geometry <==

    Molecular point group: c1
    Full point group: C1

    Geometry (in Angstrom), charge = 1, multiplicity = 1:

       Center              X                  Y                   Z       
    ------------   -----------------  -----------------  -----------------
           C         -1.895751773070    -0.039992985648     0.036817940741
           C         -0.834300773070    -0.901327985648     0.109475940741
           N          0.302268226930    -0.143052985648     0.009899940741
           C         -0.024937773070     1.141361014352    -0.120039059259
           N         -1.360565773070     1.214352014352    -0.104777059259
           H         -1.885958773070     2.072984014352    -0.186369059259
           H          1.274760226930    -0.499047985648     0.030741940741
           H         -2.954289773070    -0.217193985648     0.073723940741
           H         -0.806577773070    -1.968989985648     0.221682940741
           H          0.655800226930     1.966682014352    -0.218847059259
           O(Gh)      2.806335976930    -1.015687435648     0.058947440741
           H(Gh)      3.355562976930    -1.170851435648     0.832379440741
           H(Gh)      3.329668976930    -1.330732435648    -0.683206559259

  Running in c1 symmetry.

  Nuclear repulsion =  173.244282900312243

  Charge       = 1
  Multiplicity = 1
  Electrons    = 36
  Nalpha       = 18
  Nbeta        = 18

  ==> Algorithm <==

  SCF Algorithm Type is DF.
  DIIS enabled.
  MOM disabled.
  Fractional occupation disabled.
  Guess Type is CORE.
  Energy threshold   = 1.00e-08
  Density threshold  = 1.00e-08
  Integral threshold = 0.00e+00

  ==> Primary Basis <==

  Basis Set: AUG-CC-PVDZ
    Number of shells: 89
    Number of basis function: 201
    Number of Cartesian functions: 213
    Spherical Harmonics?: true
    Max angular momentum: 2

  ==> Pre-Iterations <==

   -------------------------------------------------------
    Irrep   Nso     Nmo     Nalpha   Nbeta   Ndocc  Nsocc
   -------------------------------------------------------
     A        201     201       0       0       0       0
   -------------------------------------------------------
    Total     201     201      18      18      18       0
   -------------------------------------------------------

 OEINTS: Wrapper to libmints.
   by Justin Turney

   Calculation information:
      Number of atoms:                  13
      Number of AO shells:              89
      Number of SO shells:              89
      Number of primitives:            199
      Number of atomic orbitals:       213
      Number of basis functions:       201

      Number of irreps:                  1
      Number of functions per irrep: [ 201 ]

      Overlap, kinetic, potential, dipole, and quadrupole integrals
        stored in file 35.

  ==> Integral Setup <==

  ==> DFJK: Density-Fitted J/K Matrices <==

    J tasked:                  Yes
    K tasked:                  Yes
    wK tasked:                  No
    OpenMP threads:              4
    Integrals threads:           4
    Memory (MB):              5006
    Algorithm:                Core
    Integral Cache:           LOAD
    Schwarz Cutoff:          0E+00
    Fitting Condition:       1E-12

   => Auxiliary Basis Set <=

  Basis Set: aug-cc-pvdz-jkfit
    Number of shells: 252
    Number of basis function: 740
    Number of Cartesian functions: 851
    Spherical Harmonics?: true
    Max angular momentum: 3

  Minimum eigenvalue in the overlap matrix is 1.5200050097E-05.
  Using Symmetric Orthogonalization.
  SCF Guess: Core (One-Electron) Hamiltonian.

  Guess energy:  -170.41635307471105

  ==> Iterations <==

                        Total Energy        Delta E     RMS |[F,P]|

   @RHF iter   1:  -191.69080362786454   -1.91691e+02   2.90070e-02 
   @RHF iter   2:  -168.30155741977367    2.33892e+01   2.67455e-02 DIIS
   @RHF iter   3:  -213.26334854577502   -4.49618e+01   2.08756e-02 DIIS
   @RHF iter   4:  -223.73472690105783   -1.04714e+01   8.32567e-03 DIIS
   @RHF iter   5:  -224.90523441977868   -1.17051e+00   3.58639e-03 DIIS
   @RHF iter   6:  -225.18311805961511   -2.77884e-01   1.11268e-03 DIIS
   @RHF iter   7:  -225.22254070280590   -3.94226e-02   2.59341e-04 DIIS
   @RHF iter   8:  -225.22438705681000   -1.84635e-03   8.54950e-05 DIIS
   @RHF iter   9:  -225.22469246459687   -3.05408e-04   3.84497e-05 DIIS
   @RHF iter  10:  -225.22476915490259   -7.66903e-05   1.83117e-05 DIIS
   @RHF iter  11:  -225.22478624645791   -1.70916e-05   7.38093e-06 DIIS
   @RHF iter  12:  -225.22478964199669   -3.39554e-06   1.79476e-06 DIIS
   @RHF iter  13:  -225.22478986357939   -2.21583e-07   3.76738e-07 DIIS
   @RHF iter  14:  -225.22478987081652   -7.23713e-09   1.14562e-07 DIIS
   @RHF iter  15:  -225.22478987128679   -4.70266e-10   3.08957e-08 DIIS
   @RHF iter  16:  -225.22478987132573   -3.89377e-11   6.11780e-09 DIIS

  ==> Post-Iterations <==

	Orbital Energies (a.u.)
	-----------------------

	Doubly Occupied:                                                      

	   1A    -15.860972     2A    -15.858387     3A    -11.558522  
	   4A    -11.482040     5A    -11.480461     6A     -1.601232  
	   7A     -1.437643     8A     -1.250039     9A     -1.099595  
	  10A     -1.050570    11A     -0.995216    12A     -0.899474  
	  13A     -0.843357    14A     -0.836980    15A     -0.819257  
	  16A     -0.805696    17A     -0.666866    18A     -0.543083  

	Virtual:                                                              

	  19A     -0.097106    20A     -0.080667    21A     -0.074797  
	  22A     -0.069005    23A     -0.050690    24A     -0.048482  
	  25A     -0.045722    26A     -0.033317    27A     -0.031502  
	  28A     -0.013399    29A     -0.013019    30A     -0.001135  
	  31A      0.004262    32A      0.009268    33A      0.019556  
	  34A      0.033113    35A      0.036333    36A      0.037001  
	  37A      0.045390    38A      0.055378    39A      0.065616  
	  40A      0.073632    41A      0.074509    42A      0.082494  
	  43A      0.089729    44A      0.107555    45A      0.112979  
	  46A      0.130536    47A      0.134495    48A      0.139274  
	  49A      0.149288    50A      0.169182    51A      0.176020  
	  52A      0.200607    53A      0.206915    54A      0.221777  
	  55A      0.227624    56A      0.230647    57A      0.250180  
	  58A      0.268147    59A      0.276332    60A      0.281021  
	  61A      0.284257    62A      0.300705    63A      0.304590  
	  64A      0.308386    65A      0.309101    66A      0.332449  
	  67A      0.346523    68A      0.351478    69A      0.365153  
	  70A      0.379857    71A      0.382302    72A      0.396394  
	  73A      0.407211    74A      0.407450    75A      0.411901  
	  76A      0.418057    77A      0.439388    78A      0.447553  
	  79A      0.455375    80A      0.470705    81A      0.480728  
	  82A      0.485765    83A      0.502246    84A      0.509016  
	  85A      0.516213    86A      0.522952    87A      0.526793  
	  88A      0.538849    89A      0.572545    90A      0.576405  
	  91A      0.580962    92A      0.612030    93A      0.621606  
	  94A      0.642592    95A      0.652428    96A      0.658208  
	  97A      0.678600    98A      0.682532    99A      0.705999  
	 100A      0.738299   101A      0.750496   102A      0.782968  
	 103A      0.817778   104A      0.826785   105A      0.843457  
	 106A      0.856640   107A      0.867770   108A      0.911595  
	 109A      0.912375   110A      0.924684   111A      0.954708  
	 112A      0.968592   113A      1.004014   114A      1.020721  
	 115A      1.047285   116A      1.050384   117A      1.080459  
	 118A      1.093891   119A      1.130068   120A      1.173065  
	 121A      1.183203   122A      1.185489   123A      1.221342  
	 124A      1.248068   125A      1.262268   126A      1.334399  
	 127A      1.360979   128A      1.365061   129A      1.391017  
	 130A      1.406760   131A      1.434949   132A      1.446593  
	 133A      1.463008   134A      1.500987   135A      1.501240  
	 136A      1.508528   137A      1.572941   138A      1.579799  
	 139A      1.603557   140A      1.672741   141A      1.686222  
	 142A      1.721746   143A      1.779637   144A      1.790242  
	 145A      1.839839   146A      1.888380   147A      1.895738  
	 148A      1.905978   149A      1.929081   150A      1.947414  
	 151A      1.963727   152A      1.995170   153A      2.016646  
	 154A      2.026583   155A      2.089408   156A      2.137636  
	 157A      2.193688   158A      2.233235   159A      2.259479  
	 160A      2.283094   161A      2.339230   162A      2.344423  
	 163A      2.360194   164A      2.374565   165A      2.377090  
	 166A      2.398324   167A      2.438337   168A      2.450448  
	 169A      2.490706   170A      2.534394   171A      2.544175  
	 172A      2.578396   173A      2.589217   174A      2.601917  
	 175A      2.708838   176A      2.712809   177A      2.730561  
	 178A      2.803526   179A      2.839010   180A      2.846584  
	 181A      2.889805   182A      2.967942   183A      3.070761  
	 184A      3.116425   185A      3.172520   186A      3.197133  
	 187A      3.345813   188A      3.658826   189A      3.904499  
	 190A      3.954493   191A      3.974587   192A      4.025964  
	 193A      4.789353   194A      4.896949   195A      4.960108  
	 196A      5.178914   197A      5.240228   198A      5.609941  
	 199A      6.728937   200A      6.881255   201A     33.424662  

	Final Occupation by Irrep:
	          A 
	DOCC [    18 ]

  Energy converged.

  @RHF Final Energy:  -225.22478987132573

   => Energetics <=

    Nuclear Repulsion Energy =            173.2442829003122426
    One-Electron Energy =                -638.7593630610592754
    Two-Electron Energy =                 240.2902902894214776
    DFT Exchange-Correlation Energy =       0.0000000000000000
    Empirical Dispersion Energy =           0.0000000000000000
    Total Energy =                       -225.2247898713255836



Properties will be evaluated at   0.000000,   0.000000,   0.000000 Bohr
  ==> Properties <==


Properties computed using the SCF density density matrix
  Nuclear Dipole Moment: (a.u.)
     X:   -52.2590      Y:    18.9989      Z:    -1.1068

  Electronic Dipole Moment: (a.u.)
     X:    51.2946      Y:   -17.9820      Z:     1.0160

  Dipole Moment: (a.u.)
     X:    -0.9645      Y:     1.0168      Z:    -0.0907     Total:     1.4044

  Dipole Moment: (Debye)
     X:    -2.4514      Y:     2.5845      Z:    -0.2307     Total:     3.5696


  Saving occupied orbitals to File 180.

  Saving SAPT 2-MONOMER_A file.

*** tstop() called on node53.bme.utexas.edu at Tue Aug 26 20:28:01 2014
Module time:
	user time   =      35.21 seconds =       0.59 minutes
	system time =       0.30 seconds =       0.01 minutes
	total time  =         10 seconds =       0.17 minutes
Total time:
	user time   =      84.60 seconds =       1.41 minutes
	system time =       0.76 seconds =       0.01 minutes
	total time  =         23 seconds =       0.38 minutes

  //>>>>>>>>>>>>>>>>>>>>>>>>>>>>>>>>>>>//
  //            Monomer B HF           //
  //<<<<<<<<<<<<<<<<<<<<<<<<<<<<<<<<<<<//


  No DF_BASIS_SCF auxiliary basis selected, defaulting to aug-cc-pvdz-jkfit


*** tstart() called on node53.bme.utexas.edu
*** at Tue Aug 26 20:28:01 2014


         ---------------------------------------------------------
                                   SCF
            by Justin Turney, Rob Parrish, and Andy Simmonett
                              RHF Reference
                        4 Threads,   7000 MiB Core
         ---------------------------------------------------------

  ==> Geometry <==

    Molecular point group: c1
    Full point group: C1

    Geometry (in Angstrom), charge = 0, multiplicity = 1:

       Center              X                  Y                   Z       
    ------------   -----------------  -----------------  -----------------
           C(Gh)     -1.895751773070    -0.039992985648     0.036817940741
           C(Gh)     -0.834300773070    -0.901327985648     0.109475940741
           N(Gh)      0.302268226930    -0.143052985648     0.009899940741
           C(Gh)     -0.024937773070     1.141361014352    -0.120039059259
           N(Gh)     -1.360565773070     1.214352014352    -0.104777059259
           H(Gh)     -1.885958773070     2.072984014352    -0.186369059259
           H(Gh)      1.274760226930    -0.499047985648     0.030741940741
           H(Gh)     -2.954289773070    -0.217193985648     0.073723940741
           H(Gh)     -0.806577773070    -1.968989985648     0.221682940741
           H(Gh)      0.655800226930     1.966682014352    -0.218847059259
           O          2.806335976930    -1.015687435648     0.058947440741
           H          3.355562976930    -1.170851435648     0.832379440741
           H          3.329668976930    -1.330732435648    -0.683206559259

  Running in c1 symmetry.

  Nuclear repulsion =    9.155704341639019

  Charge       = 0
  Multiplicity = 1
  Electrons    = 10
  Nalpha       = 5
  Nbeta        = 5

  ==> Algorithm <==

  SCF Algorithm Type is DF.
  DIIS enabled.
  MOM disabled.
  Fractional occupation disabled.
  Guess Type is CORE.
  Energy threshold   = 1.00e-08
  Density threshold  = 1.00e-08
  Integral threshold = 0.00e+00

  ==> Primary Basis <==

  Basis Set: AUG-CC-PVDZ
    Number of shells: 89
    Number of basis function: 201
    Number of Cartesian functions: 213
    Spherical Harmonics?: true
    Max angular momentum: 2

  ==> Pre-Iterations <==

   -------------------------------------------------------
    Irrep   Nso     Nmo     Nalpha   Nbeta   Ndocc  Nsocc
   -------------------------------------------------------
     A        201     201       0       0       0       0
   -------------------------------------------------------
    Total     201     201       5       5       5       0
   -------------------------------------------------------

 OEINTS: Wrapper to libmints.
   by Justin Turney

   Calculation information:
      Number of atoms:                  13
      Number of AO shells:              89
      Number of SO shells:              89
      Number of primitives:            199
      Number of atomic orbitals:       213
      Number of basis functions:       201

      Number of irreps:                  1
      Number of functions per irrep: [ 201 ]

      Overlap, kinetic, potential, dipole, and quadrupole integrals
        stored in file 35.

  ==> Integral Setup <==

  ==> DFJK: Density-Fitted J/K Matrices <==

    J tasked:                  Yes
    K tasked:                  Yes
    wK tasked:                  No
    OpenMP threads:              4
    Integrals threads:           4
    Memory (MB):              5006
    Algorithm:                Core
    Integral Cache:           LOAD
    Schwarz Cutoff:          0E+00
    Fitting Condition:       1E-12

   => Auxiliary Basis Set <=

  Basis Set: aug-cc-pvdz-jkfit
    Number of shells: 252
    Number of basis function: 740
    Number of Cartesian functions: 851
    Spherical Harmonics?: true
    Max angular momentum: 3

  Minimum eigenvalue in the overlap matrix is 1.5200050097E-05.
  Using Symmetric Orthogonalization.
  SCF Guess: Core (One-Electron) Hamiltonian.

  Guess energy:   -58.70660849891692

  ==> Iterations <==

                        Total Energy        Delta E     RMS |[F,P]|

   @RHF iter   1:   -68.27852197029343   -6.82785e+01   1.74082e-02 
   @RHF iter   2:   -64.86980317628368    3.40872e+00   1.29758e-02 DIIS
   @RHF iter   3:   -74.96484846828052   -1.00950e+01   8.22197e-03 DIIS
   @RHF iter   4:   -75.81885488275286   -8.54006e-01   3.59297e-03 DIIS
   @RHF iter   5:   -76.04032493136988   -2.21470e-01   3.07837e-04 DIIS
   @RHF iter   6:   -76.04156985501839   -1.24492e-03   1.37729e-04 DIIS
   @RHF iter   7:   -76.04183240734045   -2.62552e-04   1.55924e-05 DIIS
   @RHF iter   8:   -76.04183734766417   -4.94032e-06   2.66220e-06 DIIS
   @RHF iter   9:   -76.04183758072261   -2.33058e-07   6.00926e-07 DIIS
   @RHF iter  10:   -76.04183758960016   -8.87755e-09   1.20931e-07 DIIS
   @RHF iter  11:   -76.04183758996831   -3.68146e-10   9.77818e-09 DIIS

  ==> Post-Iterations <==

	Orbital Energies (a.u.)
	-----------------------

	Doubly Occupied:                                                      

	   1A    -20.577906     2A     -1.354204     3A     -0.717694  
	   4A     -0.583811     5A     -0.508655  

	Virtual:                                                              

	   6A      0.025883     7A      0.035803     8A      0.045226  
	   9A      0.055722    10A      0.058728    11A      0.071443  
	  12A      0.086345    13A      0.088474    14A      0.110090  
	  15A      0.131659    16A      0.133076    17A      0.134622  
	  18A      0.139068    19A      0.139390    20A      0.144599  
	  21A      0.155128    22A      0.180358    23A      0.183352  
	  24A      0.210391    25A      0.213519    26A      0.215710  
	  27A      0.218015    28A      0.235622    29A      0.243947  
	  30A      0.246016    31A      0.248907    32A      0.280531  
	  33A      0.299484    34A      0.312806    35A      0.327720  
	  36A      0.334493    37A      0.340259    38A      0.365213  
	  39A      0.370094    40A      0.380571    41A      0.388584  
	  42A      0.394802    43A      0.408489    44A      0.449963  
	  45A      0.451921    46A      0.452277    47A      0.459640  
	  48A      0.473869    49A      0.496880    50A      0.498164  
	  51A      0.517379    52A      0.521620    53A      0.538225  
	  54A      0.544425    55A      0.548406    56A      0.559626  
	  57A      0.562590    58A      0.562917    59A      0.566004  
	  60A      0.585959    61A      0.595751    62A      0.612066  
	  63A      0.622284    64A      0.644594    65A      0.648032  
	  66A      0.653752    67A      0.662496    68A      0.681987  
	  69A      0.689070    70A      0.706163    71A      0.714728  
	  72A      0.737213    73A      0.766959    74A      0.783663  
	  75A      0.815120    76A      0.824605    77A      0.834953  
	  78A      0.847948    79A      0.853609    80A      0.886215  
	  81A      0.902192    82A      0.908519    83A      0.925219  
	  84A      0.949439    85A      0.966303    86A      0.972555  
	  87A      1.005697    88A      1.013888    89A      1.033167  
	  90A      1.093344    91A      1.104136    92A      1.117146  
	  93A      1.131554    94A      1.146218    95A      1.152476  
	  96A      1.188613    97A      1.195374    98A      1.206355  
	  99A      1.217426   100A      1.227573   101A      1.231534  
	 102A      1.260889   103A      1.313039   104A      1.330561  
	 105A      1.341340   106A      1.390506   107A      1.402948  
	 108A      1.422301   109A      1.444571   110A      1.475481  
	 111A      1.486508   112A      1.569091   113A      1.584167  
	 114A      1.625219   115A      1.630745   116A      1.726962  
	 117A      1.778845   118A      2.017067   119A      2.042674  
	 120A      2.085728   121A      2.105151   122A      2.123184  
	 123A      2.145633   124A      2.156224   125A      2.171128  
	 126A      2.171752   127A      2.192757   128A      2.278536  
	 129A      2.311397   130A      2.328623   131A      2.360891  
	 132A      2.411928   133A      2.412461   134A      2.458460  
	 135A      2.481080   136A      2.484531   137A      2.506951  
	 138A      2.531161   139A      2.540762   140A      2.565056  
	 141A      2.566774   142A      2.584995   143A      2.646324  
	 144A      2.678689   145A      2.684558   146A      2.731779  
	 147A      2.800462   148A      2.880563   149A      2.916186  
	 150A      2.963590   151A      2.963675   152A      2.995113  
	 153A      2.997871   154A      3.077289   155A      3.136604  
	 156A      3.141271   157A      3.173312   158A      3.231215  
	 159A      3.236984   160A      3.326411   161A      3.329393  
	 162A      3.408493   163A      3.437721   164A      3.502817  
	 165A      3.600077   166A      3.606342   167A      3.702751  
	 168A      3.725650   169A      3.729784   170A      3.763802  
	 171A      3.802216   172A      3.820380   173A      3.865583  
	 174A      3.888626   175A      3.891302   176A      3.911109  
	 177A      3.938170   178A      4.009824   179A      4.111086  
	 180A      4.283301   181A      4.365330   182A      4.370480  
	 183A      4.701287   184A      4.735845   185A      4.801212  
	 186A      4.884679   187A      4.997915   188A      5.213781  
	 189A      5.390148   190A      5.599414   191A      5.647256  
	 192A      5.799631   193A      5.853444   194A      6.149695  
	 195A      6.222287   196A      6.508457   197A     18.280727  
	 198A     18.644820   199A     19.381589   200A     25.451344  
	 201A     25.520664  

	Final Occupation by Irrep:
	          A 
	DOCC [     5 ]

  Energy converged.

  @RHF Final Energy:   -76.04183758996831

   => Energetics <=

    Nuclear Repulsion Energy =              9.1557043416390194
    One-Electron Energy =                -122.9105370880125179
    Two-Electron Energy =                  37.7129951564053698
    DFT Exchange-Correlation Energy =       0.0000000000000000
    Empirical Dispersion Energy =           0.0000000000000000
    Total Energy =                        -76.0418375899681251



Properties will be evaluated at   0.000000,   0.000000,   0.000000 Bohr
  ==> Properties <==


Properties computed using the SCF density density matrix
  Nuclear Dipole Moment: (a.u.)
     X:    55.0589      Y:   -20.0823      Z:     1.1731

  Electronic Dipole Moment: (a.u.)
     X:   -54.3453      Y:    19.7693      Z:    -1.1522

  Dipole Moment: (a.u.)
     X:     0.7136      Y:    -0.3130      Z:     0.0208     Total:     0.7795

  Dipole Moment: (Debye)
     X:     1.8138      Y:    -0.7956      Z:     0.0529     Total:     1.9813


  Saving occupied orbitals to File 180.

  Saving SAPT 2-MONOMER_B file.

*** tstop() called on node53.bme.utexas.edu at Tue Aug 26 20:28:07 2014
Module time:
	user time   =      22.13 seconds =       0.37 minutes
	system time =       0.25 seconds =       0.00 minutes
	total time  =          6 seconds =       0.10 minutes
Total time:
	user time   =     106.80 seconds =       1.78 minutes
	system time =       1.01 seconds =       0.02 minutes
	total time  =         29 seconds =       0.48 minutes
  No DF_BASIS_SAPT auxiliary basis selected, defaulting to aug-cc-pvdz-ri

  //>>>>>>>>>>>>>>>>>>>>>>>>>>>>>>>>>>>//
  //               SAPT2+              //
  //<<<<<<<<<<<<<<<<<<<<<<<<<<<<<<<<<<<//


*** tstart() called on node53.bme.utexas.edu
*** at Tue Aug 26 20:28:07 2014

        SAPT2+  
    Ed Hohenstein
     6 June 2009

      Orbital Information
  --------------------------
    NSO        =       201
    NMO        =       201
    NRI        =       593
    NOCC A     =        18
    NOCC B     =         5
    FOCC A     =         5
    FOCC B     =         1
    NVIR A     =       183
    NVIR B     =       196

    Estimated memory usage: 481.0 MB

    Elst10,r            =    -0.037014446718 H
    Exch10 (S^2)        =     0.031621806076 H
    Exch10              =     0.032221185141 H
    Ind20,r (A<-B)      =    -0.003932586131 H
    Ind20,r (B<-A)      =    -0.014016382120 H
    Ind20,r             =    -0.017948968250 H
    Exch-Ind20,r (A<-B) =     0.002823827122 H
    Exch-Ind20,r (B<-A) =     0.005011148007 H
    Exch-Ind20,r        =     0.007834975129 H
    Disp20              =    -0.007715866849 H
    Exch-Disp20         =     0.001328099109 H
    Elst12,r            =     0.001451433391 H
    Exch11              =    -0.000073364513 H
    Exch12              =     0.003558980233 H
    Ind22               =    -0.002081055553 H
    Disp21              =     0.000628856403 H
    Disp22 (SDQ)        =    -0.000125732958 H

    (i =   1 of   4)        102 seconds
    (i =   2 of   4)        204 seconds
    (i =   3 of   4)        306 seconds
    (i =   4 of   4)        408 seconds

    Disp220 (T)         =    -0.000571976317 H

    (i =   1 of  13)         21 seconds
    (i =   2 of  13)         43 seconds
    (i =   3 of  13)         65 seconds
    (i =   4 of  13)         86 seconds
    (i =   5 of  13)        108 seconds
    (i =   6 of  13)        130 seconds
    (i =   7 of  13)        152 seconds
    (i =   8 of  13)        173 seconds
    (i =   9 of  13)        195 seconds
    (i =  10 of  13)        217 seconds
    (i =  11 of  13)        239 seconds
    (i =  12 of  13)        260 seconds
    (i =  13 of  13)        282 seconds

    Disp202 (T)         =    -0.000537867880 H

    Disp22 (T)          =    -0.001109844197 H

    SAPT Results  
  -----------------------------------------------------------------------
    Electrostatics         -35.56301333 mH     -22.31612871 kcal mol^-1
      Elst10,r             -37.01444672 mH     -23.22691695 kcal mol^-1
      Elst12,r               1.45143339 mH       0.91078824 kcal mol^-1

    Exchange                35.70680086 mH      22.40635675 kcal mol^-1
      Exch10                32.22118514 mH      20.21909978 kcal mol^-1
      Exch10(S^2)           31.62180608 mH      19.84298372 kcal mol^-1
      Exch11(S^2)           -0.07336451 mH      -0.04603693 kcal mol^-1
      Exch12(S^2)            3.55898023 mH       2.23329391 kcal mol^-1

    Induction              -17.74549888 mH     -11.13546913 kcal mol^-1
      Ind20,r              -17.94896825 mH     -11.26314809 kcal mol^-1
      Ind22                 -2.08105555 mH      -1.30588213 kcal mol^-1
      Exch-Ind20,r           7.83497513 mH       4.91652133 kcal mol^-1
      Exch-Ind22             0.90840979 mH       0.57003577 kcal mol^-1
      delta HF,r (2)        -6.45886000 mH      -4.05299601 kcal mol^-1

    Dispersion              -6.99448849 mH      -4.38910798 kcal mol^-1
      Disp20                -7.71586685 mH      -4.84177975 kcal mol^-1
      Disp21                 0.62885640 mH       0.39461337 kcal mol^-1
      Disp22 (SDQ)          -0.12573296 mH      -0.07889863 kcal mol^-1
      Disp22 (T)            -1.10984420 mH      -0.69643778 kcal mol^-1
      Exch-Disp20            1.32809911 mH       0.83339481 kcal mol^-1

    Total HF               -21.36611470 mH     -13.40743995 kcal mol^-1
    Total SAPT0            -27.75388244 mH     -17.41582489 kcal mol^-1
    Total SAPT2            -23.98947909 mH     -15.05362603 kcal mol^-1
    Total SAPT2+           -24.59619984 mH     -15.43434907 kcal mol^-1

*** tstop() called on node53.bme.utexas.edu at Tue Aug 26 20:42:44 2014
Module time:
	user time   =    3342.90 seconds =      55.72 minutes
	system time =      30.13 seconds =       0.50 minutes
	total time  =        877 seconds =      14.62 minutes
Total time:
	user time   =    3449.70 seconds =      57.50 minutes
	system time =      31.14 seconds =       0.52 minutes
	total time  =        906 seconds =      15.10 minutes

*** PSI4 exiting successfully. Buy a developer a beer!
