    -----------------------------------------------------------------------
          PSI4: An Open-Source Ab Initio Electronic Structure Package
                              PSI 4.0.0-beta4 Driver

    J. M. Turney, A. C. Simmonett, R. M. Parrish, E. G. Hohenstein,
    F. A. Evangelista, J. T. Fermann, B. J. Mintz, L. A. Burns, J. J. Wilke,
    M. L. Abrams, N. J. Russ, M. L. Leininger, C. L. Janssen, E. T. Seidl,
    W. D. Allen, H. F. Schaefer, R. A. King, E. F. Valeev, C. D. Sherrill,
    and T. D. Crawford, WIREs Comput. Mol. Sci., (2011) (doi: 10.1002/wcms.93)

                         Additional Contributions by
    A. E. DePrince, M. Saitow, U. Bozkaya, A. Yu. Sokolov
    -----------------------------------------------------------------------

    Process ID:  31446
    PSI4DATADIR: /home/xzhu216/psi4/psi4-install/share/psi

    Using LocalCommunicator (Number of processes = 1)

    Memory level set to 256.000 MB

  ==> Input File <==

--------------------------------------------------------------------------
#psi4
#
memory 7 gb

molecule CN3H6_Water {
1 1
    C    -2.482941000     0.145568000     0.115882000
    N    -3.741265000     0.545114000     0.294521000
    N    -2.223001000    -1.065026000    -0.362487000
    N    -1.472124000     0.952664000     0.413850000
    H    -0.525470000     0.627374000     0.269800000
    H    -1.631807000     1.874145000     0.777488000
    H    -3.949510000     1.458240000     0.655417000
    H    -4.513272000    -0.056723000     0.072692000
    H    -2.962356000    -1.701051000    -0.598467000
    H    -1.259909000    -1.346152000    -0.489506000
--
0 1
    O     0.824539666    -0.904585129    -0.353556001
    H     1.372375666    -0.806308129    -1.138889001
    H     1.397263666    -1.358690129     0.272786999
units angstrom
no_reorient  #important for SAPT in psi4, default
symmetry c1  #important for SAPT in psi4, default
}

set {
basis aug-cc-pVDZ
scf_type DF
freeze_core True
}
energy('sapt2+')
--------------------------------------------------------------------------

  Memory set to   7.000 GiB by Python script.

  //>>>>>>>>>>>>>>>>>>>>>>>>>>>>>>>>>>>//
  //              Dimer HF             //
  //<<<<<<<<<<<<<<<<<<<<<<<<<<<<<<<<<<<//


  No DF_BASIS_SCF auxiliary basis selected, defaulting to aug-cc-pvdz-jkfit


*** tstart() called on node144.bme.utexas.edu
*** at Tue Aug 26 20:30:16 2014


         ---------------------------------------------------------
                                   SCF
            by Justin Turney, Rob Parrish, and Andy Simmonett
                              RHF Reference
                        4 Threads,   7000 MiB Core
         ---------------------------------------------------------

  ==> Geometry <==

    Molecular point group: c1
    Full point group: C1

    Geometry (in Angstrom), charge = 1, multiplicity = 1:

       Center              X                  Y                   Z       
    ------------   -----------------  -----------------  -----------------
           C         -0.780470408210     0.247807410264     0.110772922144
           N         -2.038794408210     0.647353410264     0.289411922144
           N         -0.520530408210    -0.962786589736    -0.367596077856
           N          0.230346591790     1.054903410264     0.408740922144
           H          1.177000591790     0.729613410264     0.264690922144
           H          0.070663591790     1.976384410264     0.772378922144
           H         -2.247039408210     1.560479410264     0.650307922144
           H         -2.810801408210     0.045516410264     0.067582922144
           H         -1.259885408210    -1.598811589736    -0.603576077856
           H          0.442561591790    -1.243912589736    -0.494615077856
           O          2.527010257790    -0.802345718736    -0.358665078856
           H          3.074846257790    -0.704068718736    -1.143998078856
           H          3.099734257790    -1.256450718736     0.267677921144

  Running in c1 symmetry.

  Nuclear repulsion =  192.198342741923312

  Charge       = 1
  Multiplicity = 1
  Electrons    = 42
  Nalpha       = 21
  Nbeta        = 21

  ==> Algorithm <==

  SCF Algorithm Type is DF.
  DIIS enabled.
  MOM disabled.
  Fractional occupation disabled.
  Guess Type is CORE.
  Energy threshold   = 1.00e-08
  Density threshold  = 1.00e-08
  Integral threshold = 0.00e+00

  ==> Primary Basis <==

  Basis Set: AUG-CC-PVDZ
    Number of shells: 85
    Number of basis function: 187
    Number of Cartesian functions: 197
    Spherical Harmonics?: true
    Max angular momentum: 2

  ==> Pre-Iterations <==

   -------------------------------------------------------
    Irrep   Nso     Nmo     Nalpha   Nbeta   Ndocc  Nsocc
   -------------------------------------------------------
     A        187     187       0       0       0       0
   -------------------------------------------------------
    Total     187     187      21      21      21       0
   -------------------------------------------------------

 OEINTS: Wrapper to libmints.
   by Justin Turney

   Calculation information:
      Number of atoms:                  13
      Number of AO shells:              85
      Number of SO shells:              85
      Number of primitives:            181
      Number of atomic orbitals:       197
      Number of basis functions:       187

      Number of irreps:                  1
      Number of functions per irrep: [ 187 ]

      Overlap, kinetic, potential, dipole, and quadrupole integrals
        stored in file 35.

  ==> Integral Setup <==

  ==> DFJK: Density-Fitted J/K Matrices <==

    J tasked:                  Yes
    K tasked:                  Yes
    wK tasked:                  No
    OpenMP threads:              4
    Integrals threads:           4
    Memory (MB):              5006
    Algorithm:                Core
    Integral Cache:           SAVE
    Schwarz Cutoff:          0E+00
    Fitting Condition:       1E-12

   => Auxiliary Basis Set <=

  Basis Set: aug-cc-pvdz-jkfit
    Number of shells: 236
    Number of basis function: 686
    Number of Cartesian functions: 785
    Spherical Harmonics?: true
    Max angular momentum: 3

  Minimum eigenvalue in the overlap matrix is 7.4600226957E-05.
  Using Symmetric Orthogonalization.
  SCF Guess: Core (One-Electron) Hamiltonian.

  Guess energy:  -214.60453755485602

  ==> Iterations <==

                        Total Energy        Delta E     RMS |[F,P]|

   @RHF iter   1:  -225.08874945034708   -2.25089e+02   3.58233e-02 
   @RHF iter   2:  -123.92730145137895    1.01161e+02   5.44240e-02 DIIS
   @RHF iter   3:  -235.69530923493622   -1.11768e+02   2.93675e-02 DIIS
   @RHF iter   4:  -247.11202366196332   -1.14167e+01   2.67903e-02 DIIS
   @RHF iter   5:  -279.76694686870428   -3.26549e+01   7.36017e-03 DIIS
   @RHF iter   6:  -280.45381122633671   -6.86864e-01   3.30496e-03 DIIS
   @RHF iter   7:  -280.61674561714665   -1.62934e-01   7.21655e-04 DIIS
   @RHF iter   8:  -280.62991687812860   -1.31713e-02   1.12922e-04 DIIS
   @RHF iter   9:  -280.63039858671868   -4.81709e-04   5.57936e-05 DIIS
   @RHF iter  10:  -280.63047753482999   -7.89481e-05   1.68538e-05 DIIS
   @RHF iter  11:  -280.63048886838340   -1.13336e-05   5.72957e-06 DIIS
   @RHF iter  12:  -280.63048982445082   -9.56067e-07   1.90178e-06 DIIS
   @RHF iter  13:  -280.63048997141436   -1.46964e-07   5.35181e-07 DIIS
   @RHF iter  14:  -280.63048997971168   -8.29732e-09   1.01325e-07 DIIS
   @RHF iter  15:  -280.63048997998942   -2.77737e-10   2.96863e-08 DIIS
   @RHF iter  16:  -280.63048998001750   -2.80806e-11   4.11240e-09 DIIS

  ==> Post-Iterations <==

	Orbital Energies (a.u.)
	-----------------------

	Doubly Occupied:                                                      

	   1A    -20.743853     2A    -15.786611     3A    -15.778146  
	   4A    -15.778119     5A    -11.591876     6A     -1.533707  
	   7A     -1.522158     8A     -1.386244     9A     -1.380164  
	  10A     -1.057207    11A     -0.968980    12A     -0.962052  
	  13A     -0.880960    14A     -0.853249    15A     -0.851693  
	  16A     -0.848736    17A     -0.795413    18A     -0.756771  
	  19A     -0.679430    20A     -0.611149    21A     -0.604270  

	Virtual:                                                              

	  22A     -0.090585    23A     -0.071941    24A     -0.069129  
	  25A     -0.048573    26A     -0.046962    27A     -0.040086  
	  28A     -0.020205    29A     -0.018331    30A     -0.004638  
	  31A      0.004211    32A      0.011552    33A      0.029939  
	  34A      0.030931    35A      0.040363    36A      0.042502  
	  37A      0.052212    38A      0.064165    39A      0.069902  
	  40A      0.075783    41A      0.076920    42A      0.078923  
	  43A      0.103875    44A      0.111229    45A      0.130270  
	  46A      0.135596    47A      0.139527    48A      0.155087  
	  49A      0.160922    50A      0.174782    51A      0.184398  
	  52A      0.189053    53A      0.201786    54A      0.230577  
	  55A      0.232170    56A      0.244162    57A      0.247370  
	  58A      0.258577    59A      0.263244    60A      0.284929  
	  61A      0.285952    62A      0.328905    63A      0.330280  
	  64A      0.335073    65A      0.354058    66A      0.357294  
	  67A      0.372649    68A      0.395098    69A      0.395859  
	  70A      0.405695    71A      0.423727    72A      0.425586  
	  73A      0.432951    74A      0.451856    75A      0.454999  
	  76A      0.480307    77A      0.492632    78A      0.492659  
	  79A      0.497730    80A      0.504305    81A      0.532283  
	  82A      0.549929    83A      0.559820    84A      0.566201  
	  85A      0.582373    86A      0.590831    87A      0.620572  
	  88A      0.631732    89A      0.634077    90A      0.679329  
	  91A      0.680290    92A      0.688353    93A      0.708031  
	  94A      0.753998    95A      0.756749    96A      0.756877  
	  97A      0.762930    98A      0.811444    99A      0.826632  
	 100A      0.828233   101A      0.838826   102A      0.842513  
	 103A      0.852868   104A      0.878487   105A      0.887965  
	 106A      0.898852   107A      0.917406   108A      0.932336  
	 109A      1.012773   110A      1.032540   111A      1.102826  
	 112A      1.115412   113A      1.140714   114A      1.169772  
	 115A      1.280615   116A      1.327624   117A      1.355625  
	 118A      1.367528   119A      1.374167   120A      1.388816  
	 121A      1.416094   122A      1.446776   123A      1.497904  
	 124A      1.527038   125A      1.598040   126A      1.598911  
	 127A      1.600905   128A      1.635948   129A      1.758391  
	 130A      1.778370   131A      1.783940   132A      1.794113  
	 133A      1.794919   134A      1.826441   135A      1.826470  
	 136A      1.884643   137A      1.946799   138A      1.977218  
	 139A      2.018015   140A      2.024969   141A      2.062885  
	 142A      2.070512   143A      2.075324   144A      2.086393  
	 145A      2.133356   146A      2.135983   147A      2.161121  
	 148A      2.182312   149A      2.211238   150A      2.218837  
	 151A      2.282768   152A      2.293146   153A      2.310943  
	 154A      2.346499   155A      2.366082   156A      2.375502  
	 157A      2.435972   158A      2.488778   159A      2.528220  
	 160A      2.532162   161A      2.541978   162A      2.566844  
	 163A      2.599774   164A      2.625788   165A      2.641538  
	 166A      2.642680   167A      2.716529   168A      2.763246  
	 169A      2.764181   170A      2.785431   171A      2.802098  
	 172A      2.832927   173A      2.959146   174A      3.186537  
	 175A      3.197008   176A      3.223304   177A      3.259092  
	 178A      3.286571   179A      3.304304   180A      3.547152  
	 181A      3.648127   182A      3.693702   183A      3.811974  
	 184A      3.843619   185A      3.937896   186A      4.057476  
	 187A      4.178443  

	Final Occupation by Irrep:
	          A 
	DOCC [    21 ]

  Energy converged.

  @RHF Final Energy:  -280.63048998001750

   => Energetics <=

    Nuclear Repulsion Energy =            192.1983427419233124
    One-Electron Energy =                -754.9160880161059595
    Two-Electron Energy =                 282.0872552941645495
    DFT Exchange-Correlation Energy =       0.0000000000000000
    Empirical Dispersion Energy =           0.0000000000000000
    Total Energy =                       -280.6304899800181261



Properties will be evaluated at   0.000000,   0.000000,   0.000000 Bohr
  ==> Properties <==


Properties computed using the SCF density density matrix
  Nuclear Dipole Moment: (a.u.)
     X:     1.4692      Y:    -0.4665      Z:    -0.2085

  Electronic Dipole Moment: (a.u.)
     X:    -1.7119      Y:     0.5436      Z:     0.2430

  Dipole Moment: (a.u.)
     X:    -0.2426      Y:     0.0770      Z:     0.0345     Total:     0.2569

  Dipole Moment: (Debye)
     X:    -0.6167      Y:     0.1958      Z:     0.0876     Total:     0.6529


  Saving occupied orbitals to File 180.

  Saving SAPT 2-DIMER file.

*** tstop() called on node144.bme.utexas.edu at Tue Aug 26 20:30:26 2014
Module time:
	user time   =      36.03 seconds =       0.60 minutes
	system time =       0.40 seconds =       0.01 minutes
	total time  =         10 seconds =       0.17 minutes
Total time:
	user time   =      36.03 seconds =       0.60 minutes
	system time =       0.40 seconds =       0.01 minutes
	total time  =         10 seconds =       0.17 minutes

  //>>>>>>>>>>>>>>>>>>>>>>>>>>>>>>>>>>>//
  //            Monomer A HF           //
  //<<<<<<<<<<<<<<<<<<<<<<<<<<<<<<<<<<<//


  No DF_BASIS_SCF auxiliary basis selected, defaulting to aug-cc-pvdz-jkfit


*** tstart() called on node144.bme.utexas.edu
*** at Tue Aug 26 20:30:26 2014


         ---------------------------------------------------------
                                   SCF
            by Justin Turney, Rob Parrish, and Andy Simmonett
                              RHF Reference
                        4 Threads,   7000 MiB Core
         ---------------------------------------------------------

  ==> Geometry <==

    Molecular point group: c1
    Full point group: C1

    Geometry (in Angstrom), charge = 1, multiplicity = 1:

       Center              X                  Y                   Z       
    ------------   -----------------  -----------------  -----------------
           C         -0.780470408210     0.247807410264     0.110772922144
           N         -2.038794408210     0.647353410264     0.289411922144
           N         -0.520530408210    -0.962786589736    -0.367596077856
           N          0.230346591790     1.054903410264     0.408740922144
           H          1.177000591790     0.729613410264     0.264690922144
           H          0.070663591790     1.976384410264     0.772378922144
           H         -2.247039408210     1.560479410264     0.650307922144
           H         -2.810801408210     0.045516410264     0.067582922144
           H         -1.259885408210    -1.598811589736    -0.603576077856
           H          0.442561591790    -1.243912589736    -0.494615077856
           O(Gh)      2.527010257790    -0.802345718736    -0.358665078856
           H(Gh)      3.074846257790    -0.704068718736    -1.143998078856
           H(Gh)      3.099734257790    -1.256450718736     0.267677921144

  Running in c1 symmetry.

  Nuclear repulsion =  134.052273796773420

  Charge       = 1
  Multiplicity = 1
  Electrons    = 32
  Nalpha       = 16
  Nbeta        = 16

  ==> Algorithm <==

  SCF Algorithm Type is DF.
  DIIS enabled.
  MOM disabled.
  Fractional occupation disabled.
  Guess Type is CORE.
  Energy threshold   = 1.00e-08
  Density threshold  = 1.00e-08
  Integral threshold = 0.00e+00

  ==> Primary Basis <==

  Basis Set: AUG-CC-PVDZ
    Number of shells: 85
    Number of basis function: 187
    Number of Cartesian functions: 197
    Spherical Harmonics?: true
    Max angular momentum: 2

  ==> Pre-Iterations <==

   -------------------------------------------------------
    Irrep   Nso     Nmo     Nalpha   Nbeta   Ndocc  Nsocc
   -------------------------------------------------------
     A        187     187       0       0       0       0
   -------------------------------------------------------
    Total     187     187      16      16      16       0
   -------------------------------------------------------

 OEINTS: Wrapper to libmints.
   by Justin Turney

   Calculation information:
      Number of atoms:                  13
      Number of AO shells:              85
      Number of SO shells:              85
      Number of primitives:            181
      Number of atomic orbitals:       197
      Number of basis functions:       187

      Number of irreps:                  1
      Number of functions per irrep: [ 187 ]

      Overlap, kinetic, potential, dipole, and quadrupole integrals
        stored in file 35.

  ==> Integral Setup <==

  ==> DFJK: Density-Fitted J/K Matrices <==

    J tasked:                  Yes
    K tasked:                  Yes
    wK tasked:                  No
    OpenMP threads:              4
    Integrals threads:           4
    Memory (MB):              5006
    Algorithm:                Core
    Integral Cache:           LOAD
    Schwarz Cutoff:          0E+00
    Fitting Condition:       1E-12

   => Auxiliary Basis Set <=

  Basis Set: aug-cc-pvdz-jkfit
    Number of shells: 236
    Number of basis function: 686
    Number of Cartesian functions: 785
    Spherical Harmonics?: true
    Max angular momentum: 3

  Minimum eigenvalue in the overlap matrix is 7.4600226957E-05.
  Using Symmetric Orthogonalization.
  SCF Guess: Core (One-Electron) Hamiltonian.

  Guess energy:  -153.82238450749009

  ==> Iterations <==

                        Total Energy        Delta E     RMS |[F,P]|

   @RHF iter   1:  -173.01951082050448   -1.73020e+02   3.02648e-02 
   @RHF iter   2:  -166.53308529433264    6.48643e+00   2.61387e-02 DIIS
   @RHF iter   3:  -202.80052180403754   -3.62674e+01   1.06843e-02 DIIS
   @RHF iter   4:  -203.78326501595956   -9.82743e-01   6.86213e-03 DIIS
   @RHF iter   5:  -204.40752008940905   -6.24255e-01   2.84103e-03 DIIS
   @RHF iter   6:  -204.56119685981747   -1.53677e-01   4.00307e-04 DIIS
   @RHF iter   7:  -204.56463975435821   -3.44289e-03   1.35778e-04 DIIS
   @RHF iter   8:  -204.56495051900311   -3.10765e-04   1.97795e-05 DIIS
   @RHF iter   9:  -204.56496439611959   -1.38771e-05   5.85077e-06 DIIS
   @RHF iter  10:  -204.56496559571366   -1.19959e-06   1.44477e-06 DIIS
   @RHF iter  11:  -204.56496570138711   -1.05673e-07   3.80535e-07 DIIS
   @RHF iter  12:  -204.56496570619493   -4.80782e-09   6.01697e-08 DIIS
   @RHF iter  13:  -204.56496570637285   -1.77920e-10   1.20928e-08 DIIS
   @RHF iter  14:  -204.56496570638041   -7.56017e-12   3.30753e-09 DIIS

  ==> Post-Iterations <==

	Orbital Energies (a.u.)
	-----------------------

	Doubly Occupied:                                                      

	   1A    -15.806804     2A    -15.806777     3A    -15.805954  
	   4A    -11.615811     5A     -1.557199     6A     -1.408217  
	   7A     -1.406348     8A     -1.080652     9A     -0.992660  
	  10A     -0.985435    11A     -0.876060    12A     -0.872053  
	  13A     -0.871185    14A     -0.818818    15A     -0.631901  
	  16A     -0.631176  

	Virtual:                                                              

	  17A     -0.103677    18A     -0.079302    19A     -0.078183  
	  20A     -0.053955    21A     -0.051256    22A     -0.049757  
	  23A     -0.022615    24A     -0.019078    25A     -0.010869  
	  26A     -0.006870    27A     -0.001965    28A     -0.001016  
	  29A      0.020115    30A      0.025911    31A      0.029792  
	  32A      0.044816    33A      0.047610    34A      0.056813  
	  35A      0.059151    36A      0.064369    37A      0.071346  
	  38A      0.082774    39A      0.093960    40A      0.109128  
	  41A      0.109953    42A      0.128896    43A      0.138668  
	  44A      0.164521    45A      0.175518    46A      0.175693  
	  47A      0.203057    48A      0.206104    49A      0.219045  
	  50A      0.221509    51A      0.230173    52A      0.244142  
	  53A      0.258531    54A      0.263354    55A      0.286430  
	  56A      0.318425    57A      0.319616    58A      0.331136  
	  59A      0.331336    60A      0.336657    61A      0.337233  
	  62A      0.350411    63A      0.371367    64A      0.375240  
	  65A      0.376344    66A      0.401182    67A      0.413992  
	  68A      0.417337    69A      0.423885    70A      0.437461  
	  71A      0.445422    72A      0.466103    73A      0.473793  
	  74A      0.475892    75A      0.499183    76A      0.502139  
	  77A      0.532834    78A      0.549490    79A      0.553776  
	  80A      0.567332    81A      0.568631    82A      0.598204  
	  83A      0.608529    84A      0.618729    85A      0.661122  
	  86A      0.661617    87A      0.701237    88A      0.707193  
	  89A      0.707914    90A      0.727597    91A      0.740520  
	  92A      0.791337    93A      0.796083    94A      0.803807  
	  95A      0.819551    96A      0.823802    97A      0.837468  
	  98A      0.855258    99A      0.880781   100A      0.881281  
	 101A      0.897557   102A      0.951868   103A      1.012328  
	 104A      1.044206   105A      1.072325   106A      1.096865  
	 107A      1.116531   108A      1.166745   109A      1.171789  
	 110A      1.202956   111A      1.208916   112A      1.327002  
	 113A      1.335408   114A      1.340613   115A      1.356768  
	 116A      1.364132   117A      1.364906   118A      1.387955  
	 119A      1.394259   120A      1.506098   121A      1.539845  
	 122A      1.563577   123A      1.580719   124A      1.581726  
	 125A      1.752365   126A      1.755997   127A      1.760018  
	 128A      1.774555   129A      1.788353   130A      1.807202  
	 131A      1.968134   132A      1.972763   133A      1.992401  
	 134A      2.039954   135A      2.040717   136A      2.058091  
	 137A      2.066768   138A      2.097826   139A      2.098789  
	 140A      2.142504   141A      2.187995   142A      2.191531  
	 143A      2.194008   144A      2.243610   145A      2.263658  
	 146A      2.272184   147A      2.297871   148A      2.314043  
	 149A      2.345276   150A      2.349093   151A      2.415652  
	 152A      2.459287   153A      2.460578   154A      2.507272  
	 155A      2.516848   156A      2.519981   157A      2.545437  
	 158A      2.587349   159A      2.612187   160A      2.616875  
	 161A      2.731919   162A      2.740915   163A      2.762080  
	 164A      2.771570   165A      2.787565   166A      2.886581  
	 167A      3.164014   168A      3.175373   169A      3.201909  
	 170A      3.223398   171A      3.260917   172A      3.270683  
	 173A      3.465361   174A      3.765231   175A      3.769555  
	 176A      3.826895   177A      4.027602   178A      4.054632  
	 179A      4.806293   180A      4.930009   181A      4.950062  
	 182A      5.085172   183A      5.234808   184A      5.706227  
	 185A      6.546994   186A      6.878972   187A     33.403118  

	Final Occupation by Irrep:
	          A 
	DOCC [    16 ]

  Energy converged.

  @RHF Final Energy:  -204.56496570638041

   => Energetics <=

    Nuclear Repulsion Energy =            134.0522737967734201
    One-Electron Energy =                -534.9003817669600949
    Two-Electron Energy =                 196.2831422638067522
    DFT Exchange-Correlation Energy =       0.0000000000000000
    Empirical Dispersion Energy =           0.0000000000000000
    Total Energy =                       -204.5649657063799225



Properties will be evaluated at   0.000000,   0.000000,   0.000000 Bohr
  ==> Properties <==


Properties computed using the SCF density density matrix
  Nuclear Dipole Moment: (a.u.)
     X:   -48.4019      Y:    15.3680      Z:     6.8697

  Electronic Dipole Moment: (a.u.)
     X:    46.9422      Y:   -14.9045      Z:    -6.6626

  Dipole Moment: (a.u.)
     X:    -1.4597      Y:     0.4635      Z:     0.2072     Total:     1.5455

  Dipole Moment: (Debye)
     X:    -3.7102      Y:     1.1780      Z:     0.5266     Total:     3.9282


  Saving occupied orbitals to File 180.

  Saving SAPT 2-MONOMER_A file.

*** tstop() called on node144.bme.utexas.edu at Tue Aug 26 20:30:33 2014
Module time:
	user time   =      24.03 seconds =       0.40 minutes
	system time =       0.22 seconds =       0.00 minutes
	total time  =          7 seconds =       0.12 minutes
Total time:
	user time   =      60.08 seconds =       1.00 minutes
	system time =       0.63 seconds =       0.01 minutes
	total time  =         17 seconds =       0.28 minutes

  //>>>>>>>>>>>>>>>>>>>>>>>>>>>>>>>>>>>//
  //            Monomer B HF           //
  //<<<<<<<<<<<<<<<<<<<<<<<<<<<<<<<<<<<//


  No DF_BASIS_SCF auxiliary basis selected, defaulting to aug-cc-pvdz-jkfit


*** tstart() called on node144.bme.utexas.edu
*** at Tue Aug 26 20:30:33 2014


         ---------------------------------------------------------
                                   SCF
            by Justin Turney, Rob Parrish, and Andy Simmonett
                              RHF Reference
                        4 Threads,   7000 MiB Core
         ---------------------------------------------------------

  ==> Geometry <==

    Molecular point group: c1
    Full point group: C1

    Geometry (in Angstrom), charge = 0, multiplicity = 1:

       Center              X                  Y                   Z       
    ------------   -----------------  -----------------  -----------------
           C(Gh)     -0.780470408210     0.247807410264     0.110772922144
           N(Gh)     -2.038794408210     0.647353410264     0.289411922144
           N(Gh)     -0.520530408210    -0.962786589736    -0.367596077856
           N(Gh)      0.230346591790     1.054903410264     0.408740922144
           H(Gh)      1.177000591790     0.729613410264     0.264690922144
           H(Gh)      0.070663591790     1.976384410264     0.772378922144
           H(Gh)     -2.247039408210     1.560479410264     0.650307922144
           H(Gh)     -2.810801408210     0.045516410264     0.067582922144
           H(Gh)     -1.259885408210    -1.598811589736    -0.603576077856
           H(Gh)      0.442561591790    -1.243912589736    -0.494615077856
           O          2.527010257790    -0.802345718736    -0.358665078856
           H          3.074846257790    -0.704068718736    -1.143998078856
           H          3.099734257790    -1.256450718736     0.267677921144

  Running in c1 symmetry.

  Nuclear repulsion =    9.145161256547166

  Charge       = 0
  Multiplicity = 1
  Electrons    = 10
  Nalpha       = 5
  Nbeta        = 5

  ==> Algorithm <==

  SCF Algorithm Type is DF.
  DIIS enabled.
  MOM disabled.
  Fractional occupation disabled.
  Guess Type is CORE.
  Energy threshold   = 1.00e-08
  Density threshold  = 1.00e-08
  Integral threshold = 0.00e+00

  ==> Primary Basis <==

  Basis Set: AUG-CC-PVDZ
    Number of shells: 85
    Number of basis function: 187
    Number of Cartesian functions: 197
    Spherical Harmonics?: true
    Max angular momentum: 2

  ==> Pre-Iterations <==

   -------------------------------------------------------
    Irrep   Nso     Nmo     Nalpha   Nbeta   Ndocc  Nsocc
   -------------------------------------------------------
     A        187     187       0       0       0       0
   -------------------------------------------------------
    Total     187     187       5       5       5       0
   -------------------------------------------------------

 OEINTS: Wrapper to libmints.
   by Justin Turney

   Calculation information:
      Number of atoms:                  13
      Number of AO shells:              85
      Number of SO shells:              85
      Number of primitives:            181
      Number of atomic orbitals:       197
      Number of basis functions:       187

      Number of irreps:                  1
      Number of functions per irrep: [ 187 ]

      Overlap, kinetic, potential, dipole, and quadrupole integrals
        stored in file 35.

  ==> Integral Setup <==

  ==> DFJK: Density-Fitted J/K Matrices <==

    J tasked:                  Yes
    K tasked:                  Yes
    wK tasked:                  No
    OpenMP threads:              4
    Integrals threads:           4
    Memory (MB):              5006
    Algorithm:                Core
    Integral Cache:           LOAD
    Schwarz Cutoff:          0E+00
    Fitting Condition:       1E-12

   => Auxiliary Basis Set <=

  Basis Set: aug-cc-pvdz-jkfit
    Number of shells: 236
    Number of basis function: 686
    Number of Cartesian functions: 785
    Spherical Harmonics?: true
    Max angular momentum: 3

  Minimum eigenvalue in the overlap matrix is 7.4600226957E-05.
  Using Symmetric Orthogonalization.
  SCF Guess: Core (One-Electron) Hamiltonian.

  Guess energy:   -58.69206299286874

  ==> Iterations <==

                        Total Energy        Delta E     RMS |[F,P]|

   @RHF iter   1:   -68.34691657548227   -6.83469e+01   1.84188e-02 
   @RHF iter   2:   -64.99873681198366    3.34818e+00   1.38989e-02 DIIS
   @RHF iter   3:   -75.00049097311883   -1.00018e+01   8.67523e-03 DIIS
   @RHF iter   4:   -75.82582808902687   -8.25337e-01   3.79412e-03 DIIS
   @RHF iter   5:   -76.04012484454589   -2.14297e-01   3.22736e-04 DIIS
   @RHF iter   6:   -76.04129864441710   -1.17380e-03   1.50343e-04 DIIS
   @RHF iter   7:   -76.04156902184869   -2.70377e-04   1.68103e-05 DIIS
   @RHF iter   8:   -76.04157396967712   -4.94783e-06   2.82575e-06 DIIS
   @RHF iter   9:   -76.04157420459170   -2.34915e-07   6.42839e-07 DIIS
   @RHF iter  10:   -76.04157421353929   -8.94759e-09   1.25674e-07 DIIS
   @RHF iter  11:   -76.04157421388717   -3.47882e-10   1.05614e-08 DIIS
   @RHF iter  12:   -76.04157421389147   -4.29168e-12   2.23357e-09 DIIS

  ==> Post-Iterations <==

	Orbital Energies (a.u.)
	-----------------------

	Doubly Occupied:                                                      

	   1A    -20.578499     2A     -1.354256     3A     -0.714977  
	   4A     -0.585543     5A     -0.508933  

	Virtual:                                                              

	   6A      0.028630     7A      0.038147     8A      0.048156  
	   9A      0.056081    10A      0.063117    11A      0.078153  
	  12A      0.093932    13A      0.097437    14A      0.103301  
	  15A      0.109421    16A      0.137547    17A      0.147341  
	  18A      0.164476    19A      0.168045    20A      0.176331  
	  21A      0.188081    22A      0.198015    23A      0.203011  
	  24A      0.214603    25A      0.220109    26A      0.234798  
	  27A      0.239833    28A      0.251685    29A      0.251915  
	  30A      0.272947    31A      0.280061    32A      0.302589  
	  33A      0.309300    34A      0.326626    35A      0.364357  
	  36A      0.369292    37A      0.427286    38A      0.427302  
	  39A      0.443477    40A      0.458042    41A      0.463055  
	  42A      0.470625    43A      0.481820    44A      0.482562  
	  45A      0.496858    46A      0.498534    47A      0.509499  
	  48A      0.513100    49A      0.532725    50A      0.533837  
	  51A      0.534211    52A      0.540327    53A      0.551331  
	  54A      0.554104    55A      0.555849    56A      0.592033  
	  57A      0.594861    58A      0.613453    59A      0.625309  
	  60A      0.635854    61A      0.650800    62A      0.668707  
	  63A      0.675485    64A      0.680716    65A      0.695437  
	  66A      0.730619    67A      0.744821    68A      0.781782  
	  69A      0.822255    70A      0.841566    71A      0.842049  
	  72A      0.847016    73A      0.903682    74A      0.938618  
	  75A      0.950551    76A      0.983667    77A      1.003848  
	  78A      1.007280    79A      1.013631    80A      1.039004  
	  81A      1.087488    82A      1.115478    83A      1.117017  
	  84A      1.138607    85A      1.142529    86A      1.147111  
	  87A      1.171907    88A      1.176285    89A      1.203154  
	  90A      1.214899    91A      1.219614    92A      1.223640  
	  93A      1.228129    94A      1.252157    95A      1.264768  
	  96A      1.298665    97A      1.307090    98A      1.309094  
	  99A      1.371611   100A      1.375640   101A      1.399150  
	 102A      1.410993   103A      1.442317   104A      1.551796  
	 105A      1.583252   106A      1.583867   107A      1.600697  
	 108A      1.665258   109A      1.796198   110A      2.023867  
	 111A      2.031684   112A      2.095098   113A      2.151440  
	 114A      2.159387   115A      2.311895   116A      2.333829  
	 117A      2.341701   118A      2.364508   119A      2.390562  
	 120A      2.391002   121A      2.393607   122A      2.398776  
	 123A      2.443011   124A      2.499058   125A      2.504170  
	 126A      2.508849   127A      2.526183   128A      2.578294  
	 129A      2.586153   130A      2.638676   131A      2.670639  
	 132A      2.733119   133A      2.741083   134A      2.755229  
	 135A      2.782463   136A      2.854775   137A      2.893363  
	 138A      2.943822   139A      2.978344   140A      3.062111  
	 141A      3.135617   142A      3.173870   143A      3.242564  
	 144A      3.381716   145A      3.406755   146A      3.415656  
	 147A      3.423872   148A      3.480956   149A      3.519932  
	 150A      3.596784   151A      3.598314   152A      3.610440  
	 153A      3.651771   154A      3.665384   155A      3.694200  
	 156A      3.717839   157A      3.758145   158A      3.773704  
	 159A      3.865421   160A      3.872300   161A      3.881386  
	 162A      3.903666   163A      3.980949   164A      4.098430  
	 165A      4.234705   166A      4.344477   167A      4.384181  
	 168A      4.438109   169A      4.607386   170A      4.648946  
	 171A      4.682808   172A      4.711389   173A      4.724338  
	 174A      4.729075   175A      5.239868   176A      5.474228  
	 177A      5.478096   178A      5.728541   179A      6.188128  
	 180A      6.206198   181A      6.226134   182A      6.464137  
	 183A      6.483491   184A     19.068010   185A     25.488022  
	 186A     25.501308   187A     25.642257  

	Final Occupation by Irrep:
	          A 
	DOCC [     5 ]

  Energy converged.

  @RHF Final Energy:   -76.04157421389147

   => Energetics <=

    Nuclear Repulsion Energy =              9.1451612565471656
    One-Electron Energy =                -122.8890544022665239
    Two-Electron Energy =                  37.7023189318277545
    DFT Exchange-Correlation Energy =       0.0000000000000000
    Empirical Dispersion Energy =           0.0000000000000000
    Total Energy =                        -76.0415742138916073



Properties will be evaluated at   0.000000,   0.000000,   0.000000 Bohr
  ==> Properties <==


Properties computed using the SCF density density matrix
  Nuclear Dipole Moment: (a.u.)
     X:    49.8711      Y:   -15.8346      Z:    -7.0782

  Electronic Dipole Moment: (a.u.)
     X:   -49.1272      Y:    15.5983      Z:     6.9727

  Dipole Moment: (a.u.)
     X:     0.7439      Y:    -0.2362      Z:    -0.1056     Total:     0.7876

  Dipole Moment: (Debye)
     X:     1.8909      Y:    -0.6004      Z:    -0.2683     Total:     2.0020


  Saving occupied orbitals to File 180.

  Saving SAPT 2-MONOMER_B file.

*** tstop() called on node144.bme.utexas.edu at Tue Aug 26 20:30:38 2014
Module time:
	user time   =      18.67 seconds =       0.31 minutes
	system time =       0.19 seconds =       0.00 minutes
	total time  =          5 seconds =       0.08 minutes
Total time:
	user time   =      78.77 seconds =       1.31 minutes
	system time =       0.82 seconds =       0.01 minutes
	total time  =         22 seconds =       0.37 minutes
  No DF_BASIS_SAPT auxiliary basis selected, defaulting to aug-cc-pvdz-ri

  //>>>>>>>>>>>>>>>>>>>>>>>>>>>>>>>>>>>//
  //               SAPT2+              //
  //<<<<<<<<<<<<<<<<<<<<<<<<<<<<<<<<<<<//


*** tstart() called on node144.bme.utexas.edu
*** at Tue Aug 26 20:30:38 2014

        SAPT2+  
    Ed Hohenstein
     6 June 2009

      Orbital Information
  --------------------------
    NSO        =       187
    NMO        =       187
    NRI        =       544
    NOCC A     =        16
    NOCC B     =         5
    FOCC A     =         4
    FOCC B     =         1
    NVIR A     =       171
    NVIR B     =       182

    Estimated memory usage: 347.7 MB

    Elst10,r            =    -0.029114161485 H
    Exch10 (S^2)        =     0.012084210065 H
    Exch10              =     0.012143800189 H
    Ind20,r (A<-B)      =    -0.001354504277 H
    Ind20,r (B<-A)      =    -0.006506647162 H
    Ind20,r             =    -0.007861151439 H
    Exch-Ind20,r (A<-B) =     0.000603241070 H
    Exch-Ind20,r (B<-A) =     0.002048181959 H
    Exch-Ind20,r        =     0.002651423030 H
    Disp20              =    -0.005074781144 H
    Exch-Disp20         =     0.000668346140 H
    Elst12,r            =     0.001027642088 H
    Exch11              =    -0.000027078091 H
    Exch12              =     0.002103892268 H
    Ind22               =    -0.001026746750 H
    Disp21              =     0.000250798130 H
    Disp22 (SDQ)        =    -0.000113568534 H

    (i =   1 of   4)         67 seconds
    (i =   2 of   4)        135 seconds
    (i =   3 of   4)        202 seconds
    (i =   4 of   4)        269 seconds

    Disp220 (T)         =    -0.000364523995 H

    (i =   1 of  12)         16 seconds
    (i =   2 of  12)         33 seconds
    (i =   3 of  12)         49 seconds
    (i =   4 of  12)         65 seconds
    (i =   5 of  12)         81 seconds
    (i =   6 of  12)         97 seconds
    (i =   7 of  12)        113 seconds
    (i =   8 of  12)        130 seconds
    (i =   9 of  12)        146 seconds
    (i =  10 of  12)        162 seconds
    (i =  11 of  12)        178 seconds
    (i =  12 of  12)        194 seconds

    Disp202 (T)         =    -0.000394330739 H

    Disp22 (T)          =    -0.000758854734 H

    SAPT Results  
  -----------------------------------------------------------------------
    Electrostatics         -28.08651940 mH     -17.62455774 kcal mol^-1
      Elst10,r             -29.11416149 mH     -18.26941292 kcal mol^-1
      Elst12,r               1.02764209 mH       0.64485517 kcal mol^-1

    Exchange                14.22061437 mH       8.92357061 kcal mol^-1
      Exch10                12.14380019 mH       7.62034998 kcal mol^-1
      Exch10(S^2)           12.08421006 mH       7.58295662 kcal mol^-1
      Exch11(S^2)           -0.02707809 mH      -0.01699176 kcal mol^-1
      Exch12(S^2)            2.10389227 mH       1.32021239 kcal mol^-1

    Induction               -7.66014224 mH      -4.80681203 kcal mol^-1
      Ind20,r               -7.86115144 mH      -4.93294721 kcal mol^-1
      Ind22                 -1.02674675 mH      -0.64429334 kcal mol^-1
      Exch-Ind20,r           2.65142303 mH       1.66379314 kcal mol^-1
      Exch-Ind22             0.34630296 mH       0.21730839 kcal mol^-1
      delta HF,r (2)        -1.76997004 mH      -1.11067301 kcal mol^-1

    Dispersion              -5.02806014 mH      -3.15515551 kcal mol^-1
      Disp20                -5.07478114 mH      -3.18447338 kcal mol^-1
      Disp21                 0.25079813 mH       0.15737821 kcal mol^-1
      Disp22 (SDQ)          -0.11356853 mH      -0.07126533 kcal mol^-1
      Disp22 (T)            -0.75885473 mH      -0.47618855 kcal mol^-1
      Exch-Disp20            0.66834614 mH       0.41939355 kcal mol^-1

    Total HF               -23.95005975 mH     -15.02889002 kcal mol^-1
    Total SAPT0            -28.35649475 mH     -17.79396984 kcal mol^-1
    Total SAPT2            -25.93248228 mH     -16.27287899 kcal mol^-1
    Total SAPT2+           -26.55410742 mH     -16.66295467 kcal mol^-1

*** tstop() called on node144.bme.utexas.edu at Tue Aug 26 20:40:31 2014
Module time:
	user time   =    2303.01 seconds =      38.38 minutes
	system time =      17.96 seconds =       0.30 minutes
	total time  =        593 seconds =       9.88 minutes
Total time:
	user time   =    2381.78 seconds =      39.70 minutes
	system time =      18.78 seconds =       0.31 minutes
	total time  =        615 seconds =      10.25 minutes

*** PSI4 exiting successfully. Buy a developer a beer!
