
    -----------------------------------------------------------------------
          Psi4: An Open-Source Ab Initio Electronic Structure Package
                               Psi4 1.4a2.dev224 

                         Git: Rev {master} e453b16 


    R. M. Parrish, L. A. Burns, D. G. A. Smith, A. C. Simmonett,
    A. E. DePrince III, E. G. Hohenstein, U. Bozkaya, A. Yu. Sokolov,
    R. Di Remigio, R. M. Richard, J. F. Gonthier, A. M. James,
    H. R. McAlexander, A. Kumar, M. Saitow, X. Wang, B. P. Pritchard,
    P. Verma, H. F. Schaefer III, K. Patkowski, R. A. King, E. F. Valeev,
    F. A. Evangelista, J. M. Turney, T. D. Crawford, and C. D. Sherrill,
    J. Chem. Theory Comput. 13(7) pp 3185--3197 (2017).
    (doi: 10.1021/acs.jctc.7b00174)


                         Additional Contributions by
    P. Kraus, H. Kruse, M. H. Lechner, M. C. Schieber, R. A. Shaw,
    A. Alenaizan, R. Galvelis, Z. L. Glick, S. Lehtola, and J. P. Misiewicz

    -----------------------------------------------------------------------


    Psi4 started on: Thursday, 23 April 2020 05:17PM

    Process ID: 61105
    Host:       node90.bme.utexas.edu
    PSIDATADIR: /home/liuchw/anaconda3/envs/psi4env/share/psi4
    Memory:     500.0 MiB
    Threads:    8
    
  ==> Input File <==

--------------------------------------------------------------------------
#Generated by lconvert.py for sapt job

memory 20 GB

molecule  {
-1 1
  C      -0.839930    0.480710   -0.369610
  C      -2.107280   -0.342000   -0.049330
  O      -2.042860   -1.580050   -0.264140
  O      -3.077170    0.326530    0.397130
  H      -0.506040    0.995110    0.531920
  H      -0.039800   -0.150690   -0.750280
  H      -1.084130    1.248810   -1.103930
--
0 1
  O      -6.039290   -3.207950    0.895690
  H      -5.796280   -2.268120    0.955600
  H      -5.178210   -3.490470    0.547560
units angstrom
no_reorient
symmetry c1
}

set {
scf_type DF
basis aug-cc-pvdz
freeze_core True
guess SAD
}
energy('sapt2+')
--------------------------------------------------------------------------

  Memory set to  18.626 GiB by Python driver.

Scratch directory: /scratch/liuchw/

  //>>>>>>>>>>>>>>>>>>>>>>>>>>>>>>>>>>>//
  //              Dimer HF             //
  //<<<<<<<<<<<<<<<<<<<<<<<<<<<<<<<<<<<//


*** tstart() called on node90.bme.utexas.edu
*** at Thu Apr 23 17:17:00 2020

   => Loading Basis Set <=

    Name: AUG-CC-PVDZ
    Role: ORBITAL
    Keyword: BASIS
    atoms 1-2       entry C          line   182 file /home/liuchw/anaconda3/envs/psi4env/share/psi4/basis/aug-cc-pvdz.gbs 
    atoms 3-4, 8    entry O          line   254 file /home/liuchw/anaconda3/envs/psi4env/share/psi4/basis/aug-cc-pvdz.gbs 
    atoms 5-7, 9-10 entry H          line    40 file /home/liuchw/anaconda3/envs/psi4env/share/psi4/basis/aug-cc-pvdz.gbs 


         ---------------------------------------------------------
                                   SCF
               by Justin Turney, Rob Parrish, Andy Simmonett
                          and Daniel G. A. Smith
                              RHF Reference
                        8 Threads,  19073 MiB Core
         ---------------------------------------------------------

  ==> Geometry <==

    Molecular point group: c1
    Full point group: C1

    Geometry (in Angstrom), charge = -1, multiplicity = 1:

       Center              X                  Y                   Z               Mass       
    ------------   -----------------  -----------------  -----------------  -----------------
         C            2.101521576002     1.433536107307    -0.520325021618    12.000000000000
         C            0.834171576002     0.610826107307    -0.200045021618    12.000000000000
         O            0.898591576002    -0.627223892693    -0.414855021618    15.994914619570
         O           -0.135718423998     1.279356107307     0.246414978382    15.994914619570
         H            2.435411576002     1.947936107307     0.381204978382     1.007825032230
         H            2.901651576002     0.802136107307    -0.900995021618     1.007825032230
         H            1.857321576002     2.201636107307    -1.254645021618     1.007825032230
         O           -3.097838423998    -2.255123892693     0.744974978382    15.994914619570
         H           -2.854828423998    -1.315293892693     0.804884978382     1.007825032230
         H           -2.236758423998    -2.537643892693     0.396844978382     1.007825032230

  Running in c1 symmetry.

  Rotational constants: A =      0.37232  B =      0.04260  C =      0.03849 [cm^-1]
  Rotational constants: A =  11161.73433  B =   1276.98891  C =   1153.99791 [MHz]
  Nuclear repulsion =  154.010563499294818

  Charge       = -1
  Multiplicity = 1
  Electrons    = 42
  Nalpha       = 21
  Nbeta        = 21

  ==> Algorithm <==

  SCF Algorithm Type is DF.
  DIIS enabled.
  MOM disabled.
  Fractional occupation disabled.
  Guess Type is SAD.
  Energy threshold   = 1.00e-08
  Density threshold  = 1.00e-08
  Integral threshold = 0.00e+00

  ==> Primary Basis <==

  Basis Set: AUG-CC-PVDZ
    Blend: AUG-CC-PVDZ
    Number of shells: 70
    Number of basis function: 160
    Number of Cartesian functions: 170
    Spherical Harmonics?: true
    Max angular momentum: 2

   => Loading Basis Set <=

    Name: (AUG-CC-PVDZ AUX)
    Role: JKFIT
    Keyword: DF_BASIS_SCF
    atoms 1-2       entry C          line   154 file /home/liuchw/anaconda3/envs/psi4env/share/psi4/basis/aug-cc-pvdz-jkfit.gbs 
    atoms 3-4, 8    entry O          line   270 file /home/liuchw/anaconda3/envs/psi4env/share/psi4/basis/aug-cc-pvdz-jkfit.gbs 
    atoms 5-7, 9-10 entry H          line    70 file /home/liuchw/anaconda3/envs/psi4env/share/psi4/basis/aug-cc-pvdz-jkfit.gbs 

  ==> Pre-Iterations <==

   -------------------------------------------------------
    Irrep   Nso     Nmo     Nalpha   Nbeta   Ndocc  Nsocc
   -------------------------------------------------------
     A        160     160       0       0       0       0
   -------------------------------------------------------
    Total     160     160      21      21      21       0
   -------------------------------------------------------

  ==> Integral Setup <==

  ==> DiskDFJK: Density-Fitted J/K Matrices <==

    J tasked:                  Yes
    K tasked:                  Yes
    wK tasked:                  No
    OpenMP threads:              8
    Integrals threads:           8
    Memory [MiB]:            14305
    Algorithm:                Core
    Integral Cache:           SAVE
    Schwarz Cutoff:          1E-12
    Fitting Condition:       1E-10

   => Auxiliary Basis Set <=

  Basis Set: (AUG-CC-PVDZ AUX)
    Blend: AUG-CC-PVDZ-JKFIT
    Number of shells: 200
    Number of basis function: 590
    Number of Cartesian functions: 680
    Spherical Harmonics?: true
    Max angular momentum: 3

  Minimum eigenvalue in the overlap matrix is 9.6809265306E-05.
  Using Symmetric Orthogonalization.

  SCF Guess: Superposition of Atomic Densities via on-the-fly atomic UHF.

  ==> Iterations <==

                           Total Energy        Delta E     RMS |[F,P]|

   @DF-RHF iter SAD:  -301.55444652214703   -3.01554e+02   0.00000e+00 
   @DF-RHF iter   1:  -303.03674933929278   -1.48230e+00   5.01224e-03 DIIS
   @DF-RHF iter   2:  -303.23293436957169   -1.96185e-01   3.16422e-03 DIIS
   @DF-RHF iter   3:  -303.32300651927733   -9.00721e-02   3.35001e-04 DIIS
   @DF-RHF iter   4:  -303.32498469152250   -1.97817e-03   1.30489e-04 DIIS
   @DF-RHF iter   5:  -303.32531916204681   -3.34471e-04   2.75753e-05 DIIS
   @DF-RHF iter   6:  -303.32533522153818   -1.60595e-05   1.08531e-05 DIIS
   @DF-RHF iter   7:  -303.32533724275339   -2.02122e-06   2.41905e-06 DIIS
   @DF-RHF iter   8:  -303.32533741576833   -1.73015e-07   6.19882e-07 DIIS
   @DF-RHF iter   9:  -303.32533742855702   -1.27887e-08   3.06942e-07 DIIS
   @DF-RHF iter  10:  -303.32533743018860   -1.63158e-09   9.26139e-08 DIIS
   @DF-RHF iter  11:  -303.32533743052301   -3.34410e-10   4.61523e-08 DIIS
   @DF-RHF iter  12:  -303.32533743058389   -6.08793e-11   1.55923e-08 DIIS
   @DF-RHF iter  13:  -303.32533743059571   -1.18234e-11   4.08292e-09 DIIS
  Energy and wave function converged.


  ==> Post-Iterations <==

    Orbital Energies [Eh]
    ---------------------

    Doubly Occupied:                                                      

       1A    -20.456153     2A    -20.309426     3A    -20.306101  
       4A    -11.150884     5A    -11.058891     6A     -1.229591  
       7A     -1.175417     8A     -1.074655     9A     -0.802961  
      10A     -0.565274    11A     -0.523128    12A     -0.478477  
      13A     -0.427008    14A     -0.425251    15A     -0.420029  
      16A     -0.385873    17A     -0.369316    18A     -0.325936  
      19A     -0.211977    20A     -0.204280    21A     -0.198870  

    Virtual:                                                              

      22A      0.141347    23A      0.153672    24A      0.159681  
      25A      0.161009    26A      0.172222    27A      0.211845  
      28A      0.249969    29A      0.260588    30A      0.263334  
      31A      0.279922    32A      0.281553    33A      0.301409  
      34A      0.313352    35A      0.325679    36A      0.350391  
      37A      0.357816    38A      0.377541    39A      0.386839  
      40A      0.387794    41A      0.400715    42A      0.407183  
      43A      0.429799    44A      0.438541    45A      0.455694  
      46A      0.469588    47A      0.486889    48A      0.495141  
      49A      0.511958    50A      0.524330    51A      0.528691  
      52A      0.542387    53A      0.550008    54A      0.573258  
      55A      0.576570    56A      0.587032    57A      0.594696  
      58A      0.629770    59A      0.630913    60A      0.670938  
      61A      0.690862    62A      0.703643    63A      0.719431  
      64A      0.738235    65A      0.759467    66A      0.777178  
      67A      0.793136    68A      0.795179    69A      0.796278  
      70A      0.834497    71A      0.845272    72A      0.861938  
      73A      0.866773    74A      0.919348    75A      0.933485  
      76A      0.936821    77A      0.960190    78A      0.988854  
      79A      1.005458    80A      1.075274    81A      1.095340  
      82A      1.118270    83A      1.138530    84A      1.164083  
      85A      1.188388    86A      1.229338    87A      1.233716  
      88A      1.263553    89A      1.273239    90A      1.274106  
      91A      1.308922    92A      1.378649    93A      1.380552  
      94A      1.406027    95A      1.407560    96A      1.422339  
      97A      1.476555    98A      1.500302    99A      1.534115  
     100A      1.566657   101A      1.583744   102A      1.596345  
     103A      1.616381   104A      1.621041   105A      1.644088  
     106A      1.696655   107A      1.725876   108A      1.767297  
     109A      1.858728   110A      1.887075   111A      1.969157  
     112A      2.007216   113A      2.026369   114A      2.055238  
     115A      2.099191   116A      2.100525   117A      2.114685  
     118A      2.164779   119A      2.187679   120A      2.204166  
     121A      2.254666   122A      2.275753   123A      2.306593  
     124A      2.324054   125A      2.388689   126A      2.392968  
     127A      2.429521   128A      2.449847   129A      2.527982  
     130A      2.549897   131A      2.605953   132A      2.622919  
     133A      2.717807   134A      2.775398   135A      2.812877  
     136A      2.834382   137A      2.859187   138A      2.904999  
     139A      3.036961   140A      3.057756   141A      3.127625  
     142A      3.176283   143A      3.233965   144A      3.356866  
     145A      3.582169   146A      3.803311   147A      3.822910  
     148A      3.841871   149A      3.925149   150A      3.957143  
     151A      3.973198   152A      4.009210   153A      4.014347  
     154A      4.052362   155A      4.095400   156A      4.125952  
     157A      4.142969   158A      4.321016   159A      4.408153  
     160A      4.415414  

    Final Occupation by Irrep:
              A 
    DOCC [    21 ]

  @DF-RHF Final Energy:  -303.32533743059571

   => Energetics <=

    Nuclear Repulsion Energy =            154.0105634992948183
    One-Electron Energy =                -730.4728007337944291
    Two-Electron Energy =                 273.1368998039039298
    Total Energy =                       -303.3253374305957095

Computation Completed


Properties will be evaluated at   0.000000,   0.000000,   0.000000 [a0]

Properties computed using the SCF density matrix

  Nuclear Dipole Moment: [e a0]
     X:     1.9601      Y:     1.0224      Z:    -0.5341

  Electronic Dipole Moment: [e a0]
     X:    -1.5963      Y:    -0.9688      Z:     0.4139

  Dipole Moment: [e a0]
     X:     0.3638      Y:     0.0535      Z:    -0.1203     Total:     0.3869

  Dipole Moment: [D]
     X:     0.9247      Y:     0.1360      Z:    -0.3057     Total:     0.9834


*** tstop() called on node90.bme.utexas.edu at Thu Apr 23 17:17:04 2020
Module time:
	user time   =      18.20 seconds =       0.30 minutes
	system time =       0.57 seconds =       0.01 minutes
	total time  =          4 seconds =       0.07 minutes
Total time:
	user time   =      18.20 seconds =       0.30 minutes
	system time =       0.57 seconds =       0.01 minutes
	total time  =          4 seconds =       0.07 minutes

  //>>>>>>>>>>>>>>>>>>>>>>>>>>>>>>>>>>>//
  //            Monomer A HF           //
  //<<<<<<<<<<<<<<<<<<<<<<<<<<<<<<<<<<<//


*** tstart() called on node90.bme.utexas.edu
*** at Thu Apr 23 17:17:04 2020

   => Loading Basis Set <=

    Name: AUG-CC-PVDZ
    Role: ORBITAL
    Keyword: BASIS
    atoms 1-2       entry C          line   182 file /home/liuchw/anaconda3/envs/psi4env/share/psi4/basis/aug-cc-pvdz.gbs 
    atoms 3-4, 8    entry O          line   254 file /home/liuchw/anaconda3/envs/psi4env/share/psi4/basis/aug-cc-pvdz.gbs 
    atoms 5-7, 9-10 entry H          line    40 file /home/liuchw/anaconda3/envs/psi4env/share/psi4/basis/aug-cc-pvdz.gbs 


         ---------------------------------------------------------
                                   SCF
               by Justin Turney, Rob Parrish, Andy Simmonett
                          and Daniel G. A. Smith
                              RHF Reference
                        8 Threads,  19073 MiB Core
         ---------------------------------------------------------

  ==> Geometry <==

    Molecular point group: c1
    Full point group: C1

    Geometry (in Angstrom), charge = -1, multiplicity = 1:

       Center              X                  Y                   Z               Mass       
    ------------   -----------------  -----------------  -----------------  -----------------
         C            2.101521576002     1.433536107307    -0.520325021618    12.000000000000
         C            0.834171576002     0.610826107307    -0.200045021618    12.000000000000
         O            0.898591576002    -0.627223892693    -0.414855021618    15.994914619570
         O           -0.135718423998     1.279356107307     0.246414978382    15.994914619570
         H            2.435411576002     1.947936107307     0.381204978382     1.007825032230
         H            2.901651576002     0.802136107307    -0.900995021618     1.007825032230
         H            1.857321576002     2.201636107307    -1.254645021618     1.007825032230
      Gh(O)          -3.097838423998    -2.255123892693     0.744974978382    15.994914619570
      Gh(H)          -2.854828423998    -1.315293892693     0.804884978382     1.007825032230
      Gh(H)          -2.236758423998    -2.537643892693     0.396844978382     1.007825032230

  Running in c1 symmetry.

  Rotational constants: A =      0.37232  B =      0.04260  C =      0.03849 [cm^-1]
  Rotational constants: A =  11161.73433  B =   1276.98891  C =   1153.99791 [MHz]
  Nuclear repulsion =  111.881211404941382

  Charge       = -1
  Multiplicity = 1
  Electrons    = 32
  Nalpha       = 16
  Nbeta        = 16

  ==> Algorithm <==

  SCF Algorithm Type is DF.
  DIIS enabled.
  MOM disabled.
  Fractional occupation disabled.
  Guess Type is SAD.
  Energy threshold   = 1.00e-08
  Density threshold  = 1.00e-08
  Integral threshold = 0.00e+00

  ==> Primary Basis <==

  Basis Set: AUG-CC-PVDZ
    Blend: AUG-CC-PVDZ
    Number of shells: 70
    Number of basis function: 160
    Number of Cartesian functions: 170
    Spherical Harmonics?: true
    Max angular momentum: 2

   => Loading Basis Set <=

    Name: (AUG-CC-PVDZ AUX)
    Role: JKFIT
    Keyword: DF_BASIS_SCF
    atoms 1-2       entry C          line   154 file /home/liuchw/anaconda3/envs/psi4env/share/psi4/basis/aug-cc-pvdz-jkfit.gbs 
    atoms 3-4, 8    entry O          line   270 file /home/liuchw/anaconda3/envs/psi4env/share/psi4/basis/aug-cc-pvdz-jkfit.gbs 
    atoms 5-7, 9-10 entry H          line    70 file /home/liuchw/anaconda3/envs/psi4env/share/psi4/basis/aug-cc-pvdz-jkfit.gbs 

  ==> Pre-Iterations <==

   -------------------------------------------------------
    Irrep   Nso     Nmo     Nalpha   Nbeta   Ndocc  Nsocc
   -------------------------------------------------------
     A        160     160       0       0       0       0
   -------------------------------------------------------
    Total     160     160      16      16      16       0
   -------------------------------------------------------

  ==> Integral Setup <==

  ==> DiskDFJK: Density-Fitted J/K Matrices <==

    J tasked:                  Yes
    K tasked:                  Yes
    wK tasked:                  No
    OpenMP threads:              8
    Integrals threads:           8
    Memory [MiB]:            14305
    Algorithm:                Core
    Integral Cache:           LOAD
    Schwarz Cutoff:          1E-12
    Fitting Condition:       1E-10

   => Auxiliary Basis Set <=

  Basis Set: (AUG-CC-PVDZ AUX)
    Blend: AUG-CC-PVDZ-JKFIT
    Number of shells: 200
    Number of basis function: 590
    Number of Cartesian functions: 680
    Spherical Harmonics?: true
    Max angular momentum: 3

  Minimum eigenvalue in the overlap matrix is 9.6809265306E-05.
  Using Symmetric Orthogonalization.

  SCF Guess: Superposition of Atomic Densities via on-the-fly atomic UHF.

  ==> Iterations <==

                           Total Energy        Delta E     RMS |[F,P]|

   @DF-RHF iter SAD:  -226.09064432849678   -2.26091e+02   0.00000e+00 
   @DF-RHF iter   1:  -227.06353469524123   -9.72890e-01   4.19318e-03 DIIS
   @DF-RHF iter   2:  -227.21088879714787   -1.47354e-01   2.61112e-03 DIIS
   @DF-RHF iter   3:  -227.27238119558322   -6.14924e-02   3.16280e-04 DIIS
   @DF-RHF iter   4:  -227.27406257119134   -1.68138e-03   1.18559e-04 DIIS
   @DF-RHF iter   5:  -227.27436962682950   -3.07056e-04   1.86774e-05 DIIS
   @DF-RHF iter   6:  -227.27438089395451   -1.12671e-05   4.34341e-06 DIIS
   @DF-RHF iter   7:  -227.27438148704965   -5.93095e-07   1.36685e-06 DIIS
   @DF-RHF iter   8:  -227.27438153438547   -4.73358e-08   4.08298e-07 DIIS
   @DF-RHF iter   9:  -227.27438154117849   -6.79302e-09   2.02554e-07 DIIS
   @DF-RHF iter  10:  -227.27438154200354   -8.25054e-10   7.52052e-08 DIIS
   @DF-RHF iter  11:  -227.27438154227235   -2.68813e-10   2.40965e-08 DIIS
   @DF-RHF iter  12:  -227.27438154229799   -2.56364e-11   5.83346e-09 DIIS
  Energy and wave function converged.


  ==> Post-Iterations <==

    Orbital Energies [Eh]
    ---------------------

    Doubly Occupied:                                                      

       1A    -20.297001     2A    -20.294023     3A    -11.139529  
       4A    -11.050633     5A     -1.163224     6A     -1.062483  
       7A     -0.794297     8A     -0.512208     9A     -0.416705  
      10A     -0.413906    11A     -0.411043    12A     -0.359185  
      13A     -0.314958    14A     -0.199799    15A     -0.192332  
      16A     -0.186348  

    Virtual:                                                              

      17A      0.139922    18A      0.146809    19A      0.162957  
      20A      0.164908    21A      0.172564    22A      0.216376  
      23A      0.246399    24A      0.261656    25A      0.266391  
      26A      0.277405    27A      0.278854    28A      0.285149  
      29A      0.287512    30A      0.305171    31A      0.320338  
      32A      0.329657    33A      0.382323    34A      0.397006  
      35A      0.405017    36A      0.418217    37A      0.430085  
      38A      0.439795    39A      0.458044    40A      0.464530  
      41A      0.475429    42A      0.505879    43A      0.516076  
      44A      0.543544    45A      0.552783    46A      0.553000  
      47A      0.564760    48A      0.576091    49A      0.581834  
      50A      0.582927    51A      0.596746    52A      0.600025  
      53A      0.620092    54A      0.638882    55A      0.668932  
      56A      0.677840    57A      0.701329    58A      0.714921  
      59A      0.730662    60A      0.743117    61A      0.767286  
      62A      0.772918    63A      0.795193    64A      0.801981  
      65A      0.819639    66A      0.856904    67A      0.860189  
      68A      0.887074    69A      0.930136    70A      0.945581  
      71A      0.947973    72A      0.964888    73A      1.010061  
      74A      1.016591    75A      1.036365    76A      1.085512  
      77A      1.125319    78A      1.152396    79A      1.173635  
      80A      1.203712    81A      1.243097    82A      1.245227  
      83A      1.272263    84A      1.277316    85A      1.316441  
      86A      1.381986    87A      1.390214    88A      1.391436  
      89A      1.416281    90A      1.417347    91A      1.440722  
      92A      1.452079    93A      1.453014    94A      1.482120  
      95A      1.513453    96A      1.519201    97A      1.546165  
      98A      1.595952    99A      1.612933   100A      1.638986  
     101A      1.663928   102A      1.710899   103A      1.738902  
     104A      1.869769   105A      1.896908   106A      1.977960  
     107A      2.017145   108A      2.037277   109A      2.063154  
     110A      2.109633   111A      2.110092   112A      2.163567  
     113A      2.195718   114A      2.217182   115A      2.286283  
     116A      2.316502   117A      2.330818   118A      2.384252  
     119A      2.401409   120A      2.439035   121A      2.460667  
     122A      2.492318   123A      2.538507   124A      2.559613  
     125A      2.605089   126A      2.615508   127A      2.727187  
     128A      2.741295   129A      2.788628   130A      2.821237  
     131A      2.867112   132A      2.914699   133A      3.044500  
     134A      3.068101   135A      3.135698   136A      3.242154  
     137A      3.368157   138A      3.493312   139A      3.594283  
     140A      3.937273   141A      3.969383   142A      3.974712  
     143A      3.991946   144A      4.021201   145A      4.027549  
     146A      4.064162   147A      4.109211   148A      4.154564  
     149A      4.254032   150A      4.333184   151A      4.418702  
     152A      5.019901   153A      5.072683   154A      5.093815  
     155A      5.193213   156A      5.511979   157A      5.705886  
     158A      6.746793   159A      7.048187   160A     33.664742  

    Final Occupation by Irrep:
              A 
    DOCC [    16 ]

  @DF-RHF Final Energy:  -227.27438154229799

   => Energetics <=

    Nuclear Repulsion Energy =            111.8812114049413822
    One-Electron Energy =                -540.6958430395998221
    Two-Electron Energy =                 201.5402500923604521
    Total Energy =                       -227.2743815422979878

Computation Completed


Properties will be evaluated at   0.000000,   0.000000,   0.000000 [a0]

Properties computed using the SCF density matrix

  Nuclear Dipole Moment: [e a0]
     X:    58.4143      Y:    42.3959      Z:   -14.0675

  Electronic Dipole Moment: [e a0]
     X:   -58.9298      Y:   -42.8925      Z:    14.1726

  Dipole Moment: [e a0]
     X:    -0.5155      Y:    -0.4966      Z:     0.1051     Total:     0.7235

  Dipole Moment: [D]
     X:    -1.3103      Y:    -1.2624      Z:     0.2672     Total:     1.8390


*** tstop() called on node90.bme.utexas.edu at Thu Apr 23 17:17:06 2020
Module time:
	user time   =      12.84 seconds =       0.21 minutes
	system time =       0.51 seconds =       0.01 minutes
	total time  =          2 seconds =       0.03 minutes
Total time:
	user time   =      31.22 seconds =       0.52 minutes
	system time =       1.09 seconds =       0.02 minutes
	total time  =          6 seconds =       0.10 minutes

  //>>>>>>>>>>>>>>>>>>>>>>>>>>>>>>>>>>>//
  //            Monomer B HF           //
  //<<<<<<<<<<<<<<<<<<<<<<<<<<<<<<<<<<<//


*** tstart() called on node90.bme.utexas.edu
*** at Thu Apr 23 17:17:06 2020

   => Loading Basis Set <=

    Name: AUG-CC-PVDZ
    Role: ORBITAL
    Keyword: BASIS
    atoms 1-2       entry C          line   182 file /home/liuchw/anaconda3/envs/psi4env/share/psi4/basis/aug-cc-pvdz.gbs 
    atoms 3-4, 8    entry O          line   254 file /home/liuchw/anaconda3/envs/psi4env/share/psi4/basis/aug-cc-pvdz.gbs 
    atoms 5-7, 9-10 entry H          line    40 file /home/liuchw/anaconda3/envs/psi4env/share/psi4/basis/aug-cc-pvdz.gbs 


         ---------------------------------------------------------
                                   SCF
               by Justin Turney, Rob Parrish, Andy Simmonett
                          and Daniel G. A. Smith
                              RHF Reference
                        8 Threads,  19073 MiB Core
         ---------------------------------------------------------

  ==> Geometry <==

    Molecular point group: c1
    Full point group: C1

    Geometry (in Angstrom), charge = 0, multiplicity = 1:

       Center              X                  Y                   Z               Mass       
    ------------   -----------------  -----------------  -----------------  -----------------
      Gh(C)           2.101521576002     1.433536107307    -0.520325021618    12.000000000000
      Gh(C)           0.834171576002     0.610826107307    -0.200045021618    12.000000000000
      Gh(O)           0.898591576002    -0.627223892693    -0.414855021618    15.994914619570
      Gh(O)          -0.135718423998     1.279356107307     0.246414978382    15.994914619570
      Gh(H)           2.435411576002     1.947936107307     0.381204978382     1.007825032230
      Gh(H)           2.901651576002     0.802136107307    -0.900995021618     1.007825032230
      Gh(H)           1.857321576002     2.201636107307    -1.254645021618     1.007825032230
         O           -3.097838423998    -2.255123892693     0.744974978382    15.994914619570
         H           -2.854828423998    -1.315293892693     0.804884978382     1.007825032230
         H           -2.236758423998    -2.537643892693     0.396844978382     1.007825032230

  Running in c1 symmetry.

  Rotational constants: A =      0.37232  B =      0.04260  C =      0.03849 [cm^-1]
  Rotational constants: A =  11161.73433  B =   1276.98891  C =   1153.99791 [MHz]
  Nuclear repulsion =    9.083711508886690

  Charge       = 0
  Multiplicity = 1
  Electrons    = 10
  Nalpha       = 5
  Nbeta        = 5

  ==> Algorithm <==

  SCF Algorithm Type is DF.
  DIIS enabled.
  MOM disabled.
  Fractional occupation disabled.
  Guess Type is SAD.
  Energy threshold   = 1.00e-08
  Density threshold  = 1.00e-08
  Integral threshold = 0.00e+00

  ==> Primary Basis <==

  Basis Set: AUG-CC-PVDZ
    Blend: AUG-CC-PVDZ
    Number of shells: 70
    Number of basis function: 160
    Number of Cartesian functions: 170
    Spherical Harmonics?: true
    Max angular momentum: 2

   => Loading Basis Set <=

    Name: (AUG-CC-PVDZ AUX)
    Role: JKFIT
    Keyword: DF_BASIS_SCF
    atoms 1-2       entry C          line   154 file /home/liuchw/anaconda3/envs/psi4env/share/psi4/basis/aug-cc-pvdz-jkfit.gbs 
    atoms 3-4, 8    entry O          line   270 file /home/liuchw/anaconda3/envs/psi4env/share/psi4/basis/aug-cc-pvdz-jkfit.gbs 
    atoms 5-7, 9-10 entry H          line    70 file /home/liuchw/anaconda3/envs/psi4env/share/psi4/basis/aug-cc-pvdz-jkfit.gbs 

  ==> Pre-Iterations <==

   -------------------------------------------------------
    Irrep   Nso     Nmo     Nalpha   Nbeta   Ndocc  Nsocc
   -------------------------------------------------------
     A        160     160       0       0       0       0
   -------------------------------------------------------
    Total     160     160       5       5       5       0
   -------------------------------------------------------

  ==> Integral Setup <==

  ==> DiskDFJK: Density-Fitted J/K Matrices <==

    J tasked:                  Yes
    K tasked:                  Yes
    wK tasked:                  No
    OpenMP threads:              8
    Integrals threads:           8
    Memory [MiB]:            14305
    Algorithm:                Core
    Integral Cache:           LOAD
    Schwarz Cutoff:          1E-12
    Fitting Condition:       1E-10

   => Auxiliary Basis Set <=

  Basis Set: (AUG-CC-PVDZ AUX)
    Blend: AUG-CC-PVDZ-JKFIT
    Number of shells: 200
    Number of basis function: 590
    Number of Cartesian functions: 680
    Spherical Harmonics?: true
    Max angular momentum: 3

  Minimum eigenvalue in the overlap matrix is 9.6809265306E-05.
  Using Symmetric Orthogonalization.

  SCF Guess: Superposition of Atomic Densities via on-the-fly atomic UHF.

  ==> Iterations <==

                           Total Energy        Delta E     RMS |[F,P]|

   @DF-RHF iter SAD:   -75.46019070938932   -7.54602e+01   0.00000e+00 
   @DF-RHF iter   1:   -75.95133751867345   -4.91147e-01   2.83497e-03 DIIS
   @DF-RHF iter   2:   -76.00441436862208   -5.30768e-02   1.89942e-03 DIIS
   @DF-RHF iter   3:   -76.03691392013309   -3.24996e-02   1.33559e-04 DIIS
   @DF-RHF iter   4:   -76.03729466019480   -3.80740e-04   3.15739e-05 DIIS
   @DF-RHF iter   5:   -76.03731935126768   -2.46911e-05   7.47985e-06 DIIS
   @DF-RHF iter   6:   -76.03732143754777   -2.08628e-06   1.44987e-06 DIIS
   @DF-RHF iter   7:   -76.03732151547892   -7.79311e-08   2.12325e-07 DIIS
   @DF-RHF iter   8:   -76.03732151698827   -1.50935e-09   2.99939e-08 DIIS
   @DF-RHF iter   9:   -76.03732151701362   -2.53522e-11   6.90329e-09 DIIS
  Energy and wave function converged.


  ==> Post-Iterations <==

    Orbital Energies [Eh]
    ---------------------

    Doubly Occupied:                                                      

       1A    -20.583870     2A     -1.356612     3A     -0.691467  
       4A     -0.602408     5A     -0.511050  

    Virtual:                                                              

       6A      0.018342     7A      0.040337     8A      0.046492  
       9A      0.052504    10A      0.065569    11A      0.075891  
      12A      0.104719    13A      0.107668    14A      0.108694  
      15A      0.125135    16A      0.139408    17A      0.143896  
      18A      0.178783    19A      0.192102    20A      0.198076  
      21A      0.202138    22A      0.210175    23A      0.216386  
      24A      0.244657    25A      0.250284    26A      0.252414  
      27A      0.255922    28A      0.263168    29A      0.272357  
      30A      0.284759    31A      0.322089    32A      0.325612  
      33A      0.335187    34A      0.364375    35A      0.377114  
      36A      0.388927    37A      0.400947    38A      0.404353  
      39A      0.419712    40A      0.426113    41A      0.451008  
      42A      0.459756    43A      0.492118    44A      0.520410  
      45A      0.535810    46A      0.544763    47A      0.564379  
      48A      0.582702    49A      0.599245    50A      0.624557  
      51A      0.627270    52A      0.654651    53A      0.664312  
      54A      0.668333    55A      0.683399    56A      0.688694  
      57A      0.728873    58A      0.756655    59A      0.771670  
      60A      0.773727    61A      0.800136    62A      0.805264  
      63A      0.837170    64A      0.843906    65A      0.847685  
      66A      0.884646    67A      0.934209    68A      0.946645  
      69A      0.971532    70A      1.016120    71A      1.027506  
      72A      1.043397    73A      1.112583    74A      1.127312  
      75A      1.132159    76A      1.151770    77A      1.156322  
      78A      1.197643    79A      1.262014    80A      1.301519  
      81A      1.311147    82A      1.327911    83A      1.368910  
      84A      1.408397    85A      1.426767    86A      1.428867  
      87A      1.448980    88A      1.449174    89A      1.495138  
      90A      1.528770    91A      1.545580    92A      1.597107  
      93A      1.632281    94A      1.662047    95A      1.756756  
      96A      1.873176    97A      1.915573    98A      1.985689  
      99A      2.031687   100A      2.039833   101A      2.124796  
     102A      2.233765   103A      2.251691   104A      2.258060  
     105A      2.293260   106A      2.318178   107A      2.327471  
     108A      2.331928   109A      2.351366   110A      2.487247  
     111A      2.502151   112A      2.625945   113A      2.645615  
     114A      2.649883   115A      2.705925   116A      2.716252  
     117A      2.759613   118A      2.804601   119A      2.829335  
     120A      2.953252   121A      3.050272   122A      3.085901  
     123A      3.234417   124A      3.297768   125A      3.315481  
     126A      3.337369   127A      3.409754   128A      3.578148  
     129A      3.679064   130A      3.697813   131A      3.699367  
     132A      3.725562   133A      3.962455   134A      4.002602  
     135A      4.288883   136A      4.451686   137A      4.537409  
     138A      4.552215   139A      4.880768   140A      4.931830  
     141A      4.944698   142A      4.975391   143A      4.979492  
     144A      4.988714   145A      5.020543   146A      5.093656  
     147A      5.100395   148A      5.152510   149A      5.556641  
     150A      5.773064   151A      5.880292   152A      6.043049  
     153A      6.074756   154A      6.333119   155A      6.648916  
     156A      6.908919   157A     18.369113   158A     18.817844  
     159A     33.505286   160A     33.519574  

    Final Occupation by Irrep:
              A 
    DOCC [     5 ]

  @DF-RHF Final Energy:   -76.03732151701362

   => Energetics <=

    Nuclear Repulsion Energy =              9.0837115088866902
    One-Electron Energy =                -122.7512512724734819
    Two-Electron Energy =                  37.6302182465731576
    Total Energy =                        -76.0373215170136234

Computation Completed


Properties will be evaluated at   0.000000,   0.000000,   0.000000 [a0]

Properties computed using the SCF density matrix

  Nuclear Dipole Moment: [e a0]
     X:   -56.4542      Y:   -41.3735      Z:    13.5333

  Electronic Dipole Moment: [e a0]
     X:    57.1692      Y:    41.7987      Z:   -13.7200

  Dipole Moment: [e a0]
     X:     0.7150      Y:     0.4252      Z:    -0.1867     Total:     0.8526

  Dipole Moment: [D]
     X:     1.8173      Y:     1.0808      Z:    -0.4746     Total:     2.1670


*** tstop() called on node90.bme.utexas.edu at Thu Apr 23 17:17:07 2020
Module time:
	user time   =       9.53 seconds =       0.16 minutes
	system time =       0.33 seconds =       0.01 minutes
	total time  =          1 seconds =       0.02 minutes
Total time:
	user time   =      40.83 seconds =       0.68 minutes
	system time =       1.43 seconds =       0.02 minutes
	total time  =          7 seconds =       0.12 minutes
  Constructing Basis Sets for SAPT...

   => Loading Basis Set <=

    Name: (AUG-CC-PVDZ AUX)
    Role: RIFIT
    Keyword: DF_BASIS_SAPT
    atoms 1-2       entry C          line   112 file /home/liuchw/anaconda3/envs/psi4env/share/psi4/basis/aug-cc-pvdz-ri.gbs 
    atoms 3-4, 8    entry O          line   204 file /home/liuchw/anaconda3/envs/psi4env/share/psi4/basis/aug-cc-pvdz-ri.gbs 
    atoms 5-7, 9-10 entry H          line    30 file /home/liuchw/anaconda3/envs/psi4env/share/psi4/basis/aug-cc-pvdz-ri.gbs 


  //>>>>>>>>>>>>>>>>>>>>>>>>>>>>>>>>>>>//
  //               SAPT2+              //
  //<<<<<<<<<<<<<<<<<<<<<<<<<<<<<<<<<<<//


*** tstart() called on node90.bme.utexas.edu
*** at Thu Apr 23 17:17:08 2020

        SAPT2+  
    Ed Hohenstein
     6 June 2009

      Orbital Information
  --------------------------
    NSO        =       160
    NMO        =       160
    NRI        =       475
    NOCC A     =        16
    NOCC B     =         5
    FOCC A     =         4
    FOCC B     =         1
    NVIR A     =       144
    NVIR B     =       155

    Estimated memory usage: 238.9 MB

    Natural Orbital Cutoff:   1.000E-06
    Disp(T3) Truncation:            Yes
    CCD (vv|vv) Truncation:         Yes
    MBPT T2 Truncation:             Yes

    Monomer A: 41 virtual orbitals dropped
    Monomer B: 121 virtual orbitals dropped

    Elst10,r            =    -0.012675300721 [Eh]
    Exch10 (S^2)        =     0.000118529540 [Eh]
    Exch10              =     0.000118542689 [Eh]
    Ind20,r (A<-B)      =    -0.000159714380 [Eh]
    Ind20,r (B<-A)      =    -0.000957106458 [Eh]
    Ind20,r             =    -0.001116820838 [Eh]
    Exch-Ind20,r (A<-B) =     0.000052384378 [Eh]
    Exch-Ind20,r (B<-A) =     0.000004364654 [Eh]
    Exch-Ind20,r        =     0.000056749032 [Eh]
    Disp20              =    -0.000410219270 [Eh]
    Disp20 (NO)         =    -0.000381243488 [Eh]
    Exch-Disp20         =     0.000016393202 [Eh]
    Elst12,r            =     0.000975705698 [Eh]
    Exch11              =     0.000003180335 [Eh]
    Exch12              =     0.000086306031 [Eh]
    Ind22               =    -0.000140944586 [Eh]
    Disp21              =     0.000025958238 [Eh]
    Disp22 (SDQ)        =    -0.000053835850 [Eh]

    (i =   1 of   4)          0 seconds
    (i =   2 of   4)          1 seconds
    (i =   3 of   4)          2 seconds
    (i =   4 of   4)          3 seconds

    Disp220 (T)         =    -0.000047657926 [Eh]

    (i =   1 of  12)          0 seconds
    (i =   2 of  12)          0 seconds
    (i =   3 of  12)          0 seconds
    (i =   4 of  12)          0 seconds
    (i =   5 of  12)          0 seconds
    (i =   6 of  12)          0 seconds
    (i =   7 of  12)          0 seconds
    (i =   8 of  12)          0 seconds
    (i =   9 of  12)          0 seconds
    (i =  10 of  12)          0 seconds
    (i =  11 of  12)          0 seconds
    (i =  12 of  12)          0 seconds

    Disp202 (T)         =    -0.000037226358 [Eh]

    Disp22 (T)          =    -0.000084884284 [Eh]

    Est. Disp220 (T)    =    -0.000051280088 [Eh]
    Est. Disp202 (T)    =    -0.000040055686 [Eh]

    Est. Disp22 (T)     =    -0.000091335774 [Eh]

    SAPT Results 
  --------------------------------------------------------------------------------------------------------
    Electrostatics                -11.69959502 [mEh]      -7.34160672 [kcal/mol]     -30.71728250 [kJ/mol]
      Elst10,r                    -12.67530072 [mEh]      -7.95387129 [kcal/mol]     -33.27899746 [kJ/mol]
      Elst12,r                      0.97570570 [mEh]       0.61226457 [kcal/mol]       2.56171496 [kJ/mol]

    Exchange                        0.20802905 [mEh]       0.13054020 [kcal/mol]       0.54618021 [kJ/mol]
      Exch10                        0.11854269 [mEh]       0.07438666 [kcal/mol]       0.31123379 [kJ/mol]
      Exch10(S^2)                   0.11852954 [mEh]       0.07437841 [kcal/mol]       0.31119927 [kJ/mol]
      Exch11(S^2)                   0.00318033 [mEh]       0.00199569 [kcal/mol]       0.00834997 [kJ/mol]
      Exch12(S^2)                   0.08630603 [mEh]       0.05415785 [kcal/mol]       0.22659645 [kJ/mol]

    Induction                      -1.21139602 [mEh]      -0.76016248 [kcal/mol]      -3.18051981 [kJ/mol]
      Ind20,r                      -1.11682084 [mEh]      -0.70081566 [kcal/mol]      -2.93221271 [kJ/mol]
      Ind22                        -0.14094459 [mEh]      -0.08844406 [kcal/mol]      -0.37004996 [kJ/mol]
      Exch-Ind20,r                  0.05674903 [mEh]       0.03561056 [kcal/mol]       0.14899456 [kJ/mol]
      Exch-Ind22                    0.00716182 [mEh]       0.00449411 [kcal/mol]       0.01880335 [kJ/mol]
      delta HF,r (2)               -0.01754145 [mEh]      -0.01100742 [kcal/mol]      -0.04605506 [kJ/mol]

    Dispersion                     -0.51303945 [mEh]      -0.32193712 [kcal/mol]      -1.34698490 [kJ/mol]
      Disp20                       -0.41021927 [mEh]      -0.25741648 [kcal/mol]      -1.07703054 [kJ/mol]
      Disp21                        0.02595824 [mEh]       0.01628904 [kcal/mol]       0.06815334 [kJ/mol]
      Disp22 (SDQ)                 -0.05383585 [mEh]      -0.03378251 [kcal/mol]      -0.14134600 [kJ/mol]
      Disp22 (T)                   -0.08488428 [mEh]      -0.05326569 [kcal/mol]      -0.22286366 [kJ/mol]
      Est. Disp22 (T)              -0.09133577 [mEh]      -0.05731406 [kcal/mol]      -0.23980204 [kJ/mol]
      Exch-Disp20                   0.01639320 [mEh]       0.01028689 [kcal/mol]       0.04304035 [kJ/mol]

  Total HF                        -13.63437128 [mEh]      -8.55569715 [kcal/mol]     -35.79703687 [kJ/mol]
  Total SAPT0                     -14.02819735 [mEh]      -8.80282674 [kcal/mol]     -36.83102707 [kJ/mol]
  Total SAPT2                     -13.09678805 [mEh]      -8.21835858 [kcal/mol]     -34.38561230 [kJ/mol]
  Total SAPT2+                    -13.21600144 [mEh]      -8.29316611 [kcal/mol]     -34.69860700 [kJ/mol]

  Special recipe for scaled SAPT0 (see Manual):
    Electrostatics sSAPT0         -12.67530072 [mEh]      -7.95387129 [kcal/mol]     -33.27899746 [kJ/mol]
    Exchange sSAPT0                 0.11854269 [mEh]       0.07438666 [kcal/mol]       0.31123379 [kJ/mol]
    Induction sSAPT0               -1.07759436 [mEh]      -0.67620067 [kcal/mol]      -2.82922361 [kJ/mol]
    Dispersion sSAPT0              -0.39382061 [mEh]      -0.24712616 [kcal/mol]      -1.03397587 [kJ/mol]
  Total sSAPT0                    -14.02817301 [mEh]      -8.80281146 [kcal/mol]     -36.83096316 [kJ/mol]
  --------------------------------------------------------------------------------------------------------

*** tstop() called on node90.bme.utexas.edu at Thu Apr 23 17:17:21 2020
Module time:
	user time   =     103.25 seconds =       1.72 minutes
	system time =       4.33 seconds =       0.07 minutes
	total time  =         13 seconds =       0.22 minutes
Total time:
	user time   =     144.72 seconds =       2.41 minutes
	system time =       5.79 seconds =       0.10 minutes
	total time  =         21 seconds =       0.35 minutes

    Psi4 stopped on: Thursday, 23 April 2020 05:17PM
    Psi4 wall time for execution: 0:00:20.85

*** Psi4 exiting successfully. Buy a developer a beer!
