    -----------------------------------------------------------------------
          PSI4: An Open-Source Ab Initio Electronic Structure Package
                              PSI 4.0.0-beta4 Driver

    J. M. Turney, A. C. Simmonett, R. M. Parrish, E. G. Hohenstein,
    F. A. Evangelista, J. T. Fermann, B. J. Mintz, L. A. Burns, J. J. Wilke,
    M. L. Abrams, N. J. Russ, M. L. Leininger, C. L. Janssen, E. T. Seidl,
    W. D. Allen, H. F. Schaefer, R. A. King, E. F. Valeev, C. D. Sherrill,
    and T. D. Crawford, WIREs Comput. Mol. Sci., (2011) (doi: 10.1002/wcms.93)

                         Additional Contributions by
    A. E. DePrince, M. Saitow, U. Bozkaya, A. Yu. Sokolov
    -----------------------------------------------------------------------

    Process ID:   3588
    PSI4DATADIR: /home/xzhu216/psi4/psi4-install/share/psi

    Using LocalCommunicator (Number of processes = 1)

    Memory level set to 256.000 MB

  ==> Input File <==

--------------------------------------------------------------------------
#psi4
#
memory 7 gb

molecule DimethylSulfide_Water {
0 1
    C    -0.862225000    -0.933550000    -0.246023000
    C    -3.193911000     0.461076000    -0.019761000
    S    -2.332736000    -0.567707000    -1.229453000
    H    -1.136269000    -1.462459000     0.664019000
    H    -0.216531000    -1.567905000    -0.847797000
    H    -0.331129000    -0.015786000    -0.003648000
    H    -3.400557000    -0.108030000     0.883809000
    H    -2.602364000     1.342711000     0.216653000
    H    -4.133316000     0.774676000    -0.467680000
--
0 1
    O    -3.391172851    -2.660077819     0.756290732
    H    -3.216666851    -2.230573819    -0.091739268
    H    -3.884853851    -3.446805819     0.518437732
units angstrom
no_reorient  #important for SAPT in psi4, default
symmetry c1  #important for SAPT in psi4, default
}

set {
basis aug-cc-pVDZ
scf_type DF
freeze_core True
}
energy('sapt2+')
--------------------------------------------------------------------------

  Memory set to   7.000 GiB by Python script.

  //>>>>>>>>>>>>>>>>>>>>>>>>>>>>>>>>>>>//
  //              Dimer HF             //
  //<<<<<<<<<<<<<<<<<<<<<<<<<<<<<<<<<<<//


  No DF_BASIS_SCF auxiliary basis selected, defaulting to aug-cc-pvdz-jkfit


*** tstart() called on node101.bme.utexas.edu
*** at Fri Aug 29 12:00:24 2014


         ---------------------------------------------------------
                                   SCF
            by Justin Turney, Rob Parrish, and Andy Simmonett
                              RHF Reference
                        4 Threads,   7000 MiB Core
         ---------------------------------------------------------

  ==> Geometry <==

    Molecular point group: c1
    Full point group: C1

    Geometry (in Angstrom), charge = 0, multiplicity = 1:

       Center              X                  Y                   Z       
    ------------   -----------------  -----------------  -----------------
           C          1.593957930146    -0.019701895435     0.122864109424
           C         -0.737728069854     1.374924104565     0.349126109424
           S          0.123446930146     0.346141104565    -0.860565890576
           H          1.319913930146    -0.548610895435     1.032906109424
           H          2.239651930146    -0.654056895435    -0.478909890576
           H          2.125053930146     0.898062104565     0.365239109424
           H         -0.944374069854     0.805818104565     1.252696109424
           H         -0.146181069854     2.256559104565     0.585540109424
           H         -1.677133069854     1.688524104565    -0.098792890576
           O         -0.934989920854    -1.746229714435     1.125177841424
           H         -0.760483920854    -1.316725714435     0.277147841424
           H         -1.428670920854    -2.532957714435     0.887324841424

  Running in c1 symmetry.

  Nuclear repulsion =  177.727572944563008

  Charge       = 0
  Multiplicity = 1
  Electrons    = 44
  Nalpha       = 22
  Nbeta        = 22

  ==> Algorithm <==

  SCF Algorithm Type is DF.
  DIIS enabled.
  MOM disabled.
  Fractional occupation disabled.
  Guess Type is CORE.
  Energy threshold   = 1.00e-08
  Density threshold  = 1.00e-08
  Integral threshold = 0.00e+00

  ==> Primary Basis <==

  Basis Set: AUG-CC-PVDZ
    Number of shells: 78
    Number of basis function: 168
    Number of Cartesian functions: 176
    Spherical Harmonics?: true
    Max angular momentum: 2

  ==> Pre-Iterations <==

   -------------------------------------------------------
    Irrep   Nso     Nmo     Nalpha   Nbeta   Ndocc  Nsocc
   -------------------------------------------------------
     A        168     168       0       0       0       0
   -------------------------------------------------------
    Total     168     168      22      22      22       0
   -------------------------------------------------------

 OEINTS: Wrapper to libmints.
   by Justin Turney

   Calculation information:
      Number of atoms:                  12
      Number of AO shells:              78
      Number of SO shells:              78
      Number of primitives:            184
      Number of atomic orbitals:       176
      Number of basis functions:       168

      Number of irreps:                  1
      Number of functions per irrep: [ 168 ]

      Overlap, kinetic, potential, dipole, and quadrupole integrals
        stored in file 35.

  ==> Integral Setup <==

  ==> DFJK: Density-Fitted J/K Matrices <==

    J tasked:                  Yes
    K tasked:                  Yes
    wK tasked:                  No
    OpenMP threads:              4
    Integrals threads:           4
    Memory (MB):              5006
    Algorithm:                Core
    Integral Cache:           SAVE
    Schwarz Cutoff:          0E+00
    Fitting Condition:       1E-12

   => Auxiliary Basis Set <=

  Basis Set: aug-cc-pvdz-jkfit
    Number of shells: 220
    Number of basis function: 642
    Number of Cartesian functions: 733
    Spherical Harmonics?: true
    Max angular momentum: 3

  Minimum eigenvalue in the overlap matrix is 2.9467717449E-04.
  Using Symmetric Orthogonalization.
  SCF Guess: Core (One-Electron) Hamiltonian.

  Guess energy:  -414.56058646973861

  ==> Iterations <==

                        Total Energy        Delta E     RMS |[F,P]|

   @RHF iter   1:  -500.21983043073931   -5.00220e+02   3.17177e-02 
   @RHF iter   2:  -441.76892036602521    5.84509e+01   3.41175e-02 DIIS
   @RHF iter   3:  -551.26664551329907   -1.09498e+02   1.05692e-02 DIIS
   @RHF iter   4:  -552.33952271879230   -1.07288e+00   5.46908e-03 DIIS
   @RHF iter   5:  -552.74960423172809   -4.10082e-01   1.83950e-03 DIIS
   @RHF iter   6:  -552.80173199622220   -5.21278e-02   4.86845e-04 DIIS
   @RHF iter   7:  -552.80614150199074   -4.40951e-03   8.98913e-05 DIIS
   @RHF iter   8:  -552.80640563502391   -2.64133e-04   2.90849e-05 DIIS
   @RHF iter   9:  -552.80643562100954   -2.99860e-05   1.11908e-05 DIIS
   @RHF iter  10:  -552.80643958206917   -3.96106e-06   4.50459e-06 DIIS
   @RHF iter  11:  -552.80643997770585   -3.95637e-07   5.17956e-07 DIIS
   @RHF iter  12:  -552.80643998887012   -1.11643e-08   9.78132e-08 DIIS
   @RHF iter  13:  -552.80643998924654   -3.76417e-10   2.07413e-08 DIIS
   @RHF iter  14:  -552.80643998926337   -1.68257e-11   4.25920e-09 DIIS

  ==> Post-Iterations <==

	Orbital Energies (a.u.)
	-----------------------

	Doubly Occupied:                                                      

	   1A    -91.955035     2A    -20.556028     3A    -11.257579  
	   4A    -11.257565     5A     -8.957241     6A     -6.639252  
	   7A     -6.637873     8A     -6.636057     9A     -1.338583  
	  10A     -1.072399    11A     -0.955213    12A     -0.815236  
	  13A     -0.707705    14A     -0.607510    15A     -0.601598  
	  16A     -0.579198    17A     -0.572582    18A     -0.568539  
	  19A     -0.497728    20A     -0.489343    21A     -0.442663  
	  22A     -0.348738  

	Virtual:                                                              

	  23A      0.036960    24A      0.045737    25A      0.047137  
	  26A      0.057867    27A      0.069691    28A      0.074721  
	  29A      0.084735    30A      0.092044    31A      0.111056  
	  32A      0.136642    33A      0.140966    34A      0.155610  
	  35A      0.156353    36A      0.169318    37A      0.169513  
	  38A      0.178548    39A      0.179812    40A      0.184454  
	  41A      0.215317    42A      0.222313    43A      0.231433  
	  44A      0.260723    45A      0.263312    46A      0.269646  
	  47A      0.280568    48A      0.281172    49A      0.292235  
	  50A      0.303115    51A      0.340544    52A      0.344224  
	  53A      0.368287    54A      0.376583    55A      0.406094  
	  56A      0.406396    57A      0.413214    58A      0.428152  
	  59A      0.440473    60A      0.447610    61A      0.449332  
	  62A      0.461387    63A      0.468340    64A      0.475840  
	  65A      0.502528    66A      0.505219    67A      0.512701  
	  68A      0.541509    69A      0.560259    70A      0.562180  
	  71A      0.577920    72A      0.584928    73A      0.592675  
	  74A      0.602797    75A      0.606496    76A      0.630494  
	  77A      0.636862    78A      0.648184    79A      0.650793  
	  80A      0.671252    81A      0.685356    82A      0.718150  
	  83A      0.724652    84A      0.730417    85A      0.736536  
	  86A      0.740877    87A      0.759070    88A      0.771707  
	  89A      0.789100    90A      0.796443    91A      0.803805  
	  92A      0.864810    93A      0.873234    94A      0.876344  
	  95A      0.882064    96A      0.948948    97A      0.984015  
	  98A      1.047903    99A      1.076361   100A      1.111333  
	 101A      1.130446   102A      1.150058   103A      1.164292  
	 104A      1.176067   105A      1.184681   106A      1.194235  
	 107A      1.234496   108A      1.238775   109A      1.250064  
	 110A      1.269128   111A      1.306776   112A      1.313523  
	 113A      1.338882   114A      1.364427   115A      1.440103  
	 116A      1.474466   117A      1.488417   118A      1.517790  
	 119A      1.522607   120A      1.540435   121A      1.606501  
	 122A      1.640932   123A      1.643943   124A      1.723621  
	 125A      1.836356   126A      1.842938   127A      1.848964  
	 128A      1.871898   129A      1.878413   130A      1.973403  
	 131A      1.996884   132A      2.060456   133A      2.075634  
	 134A      2.094802   135A      2.100519   136A      2.110010  
	 137A      2.146654   138A      2.170973   139A      2.185583  
	 140A      2.237969   141A      2.241563   142A      2.245540  
	 143A      2.263738   144A      2.312542   145A      2.331500  
	 146A      2.373060   147A      2.456416   148A      2.491271  
	 149A      2.519992   150A      2.573826   151A      2.584323  
	 152A      2.616275   153A      2.631556   154A      2.641705  
	 155A      2.817440   156A      2.837900   157A      2.874685  
	 158A      2.910169   159A      2.966291   160A      3.004691  
	 161A      3.028202   162A      3.039231   163A      3.103783  
	 164A      3.752806   165A      3.780415   166A      3.818023  
	 167A      4.150401   168A      4.423482  

	Final Occupation by Irrep:
	          A 
	DOCC [    22 ]

  Energy converged.

  @RHF Final Energy:  -552.80643998926337

   => Energetics <=

    Nuclear Repulsion Energy =            177.7275729445630077
    One-Electron Energy =               -1114.0806913999822427
    Two-Electron Energy =                 383.5466784661552992
    DFT Exchange-Correlation Energy =       0.0000000000000000
    Empirical Dispersion Energy =           0.0000000000000000
    Total Energy =                       -552.8064399892639358



Properties will be evaluated at   0.000000,   0.000000,   0.000000 Bohr
  ==> Properties <==


Properties computed using the SCF density density matrix
  Nuclear Dipole Moment: (a.u.)
     X:     0.6810      Y:     0.5600      Z:     3.5668

  Electronic Dipole Moment: (a.u.)
     X:    -0.6198      Y:    -0.4490      Z:    -3.6193

  Dipole Moment: (a.u.)
     X:     0.0612      Y:     0.1111      Z:    -0.0525     Total:     0.1373

  Dipole Moment: (Debye)
     X:     0.1556      Y:     0.2823      Z:    -0.1335     Total:     0.3489


  Saving occupied orbitals to File 180.

  Saving SAPT 2-DIMER file.

*** tstop() called on node101.bme.utexas.edu at Fri Aug 29 12:00:31 2014
Module time:
	user time   =      23.86 seconds =       0.40 minutes
	system time =       0.31 seconds =       0.01 minutes
	total time  =          7 seconds =       0.12 minutes
Total time:
	user time   =      23.86 seconds =       0.40 minutes
	system time =       0.31 seconds =       0.01 minutes
	total time  =          7 seconds =       0.12 minutes

  //>>>>>>>>>>>>>>>>>>>>>>>>>>>>>>>>>>>//
  //            Monomer A HF           //
  //<<<<<<<<<<<<<<<<<<<<<<<<<<<<<<<<<<<//


  No DF_BASIS_SCF auxiliary basis selected, defaulting to aug-cc-pvdz-jkfit


*** tstart() called on node101.bme.utexas.edu
*** at Fri Aug 29 12:00:31 2014


         ---------------------------------------------------------
                                   SCF
            by Justin Turney, Rob Parrish, and Andy Simmonett
                              RHF Reference
                        4 Threads,   7000 MiB Core
         ---------------------------------------------------------

  ==> Geometry <==

    Molecular point group: c1
    Full point group: C1

    Geometry (in Angstrom), charge = 0, multiplicity = 1:

       Center              X                  Y                   Z       
    ------------   -----------------  -----------------  -----------------
           C          1.593957930146    -0.019701895435     0.122864109424
           C         -0.737728069854     1.374924104565     0.349126109424
           S          0.123446930146     0.346141104565    -0.860565890576
           H          1.319913930146    -0.548610895435     1.032906109424
           H          2.239651930146    -0.654056895435    -0.478909890576
           H          2.125053930146     0.898062104565     0.365239109424
           H         -0.944374069854     0.805818104565     1.252696109424
           H         -0.146181069854     2.256559104565     0.585540109424
           H         -1.677133069854     1.688524104565    -0.098792890576
           O(Gh)     -0.934989920854    -1.746229714435     1.125177841424
           H(Gh)     -0.760483920854    -1.316725714435     0.277147841424
           H(Gh)     -1.428670920854    -2.532957714435     0.887324841424

  Running in c1 symmetry.

  Nuclear repulsion =  111.204614212270599

  Charge       = 0
  Multiplicity = 1
  Electrons    = 34
  Nalpha       = 17
  Nbeta        = 17

  ==> Algorithm <==

  SCF Algorithm Type is DF.
  DIIS enabled.
  MOM disabled.
  Fractional occupation disabled.
  Guess Type is CORE.
  Energy threshold   = 1.00e-08
  Density threshold  = 1.00e-08
  Integral threshold = 0.00e+00

  ==> Primary Basis <==

  Basis Set: AUG-CC-PVDZ
    Number of shells: 78
    Number of basis function: 168
    Number of Cartesian functions: 176
    Spherical Harmonics?: true
    Max angular momentum: 2

  ==> Pre-Iterations <==

   -------------------------------------------------------
    Irrep   Nso     Nmo     Nalpha   Nbeta   Ndocc  Nsocc
   -------------------------------------------------------
     A        168     168       0       0       0       0
   -------------------------------------------------------
    Total     168     168      17      17      17       0
   -------------------------------------------------------

 OEINTS: Wrapper to libmints.
   by Justin Turney

   Calculation information:
      Number of atoms:                  12
      Number of AO shells:              78
      Number of SO shells:              78
      Number of primitives:            184
      Number of atomic orbitals:       176
      Number of basis functions:       168

      Number of irreps:                  1
      Number of functions per irrep: [ 168 ]

      Overlap, kinetic, potential, dipole, and quadrupole integrals
        stored in file 35.

  ==> Integral Setup <==

  ==> DFJK: Density-Fitted J/K Matrices <==

    J tasked:                  Yes
    K tasked:                  Yes
    wK tasked:                  No
    OpenMP threads:              4
    Integrals threads:           4
    Memory (MB):              5006
    Algorithm:                Core
    Integral Cache:           LOAD
    Schwarz Cutoff:          0E+00
    Fitting Condition:       1E-12

   => Auxiliary Basis Set <=

  Basis Set: aug-cc-pvdz-jkfit
    Number of shells: 220
    Number of basis function: 642
    Number of Cartesian functions: 733
    Spherical Harmonics?: true
    Max angular momentum: 3

  Minimum eigenvalue in the overlap matrix is 2.9467717449E-04.
  Using Symmetric Orthogonalization.
  SCF Guess: Core (One-Electron) Hamiltonian.

  Guess energy:  -354.88892904882044

  ==> Iterations <==

                        Total Energy        Delta E     RMS |[F,P]|

   @RHF iter   1:  -437.20786044878321   -4.37208e+02   2.52739e-02 
   @RHF iter   2:  -460.94463697149706   -2.37368e+01   2.08964e-02 DIIS
   @RHF iter   3:  -475.91161649406240   -1.49670e+01   6.72817e-03 DIIS
   @RHF iter   4:  -476.70923363351017   -7.97617e-01   1.83825e-03 DIIS
   @RHF iter   5:  -476.76035379846633   -5.11202e-02   3.76534e-04 DIIS
   @RHF iter   6:  -476.76439691104895   -4.04311e-03   1.66516e-04 DIIS
   @RHF iter   7:  -476.76504854767268   -6.51637e-04   4.50979e-05 DIIS
   @RHF iter   8:  -476.76510767018078   -5.91225e-05   6.20303e-06 DIIS
   @RHF iter   9:  -476.76510956812979   -1.89795e-06   1.90896e-06 DIIS
   @RHF iter  10:  -476.76510973988638   -1.71757e-07   3.46562e-07 DIIS
   @RHF iter  11:  -476.76510974593407   -6.04769e-09   8.17627e-08 DIIS
   @RHF iter  12:  -476.76510974617111   -2.37037e-10   1.35487e-08 DIIS
   @RHF iter  13:  -476.76510974618066   -9.54969e-12   2.96533e-09 DIIS

  ==> Post-Iterations <==

	Orbital Energies (a.u.)
	-----------------------

	Doubly Occupied:                                                      

	   1A    -91.945696     2A    -11.256383     3A    -11.256369  
	   4A     -8.947100     5A     -6.629212     6A     -6.627802  
	   7A     -6.625707     8A     -1.064722     9A     -0.952607  
	  10A     -0.807914    11A     -0.606344    12A     -0.603894  
	  13A     -0.576492    14A     -0.565186    15A     -0.491718  
	  16A     -0.434361    17A     -0.334857  

	Virtual:                                                              

	  18A      0.033146    19A      0.045212    20A      0.047666  
	  21A      0.054669    22A      0.068642    23A      0.073818  
	  24A      0.078259    25A      0.092570    26A      0.112756  
	  27A      0.132450    28A      0.141411    29A      0.152731  
	  30A      0.157323    31A      0.166111    32A      0.170315  
	  33A      0.170745    34A      0.172804    35A      0.183437  
	  36A      0.195000    37A      0.205876    38A      0.214820  
	  39A      0.238916    40A      0.244761    41A      0.262676  
	  42A      0.272250    43A      0.282200    44A      0.292767  
	  45A      0.315979    46A      0.337401    47A      0.346019  
	  48A      0.368917    49A      0.389780    50A      0.404779  
	  51A      0.424576    52A      0.432794    53A      0.434806  
	  54A      0.448069    55A      0.452573    56A      0.453948  
	  57A      0.464334    58A      0.468808    59A      0.479274  
	  60A      0.490017    61A      0.498899    62A      0.516692  
	  63A      0.519263    64A      0.560324    65A      0.560903  
	  66A      0.575438    67A      0.582737    68A      0.588820  
	  69A      0.604689    70A      0.604725    71A      0.613351  
	  72A      0.625600    73A      0.628167    74A      0.656263  
	  75A      0.676776    76A      0.688922    77A      0.700321  
	  78A      0.720584    79A      0.736384    80A      0.739529  
	  81A      0.753078    82A      0.763461    83A      0.774055  
	  84A      0.779336    85A      0.783970    86A      0.804398  
	  87A      0.853737    88A      0.873947    89A      0.880429  
	  90A      0.892592    91A      0.943678    92A      1.010507  
	  93A      1.015489    94A      1.048372    95A      1.121840  
	  96A      1.127220    97A      1.140601    98A      1.173366  
	  99A      1.198191   100A      1.203698   101A      1.210729  
	 102A      1.240895   103A      1.265976   104A      1.275456  
	 105A      1.276525   106A      1.318853   107A      1.334512  
	 108A      1.362169   109A      1.377769   110A      1.401161  
	 111A      1.431569   112A      1.463374   113A      1.466921  
	 114A      1.495026   115A      1.513124   116A      1.523826  
	 117A      1.572324   118A      1.606581   119A      1.647504  
	 120A      1.764189   121A      1.837149   122A      1.848760  
	 123A      1.875989   124A      1.883289   125A      1.927683  
	 126A      1.961131   127A      2.081142   128A      2.083592  
	 129A      2.104156   130A      2.142246   131A      2.150921  
	 132A      2.177333   133A      2.183109   134A      2.229432  
	 135A      2.235429   136A      2.266064   137A      2.284652  
	 138A      2.316756   139A      2.353727   140A      2.413551  
	 141A      2.468594   142A      2.510972   143A      2.541628  
	 144A      2.565459   145A      2.583768   146A      2.615581  
	 147A      2.623636   148A      2.655114   149A      2.815925  
	 150A      2.833932   151A      2.872863   152A      2.875517  
	 153A      2.978827   154A      3.008651   155A      3.024817  
	 156A      3.047160   157A      3.533196   158A      4.004266  
	 159A      4.126751   160A      4.961024   161A      4.969955  
	 162A      5.053090   163A      5.271924   164A      5.523685  
	 165A      5.782514   166A      6.695548   167A      7.080381  
	 168A     33.570222  

	Final Occupation by Irrep:
	          A 
	DOCC [    17 ]

  Energy converged.

  @RHF Final Energy:  -476.76510974618066

   => Energetics <=

    Nuclear Repulsion Energy =            111.2046142122705987
    One-Electron Energy =                -876.4867184603194801
    Two-Electron Energy =                 288.5169945018698172
    DFT Exchange-Correlation Energy =       0.0000000000000000
    Empirical Dispersion Energy =           0.0000000000000000
    Total Energy =                       -476.7651097461790641



Properties will be evaluated at   0.000000,   0.000000,   0.000000 Bohr
  ==> Properties <==


Properties computed using the SCF density density matrix
  Nuclear Dipole Moment: (a.u.)
     X:    18.9529      Y:    34.2341      Z:   -15.6440

  Electronic Dipole Moment: (a.u.)
     X:   -18.7710      Y:   -34.0360      Z:    16.2981

  Dipole Moment: (a.u.)
     X:     0.1819      Y:     0.1981      Z:     0.6541     Total:     0.7072

  Dipole Moment: (Debye)
     X:     0.4625      Y:     0.5035      Z:     1.6626     Total:     1.7976


  Saving occupied orbitals to File 180.

  Saving SAPT 2-MONOMER_A file.

*** tstop() called on node101.bme.utexas.edu at Fri Aug 29 12:00:36 2014
Module time:
	user time   =      15.96 seconds =       0.27 minutes
	system time =       0.17 seconds =       0.00 minutes
	total time  =          5 seconds =       0.08 minutes
Total time:
	user time   =      39.84 seconds =       0.66 minutes
	system time =       0.48 seconds =       0.01 minutes
	total time  =         12 seconds =       0.20 minutes

  //>>>>>>>>>>>>>>>>>>>>>>>>>>>>>>>>>>>//
  //            Monomer B HF           //
  //<<<<<<<<<<<<<<<<<<<<<<<<<<<<<<<<<<<//


  No DF_BASIS_SCF auxiliary basis selected, defaulting to aug-cc-pvdz-jkfit


*** tstart() called on node101.bme.utexas.edu
*** at Fri Aug 29 12:00:36 2014


         ---------------------------------------------------------
                                   SCF
            by Justin Turney, Rob Parrish, and Andy Simmonett
                              RHF Reference
                        4 Threads,   7000 MiB Core
         ---------------------------------------------------------

  ==> Geometry <==

    Molecular point group: c1
    Full point group: C1

    Geometry (in Angstrom), charge = 0, multiplicity = 1:

       Center              X                  Y                   Z       
    ------------   -----------------  -----------------  -----------------
           C(Gh)      1.593957930146    -0.019701895435     0.122864109424
           C(Gh)     -0.737728069854     1.374924104565     0.349126109424
           S(Gh)      0.123446930146     0.346141104565    -0.860565890576
           H(Gh)      1.319913930146    -0.548610895435     1.032906109424
           H(Gh)      2.239651930146    -0.654056895435    -0.478909890576
           H(Gh)      2.125053930146     0.898062104565     0.365239109424
           H(Gh)     -0.944374069854     0.805818104565     1.252696109424
           H(Gh)     -0.146181069854     2.256559104565     0.585540109424
           H(Gh)     -1.677133069854     1.688524104565    -0.098792890576
           O         -0.934989920854    -1.746229714435     1.125177841424
           H         -0.760483920854    -1.316725714435     0.277147841424
           H         -1.428670920854    -2.532957714435     0.887324841424

  Running in c1 symmetry.

  Nuclear repulsion =    9.144806834248037

  Charge       = 0
  Multiplicity = 1
  Electrons    = 10
  Nalpha       = 5
  Nbeta        = 5

  ==> Algorithm <==

  SCF Algorithm Type is DF.
  DIIS enabled.
  MOM disabled.
  Fractional occupation disabled.
  Guess Type is CORE.
  Energy threshold   = 1.00e-08
  Density threshold  = 1.00e-08
  Integral threshold = 0.00e+00

  ==> Primary Basis <==

  Basis Set: AUG-CC-PVDZ
    Number of shells: 78
    Number of basis function: 168
    Number of Cartesian functions: 176
    Spherical Harmonics?: true
    Max angular momentum: 2

  ==> Pre-Iterations <==

   -------------------------------------------------------
    Irrep   Nso     Nmo     Nalpha   Nbeta   Ndocc  Nsocc
   -------------------------------------------------------
     A        168     168       0       0       0       0
   -------------------------------------------------------
    Total     168     168       5       5       5       0
   -------------------------------------------------------

 OEINTS: Wrapper to libmints.
   by Justin Turney

   Calculation information:
      Number of atoms:                  12
      Number of AO shells:              78
      Number of SO shells:              78
      Number of primitives:            184
      Number of atomic orbitals:       176
      Number of basis functions:       168

      Number of irreps:                  1
      Number of functions per irrep: [ 168 ]

      Overlap, kinetic, potential, dipole, and quadrupole integrals
        stored in file 35.

  ==> Integral Setup <==

  ==> DFJK: Density-Fitted J/K Matrices <==

    J tasked:                  Yes
    K tasked:                  Yes
    wK tasked:                  No
    OpenMP threads:              4
    Integrals threads:           4
    Memory (MB):              5006
    Algorithm:                Core
    Integral Cache:           LOAD
    Schwarz Cutoff:          0E+00
    Fitting Condition:       1E-12

   => Auxiliary Basis Set <=

  Basis Set: aug-cc-pvdz-jkfit
    Number of shells: 220
    Number of basis function: 642
    Number of Cartesian functions: 733
    Spherical Harmonics?: true
    Max angular momentum: 3

  Minimum eigenvalue in the overlap matrix is 2.9467717449E-04.
  Using Symmetric Orthogonalization.
  SCF Guess: Core (One-Electron) Hamiltonian.

  Guess energy:   -58.67177788980808

  ==> Iterations <==

                        Total Energy        Delta E     RMS |[F,P]|

   @RHF iter   1:   -68.43340332470811   -6.84334e+01   2.02971e-02 
   @RHF iter   2:   -64.65072776321387    3.78268e+00   1.55577e-02 DIIS
   @RHF iter   3:   -75.00953558179182   -1.03588e+01   9.59529e-03 DIIS
   @RHF iter   4:   -75.82852066467507   -8.18985e-01   4.19784e-03 DIIS
   @RHF iter   5:   -76.04010949433010   -2.11589e-01   3.26256e-04 DIIS
   @RHF iter   6:   -76.04116538111623   -1.05589e-03   1.67051e-04 DIIS
   @RHF iter   7:   -76.04143452040176   -2.69139e-04   2.06421e-05 DIIS
   @RHF iter   8:   -76.04144034346831   -5.82307e-06   3.23754e-06 DIIS
   @RHF iter   9:   -76.04144059980672   -2.56338e-07   7.07890e-07 DIIS
   @RHF iter  10:   -76.04144060885537   -9.04865e-09   1.43007e-07 DIIS
   @RHF iter  11:   -76.04144060921990   -3.64537e-10   1.23842e-08 DIIS
   @RHF iter  12:   -76.04144060922505   -5.14433e-12   4.73198e-09 DIIS

  ==> Post-Iterations <==

	Orbital Energies (a.u.)
	-----------------------

	Doubly Occupied:                                                      

	   1A    -20.578303     2A     -1.354329     3A     -0.715055  
	   4A     -0.585638     5A     -0.509000  

	Virtual:                                                              

	   6A      0.022386     7A      0.042659     8A      0.042869  
	   9A      0.052334    10A      0.070623    11A      0.076447  
	  12A      0.077929    13A      0.087279    14A      0.098113  
	  15A      0.110216    16A      0.131258    17A      0.142292  
	  18A      0.146729    19A      0.149020    20A      0.162429  
	  21A      0.165474    22A      0.167677    23A      0.174672  
	  24A      0.197087    25A      0.211955    26A      0.212098  
	  27A      0.239991    28A      0.262899    29A      0.270045  
	  30A      0.296786    31A      0.314072    32A      0.339617  
	  33A      0.343960    34A      0.344514    35A      0.381135  
	  36A      0.390303    37A      0.390981    38A      0.403427  
	  39A      0.408971    40A      0.416305    41A      0.433812  
	  42A      0.445798    43A      0.452421    44A      0.456747  
	  45A      0.471111    46A      0.475632    47A      0.491599  
	  48A      0.504164    49A      0.521360    50A      0.542260  
	  51A      0.546640    52A      0.566142    53A      0.589908  
	  54A      0.589923    55A      0.615430    56A      0.628448  
	  57A      0.636088    58A      0.645637    59A      0.682034  
	  60A      0.684648    61A      0.698103    62A      0.703391  
	  63A      0.712100    64A      0.752489    65A      0.760236  
	  66A      0.776689    67A      0.792454    68A      0.794005  
	  69A      0.798911    70A      0.808101    71A      0.830541  
	  72A      0.833260    73A      0.849665    74A      0.851809  
	  75A      0.888341    76A      0.891507    77A      0.893066  
	  78A      0.896119    79A      0.910115    80A      0.927335  
	  81A      0.957941    82A      0.970985    83A      0.981023  
	  84A      1.001396    85A      1.026186    86A      1.033816  
	  87A      1.044468    88A      1.088911    89A      1.130533  
	  90A      1.160938    91A      1.211262    92A      1.280663  
	  93A      1.323892    94A      1.421706    95A      1.594878  
	  96A      1.628896    97A      1.765586    98A      1.834409  
	  99A      1.888642   100A      1.898724   101A      1.940804  
	 102A      1.949906   103A      1.953321   104A      1.997734  
	 105A      2.032860   106A      2.078935   107A      2.080390  
	 108A      2.098338   109A      2.111714   110A      2.121878  
	 111A      2.130275   112A      2.196970   113A      2.202428  
	 114A      2.223516   115A      2.265638   116A      2.284000  
	 117A      2.284511   118A      2.350690   119A      2.351824  
	 120A      2.356746   121A      2.371036   122A      2.393277  
	 123A      2.415904   124A      2.422980   125A      2.456506  
	 126A      2.496816   127A      2.543779   128A      2.597413  
	 129A      2.605704   130A      2.607040   131A      2.638367  
	 132A      2.707805   133A      2.802871   134A      2.815344  
	 135A      2.829932   136A      2.875154   137A      2.956656  
	 138A      2.970238   139A      2.976028   140A      3.025435  
	 141A      3.068998   142A      3.079187   143A      3.080585  
	 144A      3.129388   145A      3.215922   146A      3.261548  
	 147A      3.263819   148A      3.328761   149A      3.388293  
	 150A      3.403165   151A      3.742316   152A      3.773217  
	 153A      3.817221   154A      4.122790   155A      4.172484  
	 156A      4.328671   157A      4.419230   158A      5.113193  
	 159A      5.115675   160A      5.136028   161A      5.159452  
	 162A      6.761308   163A     18.420532   164A     18.425190  
	 165A     20.798934   166A     20.908603   167A     20.929072  
	 168A    137.983143  

	Final Occupation by Irrep:
	          A 
	DOCC [     5 ]

  Energy converged.

  @RHF Final Energy:   -76.04144060922505

   => Energetics <=

    Nuclear Repulsion Energy =              9.1448068342480369
    One-Electron Energy =                -122.8878425206412999
    Two-Electron Energy =                  37.7015950771679087
    DFT Exchange-Correlation Energy =       0.0000000000000000
    Empirical Dispersion Energy =           0.0000000000000000
    Total Energy =                        -76.0414406092253472



Properties will be evaluated at   0.000000,   0.000000,   0.000000 Bohr
  ==> Properties <==


Properties computed using the SCF density density matrix
  Nuclear Dipole Moment: (a.u.)
     X:   -18.2719      Y:   -33.6740      Z:    19.2108

  Electronic Dipole Moment: (a.u.)
     X:    18.0586      Y:    33.4352      Z:   -19.9356

  Dipole Moment: (a.u.)
     X:    -0.2133      Y:    -0.2388      Z:    -0.7248     Total:     0.7924

  Dipole Moment: (Debye)
     X:    -0.5420      Y:    -0.6070      Z:    -1.8423     Total:     2.0140


  Saving occupied orbitals to File 180.

  Saving SAPT 2-MONOMER_B file.

*** tstop() called on node101.bme.utexas.edu at Fri Aug 29 12:00:40 2014
Module time:
	user time   =      13.31 seconds =       0.22 minutes
	system time =       0.15 seconds =       0.00 minutes
	total time  =          4 seconds =       0.07 minutes
Total time:
	user time   =      53.17 seconds =       0.89 minutes
	system time =       0.63 seconds =       0.01 minutes
	total time  =         16 seconds =       0.27 minutes
  No DF_BASIS_SAPT auxiliary basis selected, defaulting to aug-cc-pvdz-ri

  //>>>>>>>>>>>>>>>>>>>>>>>>>>>>>>>>>>>//
  //               SAPT2+              //
  //<<<<<<<<<<<<<<<<<<<<<<<<<<<<<<<<<<<//


*** tstart() called on node101.bme.utexas.edu
*** at Fri Aug 29 12:00:40 2014

        SAPT2+  
    Ed Hohenstein
     6 June 2009

      Orbital Information
  --------------------------
    NSO        =       168
    NMO        =       168
    NRI        =       492
    NOCC A     =        17
    NOCC B     =         5
    FOCC A     =         7
    FOCC B     =         1
    NVIR A     =       151
    NVIR B     =       163

    Estimated memory usage: 288.9 MB

    Elst10,r            =    -0.016764117998 H
    Exch10 (S^2)        =     0.023521259776 H
    Exch10              =     0.023771360600 H
    Ind20,r (A<-B)      =    -0.009554069686 H
    Ind20,r (B<-A)      =    -0.002595099391 H
    Ind20,r             =    -0.012149169077 H
    Exch-Ind20,r (A<-B) =     0.006056006561 H
    Exch-Ind20,r (B<-A) =     0.002042354851 H
    Exch-Ind20,r        =     0.008098361412 H
    Disp20              =    -0.009441134262 H
    Exch-Disp20         =     0.001543108307 H
    Elst12,r            =    -0.000382307694 H
    Exch11              =     0.000485943377 H
    Exch12              =     0.002595596018 H
    Ind22               =    -0.001389525610 H
    Disp21              =     0.000834964933 H
    Disp22 (SDQ)        =    -0.000103001972 H

    (i =   1 of   4)         31 seconds
    (i =   2 of   4)         62 seconds
    (i =   3 of   4)         94 seconds
    (i =   4 of   4)        125 seconds

    Disp220 (T)         =    -0.000580256351 H

    (i =   1 of  10)         11 seconds
    (i =   2 of  10)         21 seconds
    (i =   3 of  10)         32 seconds
    (i =   4 of  10)         43 seconds
    (i =   5 of  10)         53 seconds
    (i =   6 of  10)         64 seconds
    (i =   7 of  10)         75 seconds
    (i =   8 of  10)         86 seconds
    (i =   9 of  10)         96 seconds
    (i =  10 of  10)        107 seconds

    Disp202 (T)         =    -0.000795042861 H

    Disp22 (T)          =    -0.001375299213 H

    SAPT Results  
  -----------------------------------------------------------------------
    Electrostatics         -17.14642569 mH     -10.75954501 kcal mol^-1
      Elst10,r             -16.76411800 mH     -10.51964330 kcal mol^-1
      Elst12,r              -0.38230769 mH      -0.23990171 kcal mol^-1

    Exchange                26.85290000 mH      16.85044985 kcal mol^-1
      Exch10                23.77136060 mH      14.91675460 kcal mol^-1
      Exch10(S^2)           23.52125978 mH      14.75981396 kcal mol^-1
      Exch11(S^2)            0.48594338 mH       0.30493409 kcal mol^-1
      Exch12(S^2)            2.59559602 mH       1.62876116 kcal mol^-1

    Induction               -7.36017572 mH      -4.61858018 kcal mol^-1
      Ind20,r              -12.14916908 mH      -7.62371901 kcal mol^-1
      Ind22                 -1.38952561 mH      -0.87194052 kcal mol^-1
      Exch-Ind20,r           8.09836141 mH       5.08179872 kcal mol^-1
      Exch-Ind22             0.92622635 mH       0.58121584 kcal mol^-1
      delta HF,r (2)        -2.84606879 mH      -1.78593521 kcal mol^-1

    Dispersion              -8.54136221 mH      -5.35978593 kcal mol^-1
      Disp20                -9.44113426 mH      -5.92440144 kcal mol^-1
      Disp21                 0.83496493 mH       0.52394843 kcal mol^-1
      Disp22 (SDQ)          -0.10300197 mH      -0.06463472 kcal mol^-1
      Disp22 (T)            -1.37529921 mH      -0.86301332 kcal mol^-1
      Exch-Disp20            1.54310831 mH       0.96831512 kcal mol^-1

    Total HF                 0.11036614 mH       0.06925580 kcal mol^-1
    Total SAPT0             -7.78765981 mH      -4.88683052 kcal mol^-1
    Total SAPT2             -5.55172737 mH      -3.48376166 kcal mol^-1
    Total SAPT2+            -6.19506362 mH      -3.88746127 kcal mol^-1

*** tstop() called on node101.bme.utexas.edu at Fri Aug 29 12:05:51 2014
Module time:
	user time   =    1213.16 seconds =      20.22 minutes
	system time =      11.41 seconds =       0.19 minutes
	total time  =        311 seconds =       5.18 minutes
Total time:
	user time   =    1266.34 seconds =      21.11 minutes
	system time =      12.04 seconds =       0.20 minutes
	total time  =        327 seconds =       5.45 minutes

*** PSI4 exiting successfully. Buy a developer a beer!
