    -----------------------------------------------------------------------
          PSI4: An Open-Source Ab Initio Electronic Structure Package
                              PSI 4.0.0-beta4 Driver

    J. M. Turney, A. C. Simmonett, R. M. Parrish, E. G. Hohenstein,
    F. A. Evangelista, J. T. Fermann, B. J. Mintz, L. A. Burns, J. J. Wilke,
    M. L. Abrams, N. J. Russ, M. L. Leininger, C. L. Janssen, E. T. Seidl,
    W. D. Allen, H. F. Schaefer, R. A. King, E. F. Valeev, C. D. Sherrill,
    and T. D. Crawford, WIREs Comput. Mol. Sci., (2011) (doi: 10.1002/wcms.93)

                         Additional Contributions by
    A. E. DePrince, M. Saitow, U. Bozkaya, A. Yu. Sokolov
    -----------------------------------------------------------------------

    Process ID:   4951
    PSI4DATADIR: /home/xzhu216/psi4/psi4-install/share/psi

    Using LocalCommunicator (Number of processes = 1)

    Memory level set to 256.000 MB

  ==> Input File <==

--------------------------------------------------------------------------
#psi4
#
memory 7 gb

molecule DimethylSulfide_Water {
0 1
    C    -0.862225000    -0.933550000    -0.246023000
    C    -3.193911000     0.461076000    -0.019761000
    S    -2.332736000    -0.567707000    -1.229453000
    H    -1.136269000    -1.462459000     0.664019000
    H    -0.216531000    -1.567905000    -0.847797000
    H    -0.331129000    -0.015786000    -0.003648000
    H    -3.400557000    -0.108030000     0.883809000
    H    -2.602364000     1.342711000     0.216653000
    H    -4.133316000     0.774676000    -0.467680000
--
0 1
    O    -3.636431631    -3.092749350     0.895091361
    H    -3.461925631    -2.663245350     0.047061361
    H    -4.130112631    -3.879477350     0.657238361
units angstrom
no_reorient  #important for SAPT in psi4, default
symmetry c1  #important for SAPT in psi4, default
}

set {
basis aug-cc-pVDZ
scf_type DF
freeze_core True
}
energy('sapt2+')
--------------------------------------------------------------------------

  Memory set to   7.000 GiB by Python script.

  //>>>>>>>>>>>>>>>>>>>>>>>>>>>>>>>>>>>//
  //              Dimer HF             //
  //<<<<<<<<<<<<<<<<<<<<<<<<<<<<<<<<<<<//


  No DF_BASIS_SCF auxiliary basis selected, defaulting to aug-cc-pvdz-jkfit


*** tstart() called on node139.bme.utexas.edu
*** at Fri Aug 29 12:04:30 2014


         ---------------------------------------------------------
                                   SCF
            by Justin Turney, Rob Parrish, and Andy Simmonett
                              RHF Reference
                        4 Threads,   7000 MiB Core
         ---------------------------------------------------------

  ==> Geometry <==

    Molecular point group: c1
    Full point group: C1

    Geometry (in Angstrom), charge = 0, multiplicity = 1:

       Center              X                  Y                   Z       
    ------------   -----------------  -----------------  -----------------
           C          1.649153131684     0.077670326484     0.091627190235
           C         -0.682532868316     1.472296326484     0.317889190235
           S          0.178642131684     0.443513326484    -0.891802809765
           H          1.375109131684    -0.451238673516     1.001669190235
           H          2.294847131684    -0.556684673516    -0.510146809765
           H          2.180249131684     0.995434326484     0.334002190235
           H         -0.889178868316     0.903190326484     1.221459190235
           H         -0.090985868316     2.353931326484     0.554303190235
           H         -1.621937868316     1.785896326484    -0.130029809765
           O         -1.125053499316    -2.081529023516     1.232741551235
           H         -0.950547499316    -1.652025023516     0.384711551235
           H         -1.618734499316    -2.868257023516     0.994888551235

  Running in c1 symmetry.

  Nuclear repulsion =  170.123657738352591

  Charge       = 0
  Multiplicity = 1
  Electrons    = 44
  Nalpha       = 22
  Nbeta        = 22

  ==> Algorithm <==

  SCF Algorithm Type is DF.
  DIIS enabled.
  MOM disabled.
  Fractional occupation disabled.
  Guess Type is CORE.
  Energy threshold   = 1.00e-08
  Density threshold  = 1.00e-08
  Integral threshold = 0.00e+00

  ==> Primary Basis <==

  Basis Set: AUG-CC-PVDZ
    Number of shells: 78
    Number of basis function: 168
    Number of Cartesian functions: 176
    Spherical Harmonics?: true
    Max angular momentum: 2

  ==> Pre-Iterations <==

   -------------------------------------------------------
    Irrep   Nso     Nmo     Nalpha   Nbeta   Ndocc  Nsocc
   -------------------------------------------------------
     A        168     168       0       0       0       0
   -------------------------------------------------------
    Total     168     168      22      22      22       0
   -------------------------------------------------------

 OEINTS: Wrapper to libmints.
   by Justin Turney

   Calculation information:
      Number of atoms:                  12
      Number of AO shells:              78
      Number of SO shells:              78
      Number of primitives:            184
      Number of atomic orbitals:       176
      Number of basis functions:       168

      Number of irreps:                  1
      Number of functions per irrep: [ 168 ]

      Overlap, kinetic, potential, dipole, and quadrupole integrals
        stored in file 35.

  ==> Integral Setup <==

  ==> DFJK: Density-Fitted J/K Matrices <==

    J tasked:                  Yes
    K tasked:                  Yes
    wK tasked:                  No
    OpenMP threads:              4
    Integrals threads:           4
    Memory (MB):              5006
    Algorithm:                Core
    Integral Cache:           SAVE
    Schwarz Cutoff:          0E+00
    Fitting Condition:       1E-12

   => Auxiliary Basis Set <=

  Basis Set: aug-cc-pvdz-jkfit
    Number of shells: 220
    Number of basis function: 642
    Number of Cartesian functions: 733
    Spherical Harmonics?: true
    Max angular momentum: 3

  Minimum eigenvalue in the overlap matrix is 3.2091334851E-04.
  Using Symmetric Orthogonalization.
  SCF Guess: Core (One-Electron) Hamiltonian.

  Guess energy:  -414.62691233010923

  ==> Iterations <==

                        Total Energy        Delta E     RMS |[F,P]|

   @RHF iter   1:  -497.63312296163485   -4.97633e+02   2.97177e-02 
   @RHF iter   2:  -420.86395538549914    7.67692e+01   4.03291e-02 DIIS
   @RHF iter   3:  -536.60497045972727   -1.15741e+02   1.94981e-02 DIIS
   @RHF iter   4:  -542.87535759468744   -6.27039e+00   1.88673e-02 DIIS
   @RHF iter   5:  -552.56077794008320   -9.68542e+00   4.21017e-03 DIIS
   @RHF iter   6:  -552.74657402080697   -1.85796e-01   1.91305e-03 DIIS
   @RHF iter   7:  -552.79697854886388   -5.04045e-02   9.26460e-04 DIIS
   @RHF iter   8:  -552.80859788420378   -1.16193e-02   3.01205e-04 DIIS
   @RHF iter   9:  -552.81026770678488   -1.66982e-03   8.72142e-05 DIIS
   @RHF iter  10:  -552.81041165037675   -1.43944e-04   1.89380e-05 DIIS
   @RHF iter  11:  -552.81042222133715   -1.05710e-05   4.79508e-06 DIIS
   @RHF iter  12:  -552.81042303133199   -8.09995e-07   1.34134e-06 DIIS
   @RHF iter  13:  -552.81042311348097   -8.21490e-08   3.32955e-07 DIIS
   @RHF iter  14:  -552.81042311900239   -5.52143e-09   7.75612e-08 DIIS
   @RHF iter  15:  -552.81042311923625   -2.33854e-10   2.37313e-08 DIIS
   @RHF iter  16:  -552.81042311925535   -1.90994e-11   8.11319e-09 DIIS

  ==> Post-Iterations <==

	Orbital Energies (a.u.)
	-----------------------

	Doubly Occupied:                                                      

	   1A    -91.952617     2A    -20.566910     3A    -11.258012  
	   4A    -11.257998     5A     -8.954362     6A     -6.636443  
	   7A     -6.635045     8A     -6.633037     9A     -1.344688  
	  10A     -1.069552    11A     -0.954841    12A     -0.812329  
	  13A     -0.707197    14A     -0.607373    15A     -0.606221  
	  16A     -0.578792    17A     -0.577655    18A     -0.566935  
	  19A     -0.499558    20A     -0.495143    21A     -0.440189  
	  22A     -0.344055  

	Virtual:                                                              

	  23A      0.036513    24A      0.045844    25A      0.045858  
	  26A      0.057395    27A      0.069533    28A      0.074785  
	  29A      0.084982    30A      0.090493    31A      0.108673  
	  32A      0.137604    33A      0.139368    34A      0.156724  
	  35A      0.159760    36A      0.168175    37A      0.170655  
	  38A      0.177713    39A      0.178438    40A      0.182964  
	  41A      0.212026    42A      0.221017    43A      0.227549  
	  44A      0.254509    45A      0.259312    46A      0.263543  
	  47A      0.263893    48A      0.279230    49A      0.293945  
	  50A      0.297968    51A      0.330540    52A      0.337808  
	  53A      0.349513    54A      0.367547    55A      0.395860  
	  56A      0.407087    57A      0.407865    58A      0.426994  
	  59A      0.433453    60A      0.439203    61A      0.446599  
	  62A      0.453324    63A      0.461800    64A      0.462083  
	  65A      0.485107    66A      0.490766    67A      0.514980  
	  68A      0.517793    69A      0.540981    70A      0.550208  
	  71A      0.574220    72A      0.577272    73A      0.587219  
	  74A      0.603030    75A      0.610598    76A      0.613722  
	  77A      0.624964    78A      0.625997    79A      0.643209  
	  80A      0.652401    81A      0.675579    82A      0.693314  
	  83A      0.701402    84A      0.721894    85A      0.723063  
	  86A      0.732657    87A      0.754500    88A      0.759520  
	  89A      0.778726    90A      0.786331    91A      0.800841  
	  92A      0.846178    93A      0.868670    94A      0.871825  
	  95A      0.876965    96A      0.915292    97A      0.978291  
	  98A      1.023093    99A      1.040093   100A      1.098586  
	 101A      1.117993   102A      1.133603   103A      1.135775  
	 104A      1.150217   105A      1.152640   106A      1.197386  
	 107A      1.215889   108A      1.232950   109A      1.247572  
	 110A      1.249737   111A      1.275671   112A      1.289361  
	 113A      1.314316   114A      1.375800   115A      1.381389  
	 116A      1.428196   117A      1.490201   118A      1.503067  
	 119A      1.514421   120A      1.514839   121A      1.528370  
	 122A      1.608160   123A      1.612307   124A      1.694524  
	 125A      1.780231   126A      1.823847   127A      1.838929  
	 128A      1.846796   129A      1.898403   130A      1.934016  
	 131A      1.935944   132A      2.061722   133A      2.065900  
	 134A      2.078347   135A      2.087609   136A      2.093812  
	 137A      2.127038   138A      2.138238   139A      2.163765  
	 140A      2.210292   141A      2.230879   142A      2.231753  
	 143A      2.248986   144A      2.283791   145A      2.289476  
	 146A      2.319196   147A      2.412706   148A      2.477595  
	 149A      2.520119   150A      2.533647   151A      2.571152  
	 152A      2.598917   153A      2.604074   154A      2.632075  
	 155A      2.766163   156A      2.789559   157A      2.856237  
	 158A      2.865585   159A      2.944399   160A      2.996220  
	 161A      3.015458   162A      3.034375   163A      3.041924  
	 164A      3.723469   165A      3.751542   166A      3.773144  
	 167A      4.087001   168A      4.374674  

	Final Occupation by Irrep:
	          A 
	DOCC [    22 ]

  Energy converged.

  @RHF Final Energy:  -552.81042311925535

   => Energetics <=

    Nuclear Repulsion Energy =            170.1236577383525912
    One-Electron Energy =               -1098.8702603069718862
    Two-Electron Energy =                 375.9361794493630669
    DFT Exchange-Correlation Energy =       0.0000000000000000
    Empirical Dispersion Energy =           0.0000000000000000
    Total Energy =                       -552.8104231192562565



Properties will be evaluated at   0.000000,   0.000000,   0.000000 Bohr
  ==> Properties <==


Properties computed using the SCF density density matrix
  Nuclear Dipole Moment: (a.u.)
     X:     0.6357      Y:     0.4800      Z:     3.5925

  Electronic Dipole Moment: (a.u.)
     X:    -0.6001      Y:    -0.4138      Z:    -3.6333

  Dipole Moment: (a.u.)
     X:     0.0355      Y:     0.0662      Z:    -0.0409     Total:     0.0855

  Dipole Moment: (Debye)
     X:     0.0903      Y:     0.1683      Z:    -0.1039     Total:     0.2174


  Saving occupied orbitals to File 180.

  Saving SAPT 2-DIMER file.

*** tstop() called on node139.bme.utexas.edu at Fri Aug 29 12:04:38 2014
Module time:
	user time   =      26.30 seconds =       0.44 minutes
	system time =       0.42 seconds =       0.01 minutes
	total time  =          8 seconds =       0.13 minutes
Total time:
	user time   =      26.30 seconds =       0.44 minutes
	system time =       0.42 seconds =       0.01 minutes
	total time  =          8 seconds =       0.13 minutes

  //>>>>>>>>>>>>>>>>>>>>>>>>>>>>>>>>>>>//
  //            Monomer A HF           //
  //<<<<<<<<<<<<<<<<<<<<<<<<<<<<<<<<<<<//


  No DF_BASIS_SCF auxiliary basis selected, defaulting to aug-cc-pvdz-jkfit


*** tstart() called on node139.bme.utexas.edu
*** at Fri Aug 29 12:04:38 2014


         ---------------------------------------------------------
                                   SCF
            by Justin Turney, Rob Parrish, and Andy Simmonett
                              RHF Reference
                        4 Threads,   7000 MiB Core
         ---------------------------------------------------------

  ==> Geometry <==

    Molecular point group: c1
    Full point group: C1

    Geometry (in Angstrom), charge = 0, multiplicity = 1:

       Center              X                  Y                   Z       
    ------------   -----------------  -----------------  -----------------
           C          1.649153131684     0.077670326484     0.091627190235
           C         -0.682532868316     1.472296326484     0.317889190235
           S          0.178642131684     0.443513326484    -0.891802809765
           H          1.375109131684    -0.451238673516     1.001669190235
           H          2.294847131684    -0.556684673516    -0.510146809765
           H          2.180249131684     0.995434326484     0.334002190235
           H         -0.889178868316     0.903190326484     1.221459190235
           H         -0.090985868316     2.353931326484     0.554303190235
           H         -1.621937868316     1.785896326484    -0.130029809765
           O(Gh)     -1.125053499316    -2.081529023516     1.232741551235
           H(Gh)     -0.950547499316    -1.652025023516     0.384711551235
           H(Gh)     -1.618734499316    -2.868257023516     0.994888551235

  Running in c1 symmetry.

  Nuclear repulsion =  111.204614212270585

  Charge       = 0
  Multiplicity = 1
  Electrons    = 34
  Nalpha       = 17
  Nbeta        = 17

  ==> Algorithm <==

  SCF Algorithm Type is DF.
  DIIS enabled.
  MOM disabled.
  Fractional occupation disabled.
  Guess Type is CORE.
  Energy threshold   = 1.00e-08
  Density threshold  = 1.00e-08
  Integral threshold = 0.00e+00

  ==> Primary Basis <==

  Basis Set: AUG-CC-PVDZ
    Number of shells: 78
    Number of basis function: 168
    Number of Cartesian functions: 176
    Spherical Harmonics?: true
    Max angular momentum: 2

  ==> Pre-Iterations <==

   -------------------------------------------------------
    Irrep   Nso     Nmo     Nalpha   Nbeta   Ndocc  Nsocc
   -------------------------------------------------------
     A        168     168       0       0       0       0
   -------------------------------------------------------
    Total     168     168      17      17      17       0
   -------------------------------------------------------

 OEINTS: Wrapper to libmints.
   by Justin Turney

   Calculation information:
      Number of atoms:                  12
      Number of AO shells:              78
      Number of SO shells:              78
      Number of primitives:            184
      Number of atomic orbitals:       176
      Number of basis functions:       168

      Number of irreps:                  1
      Number of functions per irrep: [ 168 ]

      Overlap, kinetic, potential, dipole, and quadrupole integrals
        stored in file 35.

  ==> Integral Setup <==

  ==> DFJK: Density-Fitted J/K Matrices <==

    J tasked:                  Yes
    K tasked:                  Yes
    wK tasked:                  No
    OpenMP threads:              4
    Integrals threads:           4
    Memory (MB):              5006
    Algorithm:                Core
    Integral Cache:           LOAD
    Schwarz Cutoff:          0E+00
    Fitting Condition:       1E-12

   => Auxiliary Basis Set <=

  Basis Set: aug-cc-pvdz-jkfit
    Number of shells: 220
    Number of basis function: 642
    Number of Cartesian functions: 733
    Spherical Harmonics?: true
    Max angular momentum: 3

  Minimum eigenvalue in the overlap matrix is 3.2091334851E-04.
  Using Symmetric Orthogonalization.
  SCF Guess: Core (One-Electron) Hamiltonian.

  Guess energy:  -354.71912725778867

  ==> Iterations <==

                        Total Energy        Delta E     RMS |[F,P]|

   @RHF iter   1:  -437.48800903914162   -4.37488e+02   2.50088e-02 
   @RHF iter   2:  -460.97482824752331   -2.34868e+01   2.07960e-02 DIIS
   @RHF iter   3:  -475.88999821928735   -1.49152e+01   6.77876e-03 DIIS
   @RHF iter   4:  -476.70967751921285   -8.19679e-01   1.81406e-03 DIIS
   @RHF iter   5:  -476.75979982819570   -5.01223e-02   3.85497e-04 DIIS
   @RHF iter   6:  -476.76409712442739   -4.29730e-03   1.63768e-04 DIIS
   @RHF iter   7:  -476.76474130753400   -6.44183e-04   4.63457e-05 DIIS
   @RHF iter   8:  -476.76480440934574   -6.31018e-05   6.45364e-06 DIIS
   @RHF iter   9:  -476.76480639975750   -1.99041e-06   1.84862e-06 DIIS
   @RHF iter  10:  -476.76480655537705   -1.55620e-07   3.53373e-07 DIIS
   @RHF iter  11:  -476.76480656177455   -6.39750e-09   8.22424e-08 DIIS
   @RHF iter  12:  -476.76480656200181   -2.27260e-10   1.55396e-08 DIIS
   @RHF iter  13:  -476.76480656201272   -1.09139e-11   4.05611e-09 DIIS

  ==> Post-Iterations <==

	Orbital Energies (a.u.)
	-----------------------

	Doubly Occupied:                                                      

	   1A    -91.945216     2A    -11.256373     3A    -11.256359  
	   4A     -8.946864     5A     -6.628955     6A     -6.627542  
	   7A     -6.625420     8A     -1.064753     9A     -0.952671  
	  10A     -0.807966    11A     -0.606350    12A     -0.603954  
	  13A     -0.576547    14A     -0.565227    15A     -0.491815  
	  16A     -0.434415    17A     -0.334843  

	Virtual:                                                              

	  18A      0.032890    19A      0.045310    20A      0.046408  
	  21A      0.054850    22A      0.067609    23A      0.073867  
	  24A      0.078329    25A      0.090856    26A      0.109572  
	  27A      0.131571    28A      0.141647    29A      0.152137  
	  30A      0.160051    31A      0.165298    32A      0.169269  
	  33A      0.169620    34A      0.173015    35A      0.182938  
	  36A      0.191427    37A      0.199888    38A      0.212444  
	  39A      0.226593    40A      0.239045    41A      0.260272  
	  42A      0.268320    43A      0.281396    44A      0.293411  
	  45A      0.312762    46A      0.325833    47A      0.340363  
	  48A      0.361318    49A      0.376586    50A      0.407959  
	  51A      0.420669    52A      0.426517    53A      0.435242  
	  54A      0.442626    55A      0.448508    56A      0.449827  
	  57A      0.453128    58A      0.465859    59A      0.469361  
	  60A      0.477694    61A      0.493632    62A      0.499190  
	  63A      0.518693    64A      0.538897    65A      0.549028  
	  66A      0.573948    67A      0.574912    68A      0.580353  
	  69A      0.587461    70A      0.605355    71A      0.609623  
	  72A      0.615791    73A      0.620772    74A      0.650860  
	  75A      0.651787    76A      0.658155    77A      0.667001  
	  78A      0.714584    79A      0.717568    80A      0.730392  
	  81A      0.733888    82A      0.751259    83A      0.751360  
	  84A      0.772382    85A      0.789106    86A      0.804725  
	  87A      0.839939    88A      0.868821    89A      0.878498  
	  90A      0.879258    91A      0.938078    92A      0.958828  
	  93A      1.000435    94A      1.020664    95A      1.111141  
	  96A      1.116885    97A      1.127077    98A      1.163953  
	  99A      1.171485   100A      1.192528   101A      1.194262  
	 102A      1.224527   103A      1.229530   104A      1.232350  
	 105A      1.253743   106A      1.289643   107A      1.317574  
	 108A      1.317590   109A      1.352000   110A      1.385546  
	 111A      1.399964   112A      1.430923   113A      1.451492  
	 114A      1.486132   115A      1.497570   116A      1.518691  
	 117A      1.543669   118A      1.556264   119A      1.623305  
	 120A      1.702365   121A      1.826638   122A      1.834833  
	 123A      1.841598   124A      1.851025   125A      1.930279  
	 126A      1.940937   127A      2.066360   128A      2.076908  
	 129A      2.091897   130A      2.128802   131A      2.131482  
	 132A      2.176155   133A      2.211512   134A      2.218068  
	 135A      2.228589   136A      2.269323   137A      2.285531  
	 138A      2.288815   139A      2.309287   140A      2.334978  
	 141A      2.452826   142A      2.469471   143A      2.501508  
	 144A      2.530506   145A      2.573059   146A      2.597312  
	 147A      2.623152   148A      2.627315   149A      2.685000  
	 150A      2.768582   151A      2.856860   152A      2.867062  
	 153A      2.957655   154A      2.998437   155A      3.016863  
	 156A      3.038167   157A      3.472171   158A      3.976200  
	 159A      4.086082   160A      4.933205   161A      4.954733  
	 162A      5.019681   163A      5.198486   164A      5.483147  
	 165A      5.667074   166A      6.649668   167A      7.061161  
	 168A     33.563608  

	Final Occupation by Irrep:
	          A 
	DOCC [    17 ]

  Energy converged.

  @RHF Final Energy:  -476.76480656201272

   => Energetics <=

    Nuclear Repulsion Energy =            111.2046142122705845
    One-Electron Energy =                -876.4883005094080772
    Two-Electron Energy =                 288.5188797351246421
    DFT Exchange-Correlation Energy =       0.0000000000000000
    Empirical Dispersion Energy =           0.0000000000000000
    Total Energy =                       -476.7648065620128364



Properties will be evaluated at   0.000000,   0.000000,   0.000000 Bohr
  ==> Properties <==


Properties computed using the SCF density density matrix
  Nuclear Dipole Moment: (a.u.)
     X:    22.4993      Y:    40.4903      Z:   -17.6510

  Electronic Dipole Moment: (a.u.)
     X:   -22.3173      Y:   -40.2922      Z:    18.3053

  Dipole Moment: (a.u.)
     X:     0.1820      Y:     0.1981      Z:     0.6543     Total:     0.7075

  Dipole Moment: (Debye)
     X:     0.4626      Y:     0.5036      Z:     1.6631     Total:     1.7982


  Saving occupied orbitals to File 180.

  Saving SAPT 2-MONOMER_A file.

*** tstop() called on node139.bme.utexas.edu at Fri Aug 29 12:04:42 2014
Module time:
	user time   =      16.21 seconds =       0.27 minutes
	system time =       0.22 seconds =       0.00 minutes
	total time  =          4 seconds =       0.07 minutes
Total time:
	user time   =      42.60 seconds =       0.71 minutes
	system time =       0.64 seconds =       0.01 minutes
	total time  =         12 seconds =       0.20 minutes

  //>>>>>>>>>>>>>>>>>>>>>>>>>>>>>>>>>>>//
  //            Monomer B HF           //
  //<<<<<<<<<<<<<<<<<<<<<<<<<<<<<<<<<<<//


  No DF_BASIS_SCF auxiliary basis selected, defaulting to aug-cc-pvdz-jkfit


*** tstart() called on node139.bme.utexas.edu
*** at Fri Aug 29 12:04:42 2014


         ---------------------------------------------------------
                                   SCF
            by Justin Turney, Rob Parrish, and Andy Simmonett
                              RHF Reference
                        4 Threads,   7000 MiB Core
         ---------------------------------------------------------

  ==> Geometry <==

    Molecular point group: c1
    Full point group: C1

    Geometry (in Angstrom), charge = 0, multiplicity = 1:

       Center              X                  Y                   Z       
    ------------   -----------------  -----------------  -----------------
           C(Gh)      1.649153131684     0.077670326484     0.091627190235
           C(Gh)     -0.682532868316     1.472296326484     0.317889190235
           S(Gh)      0.178642131684     0.443513326484    -0.891802809765
           H(Gh)      1.375109131684    -0.451238673516     1.001669190235
           H(Gh)      2.294847131684    -0.556684673516    -0.510146809765
           H(Gh)      2.180249131684     0.995434326484     0.334002190235
           H(Gh)     -0.889178868316     0.903190326484     1.221459190235
           H(Gh)     -0.090985868316     2.353931326484     0.554303190235
           H(Gh)     -1.621937868316     1.785896326484    -0.130029809765
           O         -1.125053499316    -2.081529023516     1.232741551235
           H         -0.950547499316    -1.652025023516     0.384711551235
           H         -1.618734499316    -2.868257023516     0.994888551235

  Running in c1 symmetry.

  Nuclear repulsion =    9.144806834248033

  Charge       = 0
  Multiplicity = 1
  Electrons    = 10
  Nalpha       = 5
  Nbeta        = 5

  ==> Algorithm <==

  SCF Algorithm Type is DF.
  DIIS enabled.
  MOM disabled.
  Fractional occupation disabled.
  Guess Type is CORE.
  Energy threshold   = 1.00e-08
  Density threshold  = 1.00e-08
  Integral threshold = 0.00e+00

  ==> Primary Basis <==

  Basis Set: AUG-CC-PVDZ
    Number of shells: 78
    Number of basis function: 168
    Number of Cartesian functions: 176
    Spherical Harmonics?: true
    Max angular momentum: 2

  ==> Pre-Iterations <==

   -------------------------------------------------------
    Irrep   Nso     Nmo     Nalpha   Nbeta   Ndocc  Nsocc
   -------------------------------------------------------
     A        168     168       0       0       0       0
   -------------------------------------------------------
    Total     168     168       5       5       5       0
   -------------------------------------------------------

 OEINTS: Wrapper to libmints.
   by Justin Turney

   Calculation information:
      Number of atoms:                  12
      Number of AO shells:              78
      Number of SO shells:              78
      Number of primitives:            184
      Number of atomic orbitals:       176
      Number of basis functions:       168

      Number of irreps:                  1
      Number of functions per irrep: [ 168 ]

      Overlap, kinetic, potential, dipole, and quadrupole integrals
        stored in file 35.

  ==> Integral Setup <==

  ==> DFJK: Density-Fitted J/K Matrices <==

    J tasked:                  Yes
    K tasked:                  Yes
    wK tasked:                  No
    OpenMP threads:              4
    Integrals threads:           4
    Memory (MB):              5006
    Algorithm:                Core
    Integral Cache:           LOAD
    Schwarz Cutoff:          0E+00
    Fitting Condition:       1E-12

   => Auxiliary Basis Set <=

  Basis Set: aug-cc-pvdz-jkfit
    Number of shells: 220
    Number of basis function: 642
    Number of Cartesian functions: 733
    Spherical Harmonics?: true
    Max angular momentum: 3

  Minimum eigenvalue in the overlap matrix is 3.2091334851E-04.
  Using Symmetric Orthogonalization.
  SCF Guess: Core (One-Electron) Hamiltonian.

  Guess energy:   -58.65848308750458

  ==> Iterations <==

                        Total Energy        Delta E     RMS |[F,P]|

   @RHF iter   1:   -68.49443352234879   -6.84944e+01   2.00391e-02 
   @RHF iter   2:   -64.63098279978799    3.86345e+00   1.55453e-02 DIIS
   @RHF iter   3:   -75.04139282663807   -1.04104e+01   9.44132e-03 DIIS
   @RHF iter   4:   -75.83533798461299   -7.93945e-01   4.13068e-03 DIIS
   @RHF iter   5:   -76.03996698456976   -2.04629e-01   3.21446e-04 DIIS
   @RHF iter   6:   -76.04099513478054   -1.02815e-03   1.65223e-04 DIIS
   @RHF iter   7:   -76.04125966367224   -2.64529e-04   2.00483e-05 DIIS
   @RHF iter   8:   -76.04126522820511   -5.56453e-06   3.16847e-06 DIIS
   @RHF iter   9:   -76.04126547644907   -2.48244e-07   7.02817e-07 DIIS
   @RHF iter  10:   -76.04126548516599   -8.71692e-09   1.38120e-07 DIIS
   @RHF iter  11:   -76.04126548550707   -3.41075e-10   1.16313e-08 DIIS
   @RHF iter  12:   -76.04126548551095   -3.87956e-12   4.42597e-09 DIIS

  ==> Post-Iterations <==

	Orbital Energies (a.u.)
	-----------------------

	Doubly Occupied:                                                      

	   1A    -20.578350     2A     -1.354393     3A     -0.715098  
	   4A     -0.585744     5A     -0.509092  

	Virtual:                                                              

	   6A      0.022250     7A      0.041685     8A      0.042750  
	   9A      0.052082    10A      0.070181    11A      0.075920  
	  12A      0.076289    13A      0.087274    14A      0.096953  
	  15A      0.109431    16A      0.131426    17A      0.138891  
	  18A      0.146207    19A      0.149787    20A      0.160539  
	  21A      0.165290    22A      0.167492    23A      0.173521  
	  24A      0.198160    25A      0.210548    26A      0.211694  
	  27A      0.232716    28A      0.251402    29A      0.262108  
	  30A      0.291232    31A      0.309702    32A      0.338215  
	  33A      0.340889    34A      0.345492    35A      0.365154  
	  36A      0.375894    37A      0.390889    38A      0.399976  
	  39A      0.406350    40A      0.409106    41A      0.426967  
	  42A      0.433215    43A      0.450012    44A      0.450688  
	  45A      0.459612    46A      0.466939    47A      0.480001  
	  48A      0.482568    49A      0.515348    50A      0.525960  
	  51A      0.531748    52A      0.543808    53A      0.579471  
	  54A      0.583035    55A      0.606794    56A      0.617343  
	  57A      0.626601    58A      0.635066    59A      0.660057  
	  60A      0.661858    61A      0.687946    62A      0.697883  
	  63A      0.711634    64A      0.736440    65A      0.749459  
	  66A      0.768276    67A      0.775015    68A      0.783768  
	  69A      0.784953    70A      0.799182    71A      0.817346  
	  72A      0.820639    73A      0.823922    74A      0.848747  
	  75A      0.860845    76A      0.877860    77A      0.883972  
	  78A      0.896491    79A      0.902039    80A      0.910746  
	  81A      0.953954    82A      0.964161    83A      0.970053  
	  84A      0.970816    85A      1.005120    86A      1.041378  
	  87A      1.043555    88A      1.073059    89A      1.091635  
	  90A      1.159325    91A      1.181973    92A      1.239851  
	  93A      1.241205    94A      1.367099    95A      1.537111  
	  96A      1.548008    97A      1.743282    98A      1.832049  
	  99A      1.867335   100A      1.885351   101A      1.892696  
	 102A      1.928633   103A      1.947279   104A      1.972173  
	 105A      2.004845   106A      2.075627   107A      2.081110  
	 108A      2.085188   109A      2.090997   110A      2.100087  
	 111A      2.122413   112A      2.157290   113A      2.165217  
	 114A      2.193361   115A      2.212355   116A      2.271607  
	 117A      2.274527   118A      2.343616   119A      2.344348  
	 120A      2.346865   121A      2.363036   122A      2.369323  
	 123A      2.369901   124A      2.388513   125A      2.409709  
	 126A      2.456961   127A      2.527733   128A      2.578956  
	 129A      2.596711   130A      2.598573   131A      2.620017  
	 132A      2.749475   133A      2.776453   134A      2.787887  
	 135A      2.795045   136A      2.846042   137A      2.944016  
	 138A      2.953611   139A      2.956936   140A      3.019338  
	 141A      3.025878   142A      3.050769   143A      3.066981  
	 144A      3.082057   145A      3.173512   146A      3.242989  
	 147A      3.258206   148A      3.322501   149A      3.326044  
	 150A      3.387448   151A      3.716568   152A      3.744584  
	 153A      3.764996   154A      4.077683   155A      4.135620  
	 156A      4.325696   157A      4.369436   158A      5.111220  
	 159A      5.111636   160A      5.130790   161A      5.156971  
	 162A      6.745456   163A     18.410289   164A     18.418048  
	 165A     20.757125   166A     20.792207   167A     20.909291  
	 168A    137.941892  

	Final Occupation by Irrep:
	          A 
	DOCC [     5 ]

  Energy converged.

  @RHF Final Energy:   -76.04126548551095

   => Energetics <=

    Nuclear Repulsion Energy =              9.1448068342480333
    One-Electron Energy =                -122.8867880202253673
    Two-Electron Energy =                  37.7007157004663114
    DFT Exchange-Correlation Energy =       0.0000000000000000
    Empirical Dispersion Energy =           0.0000000000000000
    Total Energy =                        -76.0412654855110191



Properties will be evaluated at   0.000000,   0.000000,   0.000000 Bohr
  ==> Properties <==


Properties computed using the SCF density density matrix
  Nuclear Dipole Moment: (a.u.)
     X:   -21.8636      Y:   -40.0103      Z:    21.2434

  Electronic Dipole Moment: (a.u.)
     X:    21.6496      Y:    39.7704      Z:   -21.9689

  Dipole Moment: (a.u.)
     X:    -0.2140      Y:    -0.2399      Z:    -0.7255     Total:     0.7935

  Dipole Moment: (Debye)
     X:    -0.5438      Y:    -0.6096      Z:    -1.8439     Total:     2.0168


  Saving occupied orbitals to File 180.

  Saving SAPT 2-MONOMER_B file.

*** tstop() called on node134.bme.utexas.edu at Fri Aug 29 12:02:57 2014
Module time:
	user time   =      13.37 seconds =       0.22 minutes
	system time =       0.16 seconds =       0.00 minutes
	total time  =          4 seconds =       0.07 minutes
Total time:
	user time   =      55.51 seconds =       0.93 minutes
	system time =       0.65 seconds =       0.01 minutes
	total time  =         16 seconds =       0.27 minutes
  No DF_BASIS_SAPT auxiliary basis selected, defaulting to aug-cc-pvdz-ri

  //>>>>>>>>>>>>>>>>>>>>>>>>>>>>>>>>>>>//
  //               SAPT2+              //
  //<<<<<<<<<<<<<<<<<<<<<<<<<<<<<<<<<<<//


*** tstart() called on node134.bme.utexas.edu
*** at Fri Aug 29 12:02:57 2014

        SAPT2+  
    Ed Hohenstein
     6 June 2009

      Orbital Information
  --------------------------
    NSO        =       168
    NMO        =       168
    NRI        =       492
    NOCC A     =        17
    NOCC B     =         5
    FOCC A     =         7
    FOCC B     =         1
    NVIR A     =       151
    NVIR B     =       163

    Estimated memory usage: 288.9 MB

    Elst10,r            =    -0.007382954216 H
    Exch10 (S^2)        =     0.004890354451 H
    Exch10              =     0.004903824973 H
    Ind20,r (A<-B)      =    -0.002415118395 H
    Ind20,r (B<-A)      =    -0.000368018217 H
    Ind20,r             =    -0.002783136612 H
    Exch-Ind20,r (A<-B) =     0.001357518974 H
    Exch-Ind20,r (B<-A) =     0.000192537518 H
    Exch-Ind20,r        =     0.001550056492 H
    Disp20              =    -0.003719976996 H
    Exch-Disp20         =     0.000390154777 H
    Elst12,r            =     0.000173627281 H
    Exch11              =     0.000129222251 H
    Exch12              =     0.000687040198 H
    Ind22               =    -0.000274672402 H
    Disp21              =     0.000303902126 H
    Disp22 (SDQ)        =    -0.000047748559 H

    (i =   1 of   4)         31 seconds
    (i =   2 of   4)         62 seconds
    (i =   3 of   4)         94 seconds
    (i =   4 of   4)        125 seconds

    Disp220 (T)         =    -0.000245447379 H

    (i =   1 of  10)         11 seconds
    (i =   2 of  10)         21 seconds
    (i =   3 of  10)         32 seconds
    (i =   4 of  10)         43 seconds
    (i =   5 of  10)         53 seconds
    (i =   6 of  10)         64 seconds
    (i =   7 of  10)         75 seconds
    (i =   8 of  10)         85 seconds
    (i =   9 of  10)         96 seconds
    (i =  10 of  10)        107 seconds

    Disp202 (T)         =    -0.000332788086 H

    Disp22 (T)          =    -0.000578235466 H

    SAPT Results  
  -----------------------------------------------------------------------
    Electrostatics          -7.20932693 mH      -4.52392114 kcal mol^-1
      Elst10,r              -7.38295422 mH      -4.63287391 kcal mol^-1
      Elst12,r               0.17362728 mH       0.10895277 kcal mol^-1

    Exchange                 5.72008742 mH       3.58940920 kcal mol^-1
      Exch10                 4.90382497 mH       3.07719676 kcal mol^-1
      Exch10(S^2)            4.89035445 mH       3.06874388 kcal mol^-1
      Exch11(S^2)            0.12922225 mH       0.08108819 kcal mol^-1
      Exch12(S^2)            0.68704020 mH       0.43112425 kcal mol^-1

    Induction               -1.99363723 mH      -1.25102630 kcal mol^-1
      Ind20,r               -2.78313661 mH      -1.74644466 kcal mol^-1
      Ind22                 -0.27467240 mH      -0.17235954 kcal mol^-1
      Exch-Ind20,r           1.55005649 mH       0.97267517 kcal mol^-1
      Exch-Ind22             0.15297766 mH       0.09599494 kcal mol^-1
      delta HF,r (2)        -0.63886237 mH      -0.40089221 kcal mol^-1

    Dispersion              -3.65190412 mH      -2.29160453 kcal mol^-1
      Disp20                -3.71997700 mH      -2.33432090 kcal mol^-1
      Disp21                 0.30390213 mH       0.19070147 kcal mol^-1
      Disp22 (SDQ)          -0.04774856 mH      -0.02996267 kcal mol^-1
      Disp22 (T)            -0.57823547 mH      -0.36284825 kcal mol^-1
      Exch-Disp20            0.39015478 mH       0.24482583 kcal mol^-1

    Total HF                -4.35107173 mH      -2.73033885 kcal mol^-1
    Total SAPT0             -7.68089395 mH      -4.81983392 kcal mol^-1
    Total SAPT2             -6.81269896 mH      -4.27503332 kcal mol^-1
    Total SAPT2+            -7.13478086 mH      -4.47714277 kcal mol^-1

*** tstop() called on node139.bme.utexas.edu at Fri Aug 29 12:09:59 2014
Module time:
	user time   =    1212.51 seconds =      20.21 minutes
	system time =      14.18 seconds =       0.24 minutes
	total time  =        313 seconds =       5.22 minutes
Total time:
	user time   =    1268.52 seconds =      21.14 minutes
	system time =      15.04 seconds =       0.25 minutes
	total time  =        329 seconds =       5.48 minutes

*** PSI4 exiting successfully. Buy a developer a beer!
