    -----------------------------------------------------------------------
          PSI4: An Open-Source Ab Initio Electronic Structure Package
                              PSI 4.0.0-beta4 Driver

    J. M. Turney, A. C. Simmonett, R. M. Parrish, E. G. Hohenstein,
    F. A. Evangelista, J. T. Fermann, B. J. Mintz, L. A. Burns, J. J. Wilke,
    M. L. Abrams, N. J. Russ, M. L. Leininger, C. L. Janssen, E. T. Seidl,
    W. D. Allen, H. F. Schaefer, R. A. King, E. F. Valeev, C. D. Sherrill,
    and T. D. Crawford, WIREs Comput. Mol. Sci., (2011) (doi: 10.1002/wcms.93)

                         Additional Contributions by
    A. E. DePrince, M. Saitow, U. Bozkaya, A. Yu. Sokolov
    -----------------------------------------------------------------------

    Process ID:   9392
    PSI4DATADIR: /home/xzhu216/psi4/psi4-install/share/psi

    Using LocalCommunicator (Number of processes = 1)

    Memory level set to 256.000 MB

  ==> Input File <==

--------------------------------------------------------------------------
#psi4
#
memory 7 gb

molecule DimethylSulfide_Water {
0 1
    C    -0.862225000    -0.933550000    -0.246023000
    C    -3.193911000     0.461076000    -0.019761000
    S    -2.332736000    -0.567707000    -1.229453000
    H    -1.136269000    -1.462459000     0.664019000
    H    -0.216531000    -1.567905000    -0.847797000
    H    -0.331129000    -0.015786000    -0.003648000
    H    -3.400557000    -0.108030000     0.883809000
    H    -2.602364000     1.342711000     0.216653000
    H    -4.133316000     0.774676000    -0.467680000
--
0 1
    O    -3.270030513    -2.446365427     0.687731992
    H    -3.095524513    -2.016861427    -0.160298008
    H    -3.763711513    -3.233093427     0.449878992
units angstrom
no_reorient  #important for SAPT in psi4, default
symmetry c1  #important for SAPT in psi4, default
}

set {
basis aug-cc-pVDZ
scf_type DF
freeze_core True
}
energy('sapt2+')
--------------------------------------------------------------------------

  Memory set to   7.000 GiB by Python script.

  //>>>>>>>>>>>>>>>>>>>>>>>>>>>>>>>>>>>//
  //              Dimer HF             //
  //<<<<<<<<<<<<<<<<<<<<<<<<<<<<<<<<<<<//


  No DF_BASIS_SCF auxiliary basis selected, defaulting to aug-cc-pvdz-jkfit


*** tstart() called on node64.bme.utexas.edu
*** at Fri Aug 29 11:57:47 2014


         ---------------------------------------------------------
                                   SCF
            by Justin Turney, Rob Parrish, and Andy Simmonett
                              RHF Reference
                        4 Threads,   7000 MiB Core
         ---------------------------------------------------------

  ==> Geometry <==

    Molecular point group: c1
    Full point group: C1

    Geometry (in Angstrom), charge = 0, multiplicity = 1:

       Center              X                  Y                   Z       
    ------------   -----------------  -----------------  -----------------
           C          1.566694988689    -0.067797619256     0.138293173662
           C         -0.764991011311     1.326828380744     0.364555173662
           S          0.096183988689     0.298045380744    -0.845136826338
           H          1.292650988689    -0.596706619256     1.048335173662
           H          2.212388988689    -0.702152619256    -0.463480826338
           H          2.097790988689     0.849966380744     0.380668173662
           H         -0.971637011311     0.757722380744     1.268125173662
           H         -0.173444011311     2.208463380744     0.600969173662
           H         -1.704396011311     1.640428380744    -0.083363826338
           O         -0.841110524311    -1.580613046256     1.072048165662
           H         -0.666604524311    -1.151109046256     0.224018165662
           H         -1.334791524311    -2.367341046256     0.834195165662

  Running in c1 symmetry.

  Nuclear repulsion =  182.309453425006467

  Charge       = 0
  Multiplicity = 1
  Electrons    = 44
  Nalpha       = 22
  Nbeta        = 22

  ==> Algorithm <==

  SCF Algorithm Type is DF.
  DIIS enabled.
  MOM disabled.
  Fractional occupation disabled.
  Guess Type is CORE.
  Energy threshold   = 1.00e-08
  Density threshold  = 1.00e-08
  Integral threshold = 0.00e+00

  ==> Primary Basis <==

  Basis Set: AUG-CC-PVDZ
    Number of shells: 78
    Number of basis function: 168
    Number of Cartesian functions: 176
    Spherical Harmonics?: true
    Max angular momentum: 2

  ==> Pre-Iterations <==

   -------------------------------------------------------
    Irrep   Nso     Nmo     Nalpha   Nbeta   Ndocc  Nsocc
   -------------------------------------------------------
     A        168     168       0       0       0       0
   -------------------------------------------------------
    Total     168     168      22      22      22       0
   -------------------------------------------------------

 OEINTS: Wrapper to libmints.
   by Justin Turney

   Calculation information:
      Number of atoms:                  12
      Number of AO shells:              78
      Number of SO shells:              78
      Number of primitives:            184
      Number of atomic orbitals:       176
      Number of basis functions:       168

      Number of irreps:                  1
      Number of functions per irrep: [ 168 ]

      Overlap, kinetic, potential, dipole, and quadrupole integrals
        stored in file 35.

  ==> Integral Setup <==

  ==> DFJK: Density-Fitted J/K Matrices <==

    J tasked:                  Yes
    K tasked:                  Yes
    wK tasked:                  No
    OpenMP threads:              4
    Integrals threads:           4
    Memory (MB):              5006
    Algorithm:                Core
    Integral Cache:           SAVE
    Schwarz Cutoff:          0E+00
    Fitting Condition:       1E-12

   => Auxiliary Basis Set <=

  Basis Set: aug-cc-pvdz-jkfit
    Number of shells: 220
    Number of basis function: 642
    Number of Cartesian functions: 733
    Spherical Harmonics?: true
    Max angular momentum: 3

  Minimum eigenvalue in the overlap matrix is 2.7843518998E-04.
  Using Symmetric Orthogonalization.
  SCF Guess: Core (One-Electron) Hamiltonian.

  Guess energy:  -414.67220102933368

  ==> Iterations <==

                        Total Energy        Delta E     RMS |[F,P]|

   @RHF iter   1:  -505.55735113016601   -5.05557e+02   3.44386e-02 
   @RHF iter   2:  -509.01109828743438   -3.45375e+00   2.69597e-02 DIIS
   @RHF iter   3:  -507.74979442081985    1.26130e+00   4.36499e-02 DIIS
   @RHF iter   4:  -549.98177743996371   -4.22320e+01   1.29688e-02 DIIS
   @RHF iter   5:  -551.86655763049305   -1.88478e+00   7.05775e-03 DIIS
   @RHF iter   6:  -552.61948193275657   -7.52924e-01   3.04581e-03 DIIS
   @RHF iter   7:  -552.78525672534670   -1.65775e-01   6.13203e-04 DIIS
   @RHF iter   8:  -552.79489852382437   -9.64180e-03   2.45357e-04 DIIS
   @RHF iter   9:  -552.79622191379428   -1.32339e-03   8.39025e-05 DIIS
   @RHF iter  10:  -552.79644285017253   -2.20936e-04   2.53223e-05 DIIS
   @RHF iter  11:  -552.79646869210819   -2.58419e-05   7.60841e-06 DIIS
   @RHF iter  12:  -552.79647072937962   -2.03727e-06   2.00017e-06 DIIS
   @RHF iter  13:  -552.79647084463136   -1.15252e-07   4.84480e-07 DIIS
   @RHF iter  14:  -552.79647085368879   -9.05743e-09   1.25115e-07 DIIS
   @RHF iter  15:  -552.79647085452746   -8.38668e-10   3.31208e-08 DIIS
   @RHF iter  16:  -552.79647085458123   -5.37739e-11   7.59109e-09 DIIS

  ==> Post-Iterations <==

	Orbital Energies (a.u.)
	-----------------------

	Doubly Occupied:                                                      

	   1A    -91.955341     2A    -20.546108     3A    -11.256715  
	   4A    -11.256701     5A     -8.958458     6A     -6.640343  
	   7A     -6.638988     8A     -6.637386     9A     -1.334848  
	  10A     -1.074925    11A     -0.955382    12A     -0.818413  
	  13A     -0.710770    14A     -0.608296    15A     -0.594469  
	  16A     -0.579332    17A     -0.570839    18A     -0.568844  
	  19A     -0.498865    20A     -0.480773    21A     -0.444416  
	  22A     -0.350640  

	Virtual:                                                              

	  23A      0.037115    24A      0.045654    25A      0.047884  
	  26A      0.058141    27A      0.069739    28A      0.074712  
	  29A      0.084485    30A      0.092305    31A      0.111922  
	  32A      0.136063    33A      0.141820    34A      0.154580  
	  35A      0.154934    36A      0.168719    37A      0.169971  
	  38A      0.177988    39A      0.180296    40A      0.184793  
	  41A      0.217259    42A      0.222460    43A      0.232559  
	  44A      0.262302    45A      0.265495    46A      0.271282  
	  47A      0.280997    48A      0.289065    49A      0.291497  
	  50A      0.304877    51A      0.346252    52A      0.348085  
	  53A      0.376260    54A      0.383317    55A      0.407682  
	  56A      0.412585    57A      0.417731    58A      0.427863  
	  59A      0.444247    60A      0.450869    61A      0.453595  
	  62A      0.468091    63A      0.469780    64A      0.483601  
	  65A      0.504357    66A      0.514379    67A      0.523522  
	  68A      0.553045    69A      0.567848    70A      0.568759  
	  71A      0.580892    72A      0.590074    73A      0.597187  
	  74A      0.603668    75A      0.604565    76A      0.636760  
	  77A      0.642254    78A      0.650788    79A      0.665850  
	  80A      0.685931    81A      0.686174    82A      0.724168  
	  83A      0.732677    84A      0.739893    85A      0.740506  
	  86A      0.755352    87A      0.761547    88A      0.777325  
	  89A      0.793051    90A      0.797143    91A      0.810099  
	  92A      0.870687    93A      0.871772    94A      0.873880  
	  95A      0.892192    96A      0.966510    97A      0.986983  
	  98A      1.061074    99A      1.086282   100A      1.123343  
	 101A      1.138081   102A      1.152155   103A      1.163427  
	 104A      1.191167   105A      1.194447   106A      1.212203  
	 107A      1.239043   108A      1.251477   109A      1.263953  
	 110A      1.275291   111A      1.313951   112A      1.321132  
	 113A      1.332039   114A      1.358318   115A      1.453453  
	 116A      1.488270   117A      1.497843   118A      1.525210  
	 119A      1.556389   120A      1.565318   121A      1.626035  
	 122A      1.650782   123A      1.670991   124A      1.769916  
	 125A      1.835000   126A      1.838525   127A      1.855298  
	 128A      1.894293   129A      1.938113   130A      1.997594  
	 131A      1.998700   132A      2.074245   133A      2.074705  
	 134A      2.102523   135A      2.125191   136A      2.128665  
	 137A      2.158779   138A      2.185180   139A      2.191397  
	 140A      2.241576   141A      2.243632   142A      2.254745  
	 143A      2.290364   144A      2.329287   145A      2.402601  
	 146A      2.419578   147A      2.434800   148A      2.521175  
	 149A      2.526270   150A      2.593863   151A      2.600861  
	 152A      2.638688   153A      2.640549   154A      2.652591  
	 155A      2.835052   156A      2.849293   157A      2.880322  
	 158A      2.949283   159A      2.989360   160A      3.007950  
	 161A      3.026224   162A      3.047157   163A      3.149996  
	 164A      3.776770   165A      3.799272   166A      3.840214  
	 167A      4.203596   168A      4.437126  

	Final Occupation by Irrep:
	          A 
	DOCC [    22 ]

  Energy converged.

  @RHF Final Energy:  -552.79647085458123

   => Energetics <=

    Nuclear Repulsion Energy =            182.3094534250064669
    One-Electron Energy =               -1123.2501458644476315
    Two-Electron Energy =                 388.1442215848603610
    DFT Exchange-Correlation Energy =       0.0000000000000000
    Empirical Dispersion Energy =           0.0000000000000000
    Total Energy =                       -552.7964708545807753



Properties will be evaluated at   0.000000,   0.000000,   0.000000 Bohr
  ==> Properties <==


Properties computed using the SCF density density matrix
  Nuclear Dipole Moment: (a.u.)
     X:     0.7034      Y:     0.5996      Z:     3.5541

  Electronic Dipole Moment: (a.u.)
     X:    -0.6302      Y:    -0.4664      Z:    -3.6191

  Dipole Moment: (a.u.)
     X:     0.0732      Y:     0.1331      Z:    -0.0649     Total:     0.1652

  Dipole Moment: (Debye)
     X:     0.1861      Y:     0.3384      Z:    -0.1651     Total:     0.4200


  Saving occupied orbitals to File 180.

  Saving SAPT 2-DIMER file.

*** tstop() called on node64.bme.utexas.edu at Fri Aug 29 11:57:54 2014
Module time:
	user time   =      26.09 seconds =       0.43 minutes
	system time =       0.31 seconds =       0.01 minutes
	total time  =          7 seconds =       0.12 minutes
Total time:
	user time   =      26.09 seconds =       0.43 minutes
	system time =       0.31 seconds =       0.01 minutes
	total time  =          7 seconds =       0.12 minutes

  //>>>>>>>>>>>>>>>>>>>>>>>>>>>>>>>>>>>//
  //            Monomer A HF           //
  //<<<<<<<<<<<<<<<<<<<<<<<<<<<<<<<<<<<//


  No DF_BASIS_SCF auxiliary basis selected, defaulting to aug-cc-pvdz-jkfit


*** tstart() called on node64.bme.utexas.edu
*** at Fri Aug 29 11:57:54 2014


         ---------------------------------------------------------
                                   SCF
            by Justin Turney, Rob Parrish, and Andy Simmonett
                              RHF Reference
                        4 Threads,   7000 MiB Core
         ---------------------------------------------------------

  ==> Geometry <==

    Molecular point group: c1
    Full point group: C1

    Geometry (in Angstrom), charge = 0, multiplicity = 1:

       Center              X                  Y                   Z       
    ------------   -----------------  -----------------  -----------------
           C          1.566694988689    -0.067797619256     0.138293173662
           C         -0.764991011311     1.326828380744     0.364555173662
           S          0.096183988689     0.298045380744    -0.845136826338
           H          1.292650988689    -0.596706619256     1.048335173662
           H          2.212388988689    -0.702152619256    -0.463480826338
           H          2.097790988689     0.849966380744     0.380668173662
           H         -0.971637011311     0.757722380744     1.268125173662
           H         -0.173444011311     2.208463380744     0.600969173662
           H         -1.704396011311     1.640428380744    -0.083363826338
           O(Gh)     -0.841110524311    -1.580613046256     1.072048165662
           H(Gh)     -0.666604524311    -1.151109046256     0.224018165662
           H(Gh)     -1.334791524311    -2.367341046256     0.834195165662

  Running in c1 symmetry.

  Nuclear repulsion =  111.204614212270599

  Charge       = 0
  Multiplicity = 1
  Electrons    = 34
  Nalpha       = 17
  Nbeta        = 17

  ==> Algorithm <==

  SCF Algorithm Type is DF.
  DIIS enabled.
  MOM disabled.
  Fractional occupation disabled.
  Guess Type is CORE.
  Energy threshold   = 1.00e-08
  Density threshold  = 1.00e-08
  Integral threshold = 0.00e+00

  ==> Primary Basis <==

  Basis Set: AUG-CC-PVDZ
    Number of shells: 78
    Number of basis function: 168
    Number of Cartesian functions: 176
    Spherical Harmonics?: true
    Max angular momentum: 2

  ==> Pre-Iterations <==

   -------------------------------------------------------
    Irrep   Nso     Nmo     Nalpha   Nbeta   Ndocc  Nsocc
   -------------------------------------------------------
     A        168     168       0       0       0       0
   -------------------------------------------------------
    Total     168     168      17      17      17       0
   -------------------------------------------------------

 OEINTS: Wrapper to libmints.
   by Justin Turney

   Calculation information:
      Number of atoms:                  12
      Number of AO shells:              78
      Number of SO shells:              78
      Number of primitives:            184
      Number of atomic orbitals:       176
      Number of basis functions:       168

      Number of irreps:                  1
      Number of functions per irrep: [ 168 ]

      Overlap, kinetic, potential, dipole, and quadrupole integrals
        stored in file 35.

  ==> Integral Setup <==

  ==> DFJK: Density-Fitted J/K Matrices <==

    J tasked:                  Yes
    K tasked:                  Yes
    wK tasked:                  No
    OpenMP threads:              4
    Integrals threads:           4
    Memory (MB):              5006
    Algorithm:                Core
    Integral Cache:           LOAD
    Schwarz Cutoff:          0E+00
    Fitting Condition:       1E-12

   => Auxiliary Basis Set <=

  Basis Set: aug-cc-pvdz-jkfit
    Number of shells: 220
    Number of basis function: 642
    Number of Cartesian functions: 733
    Spherical Harmonics?: true
    Max angular momentum: 3

  Minimum eigenvalue in the overlap matrix is 2.7843518998E-04.
  Using Symmetric Orthogonalization.
  SCF Guess: Core (One-Electron) Hamiltonian.

  Guess energy:  -354.94518951135882

  ==> Iterations <==

                        Total Energy        Delta E     RMS |[F,P]|

   @RHF iter   1:  -437.10120737301258   -4.37101e+02   2.54763e-02 
   @RHF iter   2:  -460.93075025270218   -2.38295e+01   2.09394e-02 DIIS
   @RHF iter   3:  -475.94485371107771   -1.50141e+01   6.63492e-03 DIIS
   @RHF iter   4:  -476.70829561964320   -7.63442e-01   1.86903e-03 DIIS
   @RHF iter   5:  -476.76077637229491   -5.24808e-02   3.66946e-04 DIIS
   @RHF iter   6:  -476.76459167210498   -3.81530e-03   1.65544e-04 DIIS
   @RHF iter   7:  -476.76523534975490   -6.43678e-04   4.26878e-05 DIIS
   @RHF iter   8:  -476.76528913178413   -5.37820e-05   6.07856e-06 DIIS
   @RHF iter   9:  -476.76529101234496   -1.88056e-06   1.91942e-06 DIIS
   @RHF iter  10:  -476.76529119359475   -1.81250e-07   3.34801e-07 DIIS
   @RHF iter  11:  -476.76529119894997   -5.35522e-09   7.84967e-08 DIIS
   @RHF iter  12:  -476.76529119917461   -2.24645e-10   1.27302e-08 DIIS
   @RHF iter  13:  -476.76529119918393   -9.32232e-12   2.19404e-09 DIIS

  ==> Post-Iterations <==

	Orbital Energies (a.u.)
	-----------------------

	Doubly Occupied:                                                      

	   1A    -91.945821     2A    -11.256396     3A    -11.256383  
	   4A     -8.947137     5A     -6.629262     6A     -6.627852  
	   7A     -6.625768     8A     -1.064722     9A     -0.952588  
	  10A     -0.807888    11A     -0.606321    12A     -0.603877  
	  13A     -0.576485    14A     -0.565178    15A     -0.491672  
	  16A     -0.434342    17A     -0.334867  

	Virtual:                                                              

	  18A      0.033215    19A      0.045184    20A      0.048337  
	  21A      0.054656    22A      0.069140    23A      0.073838  
	  24A      0.078251    25A      0.093112    26A      0.114490  
	  27A      0.132995    28A      0.141342    29A      0.152697  
	  30A      0.155929    31A      0.166421    32A      0.170535  
	  33A      0.170684    34A      0.173401    35A      0.183365  
	  36A      0.196470    37A      0.209439    38A      0.215728  
	  39A      0.245376    40A      0.247486    41A      0.264605  
	  42A      0.274893    43A      0.282338    44A      0.292704  
	  45A      0.316905    46A      0.341253    47A      0.349157  
	  48A      0.371408    49A      0.395887    50A      0.404455  
	  51A      0.427544    52A      0.431375    53A      0.440299  
	  54A      0.448087    55A      0.454740    56A      0.459988  
	  57A      0.468991    58A      0.469780    59A      0.482794  
	  60A      0.497473    61A      0.502230    62A      0.523803  
	  63A      0.526459    64A      0.563594    65A      0.566302  
	  66A      0.576577    67A      0.590188    68A      0.593982  
	  69A      0.602120    70A      0.606119    71A      0.626322  
	  72A      0.627515    73A      0.636764    74A      0.657438  
	  75A      0.683621    76A      0.705032    77A      0.712587  
	  78A      0.721749    79A      0.744382    80A      0.746241  
	  81A      0.755536    82A      0.766837    83A      0.775999  
	  84A      0.794114    85A      0.803954    86A      0.805963  
	  87A      0.853318    88A      0.874567    89A      0.879809  
	  90A      0.897492    91A      0.950814    92A      1.027240  
	  93A      1.040491    94A      1.074401    95A      1.124206  
	  96A      1.136706    97A      1.151542    98A      1.175472  
	  99A      1.201607   100A      1.212439   101A      1.224461  
	 102A      1.254860   103A      1.273627   104A      1.288725  
	 105A      1.304611   106A      1.324907   107A      1.326624  
	 108A      1.379586   109A      1.388829   110A      1.406132  
	 111A      1.423673   112A      1.453320   113A      1.472421  
	 114A      1.497503   115A      1.524974   116A      1.531693  
	 117A      1.625509   118A      1.644886   119A      1.668516  
	 120A      1.800814   121A      1.839811   122A      1.847142  
	 123A      1.895639   124A      1.917032   125A      1.953240  
	 126A      1.966477   127A      2.081553   128A      2.088470  
	 129A      2.113513   130A      2.154220   131A      2.156446  
	 132A      2.181911   133A      2.193370   134A      2.232528  
	 135A      2.243595   136A      2.282061   137A      2.294048  
	 138A      2.314982   139A      2.362945   140A      2.465270  
	 141A      2.480136   142A      2.495538   143A      2.570735  
	 144A      2.603333   145A      2.607751   146A      2.609203  
	 147A      2.631633   148A      2.682340   149A      2.856415  
	 150A      2.858385   151A      2.879158   152A      2.931283  
	 153A      2.995865   154A      3.009095   155A      3.035499  
	 156A      3.054588   157A      3.581088   158A      4.020355  
	 159A      4.161167   160A      4.981672   161A      4.981737  
	 162A      5.065212   163A      5.322717   164A      5.533434  
	 165A      5.865436   166A      6.722243   167A      7.096882  
	 168A     33.574733  

	Final Occupation by Irrep:
	          A 
	DOCC [    17 ]

  Energy converged.

  @RHF Final Energy:  -476.76529119918393

   => Energetics <=

    Nuclear Repulsion Energy =            111.2046142122705987
    One-Electron Energy =                -876.4866994028145655
    Two-Electron Energy =                 288.5167939913613964
    DFT Exchange-Correlation Energy =       0.0000000000000000
    Empirical Dispersion Energy =           0.0000000000000000
    Total Energy =                       -476.7652911991825704



Properties will be evaluated at   0.000000,   0.000000,   0.000000 Bohr
  ==> Properties <==


Properties computed using the SCF density density matrix
  Nuclear Dipole Moment: (a.u.)
     X:    17.2013      Y:    31.1439      Z:   -14.6526

  Electronic Dipole Moment: (a.u.)
     X:   -17.0194      Y:   -30.9460      Z:    15.3067

  Dipole Moment: (a.u.)
     X:     0.1819      Y:     0.1979      Z:     0.6541     Total:     0.7072

  Dipole Moment: (Debye)
     X:     0.4622      Y:     0.5031      Z:     1.6626     Total:     1.7975


  Saving occupied orbitals to File 180.

  Saving SAPT 2-MONOMER_A file.

*** tstop() called on node64.bme.utexas.edu at Fri Aug 29 11:57:59 2014
Module time:
	user time   =      15.99 seconds =       0.27 minutes
	system time =       0.17 seconds =       0.00 minutes
	total time  =          5 seconds =       0.08 minutes
Total time:
	user time   =      42.17 seconds =       0.70 minutes
	system time =       0.48 seconds =       0.01 minutes
	total time  =         12 seconds =       0.20 minutes

  //>>>>>>>>>>>>>>>>>>>>>>>>>>>>>>>>>>>//
  //            Monomer B HF           //
  //<<<<<<<<<<<<<<<<<<<<<<<<<<<<<<<<<<<//


  No DF_BASIS_SCF auxiliary basis selected, defaulting to aug-cc-pvdz-jkfit


*** tstart() called on node64.bme.utexas.edu
*** at Fri Aug 29 11:57:59 2014


         ---------------------------------------------------------
                                   SCF
            by Justin Turney, Rob Parrish, and Andy Simmonett
                              RHF Reference
                        4 Threads,   7000 MiB Core
         ---------------------------------------------------------

  ==> Geometry <==

    Molecular point group: c1
    Full point group: C1

    Geometry (in Angstrom), charge = 0, multiplicity = 1:

       Center              X                  Y                   Z       
    ------------   -----------------  -----------------  -----------------
           C(Gh)      1.566694988689    -0.067797619256     0.138293173662
           C(Gh)     -0.764991011311     1.326828380744     0.364555173662
           S(Gh)      0.096183988689     0.298045380744    -0.845136826338
           H(Gh)      1.292650988689    -0.596706619256     1.048335173662
           H(Gh)      2.212388988689    -0.702152619256    -0.463480826338
           H(Gh)      2.097790988689     0.849966380744     0.380668173662
           H(Gh)     -0.971637011311     0.757722380744     1.268125173662
           H(Gh)     -0.173444011311     2.208463380744     0.600969173662
           H(Gh)     -1.704396011311     1.640428380744    -0.083363826338
           O         -0.841110524311    -1.580613046256     1.072048165662
           H         -0.666604524311    -1.151109046256     0.224018165662
           H         -1.334791524311    -2.367341046256     0.834195165662

  Running in c1 symmetry.

  Nuclear repulsion =    9.144806834248035

  Charge       = 0
  Multiplicity = 1
  Electrons    = 10
  Nalpha       = 5
  Nbeta        = 5

  ==> Algorithm <==

  SCF Algorithm Type is DF.
  DIIS enabled.
  MOM disabled.
  Fractional occupation disabled.
  Guess Type is CORE.
  Energy threshold   = 1.00e-08
  Density threshold  = 1.00e-08
  Integral threshold = 0.00e+00

  ==> Primary Basis <==

  Basis Set: AUG-CC-PVDZ
    Number of shells: 78
    Number of basis function: 168
    Number of Cartesian functions: 176
    Spherical Harmonics?: true
    Max angular momentum: 2

  ==> Pre-Iterations <==

   -------------------------------------------------------
    Irrep   Nso     Nmo     Nalpha   Nbeta   Ndocc  Nsocc
   -------------------------------------------------------
     A        168     168       0       0       0       0
   -------------------------------------------------------
    Total     168     168       5       5       5       0
   -------------------------------------------------------

 OEINTS: Wrapper to libmints.
   by Justin Turney

   Calculation information:
      Number of atoms:                  12
      Number of AO shells:              78
      Number of SO shells:              78
      Number of primitives:            184
      Number of atomic orbitals:       176
      Number of basis functions:       168

      Number of irreps:                  1
      Number of functions per irrep: [ 168 ]

      Overlap, kinetic, potential, dipole, and quadrupole integrals
        stored in file 35.

  ==> Integral Setup <==

  ==> DFJK: Density-Fitted J/K Matrices <==

    J tasked:                  Yes
    K tasked:                  Yes
    wK tasked:                  No
    OpenMP threads:              4
    Integrals threads:           4
    Memory (MB):              5006
    Algorithm:                Core
    Integral Cache:           LOAD
    Schwarz Cutoff:          0E+00
    Fitting Condition:       1E-12

   => Auxiliary Basis Set <=

  Basis Set: aug-cc-pvdz-jkfit
    Number of shells: 220
    Number of basis function: 642
    Number of Cartesian functions: 733
    Spherical Harmonics?: true
    Max angular momentum: 3

  Minimum eigenvalue in the overlap matrix is 2.7843518998E-04.
  Using Symmetric Orthogonalization.
  SCF Guess: Core (One-Electron) Hamiltonian.

  Guess energy:   -58.68218718977342

  ==> Iterations <==

                        Total Energy        Delta E     RMS |[F,P]|

   @RHF iter   1:   -68.38709079323489   -6.83871e+01   2.04838e-02 
   @RHF iter   2:   -64.64831090245667    3.73878e+00   1.55721e-02 DIIS
   @RHF iter   3:   -74.98783844246080   -1.03395e+01   9.70142e-03 DIIS
   @RHF iter   4:   -75.82380400037245   -8.35966e-01   4.24478e-03 DIIS
   @RHF iter   5:   -76.04021414430329   -2.16410e-01   3.29529e-04 DIIS
   @RHF iter   6:   -76.04129035176078   -1.07621e-03   1.68058e-04 DIIS
   @RHF iter   7:   -76.04156198672023   -2.71635e-04   2.09864e-05 DIIS
   @RHF iter   8:   -76.04156796486656   -5.97815e-06   3.29447e-06 DIIS
   @RHF iter   9:   -76.04156822738518   -2.62519e-07   7.10492e-07 DIIS
   @RHF iter  10:   -76.04156823663756   -9.25237e-09   1.46751e-07 DIIS
   @RHF iter  11:   -76.04156823701950   -3.81945e-10   1.29181e-08 DIIS
   @RHF iter  12:   -76.04156823702536   -5.85487e-12   4.87383e-09 DIIS

  ==> Post-Iterations <==

	Orbital Energies (a.u.)
	-----------------------

	Doubly Occupied:                                                      

	   1A    -20.578308     2A     -1.354277     3A     -0.715006  
	   4A     -0.585557     5A     -0.508936  

	Virtual:                                                              

	   6A      0.022456     7A      0.042938     8A      0.043213  
	   9A      0.052428    10A      0.070569    11A      0.076555  
	  12A      0.078942    13A      0.087119    14A      0.098503  
	  15A      0.110704    16A      0.131388    17A      0.144102  
	  18A      0.147142    19A      0.148585    20A      0.163198  
	  21A      0.165648    22A      0.167709    23A      0.174737  
	  24A      0.196539    25A      0.212200    26A      0.212509  
	  27A      0.243762    28A      0.269256    29A      0.272657  
	  30A      0.298345    31A      0.318625    32A      0.340179  
	  33A      0.344229    34A      0.344609    35A      0.387539  
	  36A      0.390820    37A      0.398968    38A      0.407140  
	  39A      0.408689    40A      0.420377    41A      0.433985  
	  42A      0.453247    43A      0.455878    44A      0.458650  
	  45A      0.476058    46A      0.481292    47A      0.500745  
	  48A      0.516867    49A      0.524820    50A      0.549386  
	  51A      0.558062    52A      0.576447    53A      0.592761  
	  54A      0.594309    55A      0.614387    56A      0.634818  
	  57A      0.639442    58A      0.653144    59A      0.690763  
	  60A      0.692017    61A      0.705729    62A      0.718080  
	  63A      0.720688    64A      0.756220    65A      0.765594  
	  66A      0.779769    67A      0.794742    68A      0.796849  
	  69A      0.809933    70A      0.812434    71A      0.837173  
	  72A      0.839492    73A      0.848642    74A      0.865522  
	  75A      0.891355    76A      0.892094    77A      0.899518  
	  78A      0.909793    79A      0.913727    80A      0.934069  
	  81A      0.957180    82A      0.979420    83A      0.991971  
	  84A      1.013848    85A      1.022768    86A      1.040806  
	  87A      1.049909    88A      1.095958    89A      1.156895  
	  90A      1.161001    91A      1.237559    92A      1.291779  
	  93A      1.366529    94A      1.454259    95A      1.617581  
	  96A      1.688886    97A      1.796940    98A      1.845642  
	  99A      1.881895   100A      1.919457   101A      1.956020  
	 102A      1.959468   103A      1.970132   104A      1.992106  
	 105A      2.036012   106A      2.076276   107A      2.097965  
	 108A      2.106869   109A      2.112524   110A      2.119058  
	 111A      2.139112   112A      2.195355   113A      2.224507  
	 114A      2.254847   115A      2.283684   116A      2.301522  
	 117A      2.312272   118A      2.353145   119A      2.354471  
	 120A      2.360978   121A      2.367848   122A      2.403731  
	 123A      2.424540   124A      2.437913   125A      2.475101  
	 126A      2.495755   127A      2.564960   128A      2.596071  
	 129A      2.612233   130A      2.616940   131A      2.645079  
	 132A      2.766205   133A      2.820056   134A      2.820753  
	 135A      2.843161   136A      2.910649   137A      2.958393  
	 138A      2.974741   139A      2.998510   140A      3.026249  
	 141A      3.082303   142A      3.094463   143A      3.095639  
	 144A      3.183800   145A      3.254969   146A      3.264871  
	 147A      3.266142   148A      3.360485   149A      3.389730  
	 150A      3.489878   151A      3.765400   152A      3.788037  
	 153A      3.854799   154A      4.136025   155A      4.241258  
	 156A      4.327460   157A      4.428489   158A      5.113898  
	 159A      5.117181   160A      5.138857   161A      5.161862  
	 162A      6.771766   163A     18.430035   164A     18.433351  
	 165A     20.818255   166A     20.906935   167A     20.951219  
	 168A    138.023680  

	Final Occupation by Irrep:
	          A 
	DOCC [     5 ]

  Energy converged.

  @RHF Final Energy:   -76.04156823702536

   => Energetics <=

    Nuclear Repulsion Energy =              9.1448068342480351
    One-Electron Energy =                -122.8885813144924555
    Two-Electron Energy =                  37.7022062432191660
    DFT Exchange-Correlation Energy =       0.0000000000000000
    Empirical Dispersion Energy =           0.0000000000000000
    Total Energy =                        -76.0415682370252597



Properties will be evaluated at   0.000000,   0.000000,   0.000000 Bohr
  ==> Properties <==


Properties computed using the SCF density density matrix
  Nuclear Dipole Moment: (a.u.)
     X:   -16.4978      Y:   -30.5443      Z:    18.2068

  Electronic Dipole Moment: (a.u.)
     X:    16.2850      Y:    30.3062      Z:   -18.9310

  Dipole Moment: (a.u.)
     X:    -0.2128      Y:    -0.2381      Z:    -0.7242     Total:     0.7915

  Dipole Moment: (Debye)
     X:    -0.5409      Y:    -0.6053      Z:    -1.8408     Total:     2.0118


  Saving occupied orbitals to File 180.

  Saving SAPT 2-MONOMER_B file.

*** tstop() called on node64.bme.utexas.edu at Fri Aug 29 11:58:05 2014
Module time:
	user time   =      14.06 seconds =       0.23 minutes
	system time =       0.16 seconds =       0.00 minutes
	total time  =          6 seconds =       0.10 minutes
Total time:
	user time   =      56.31 seconds =       0.94 minutes
	system time =       0.64 seconds =       0.01 minutes
	total time  =         18 seconds =       0.30 minutes
  No DF_BASIS_SAPT auxiliary basis selected, defaulting to aug-cc-pvdz-ri

  //>>>>>>>>>>>>>>>>>>>>>>>>>>>>>>>>>>>//
  //               SAPT2+              //
  //<<<<<<<<<<<<<<<<<<<<<<<<<<<<<<<<<<<//


*** tstart() called on node64.bme.utexas.edu
*** at Fri Aug 29 11:58:05 2014

        SAPT2+  
    Ed Hohenstein
     6 June 2009

      Orbital Information
  --------------------------
    NSO        =       168
    NMO        =       168
    NRI        =       492
    NOCC A     =        17
    NOCC B     =         5
    FOCC A     =         7
    FOCC B     =         1
    NVIR A     =       151
    NVIR B     =       163

    Estimated memory usage: 288.9 MB

    Elst10,r            =    -0.026742040734 H
    Exch10 (S^2)        =     0.049489013175 H
    Exch10              =     0.050488161276 H
    Ind20,r (A<-B)      =    -0.018828205866 H
    Ind20,r (B<-A)      =    -0.007422607932 H
    Ind20,r             =    -0.026250813798 H
    Exch-Ind20,r (A<-B) =     0.012001472629 H
    Exch-Ind20,r (B<-A) =     0.006191592805 H
    Exch-Ind20,r        =     0.018193065434 H
    Disp20              =    -0.015175570616 H
    Exch-Disp20         =     0.002895476212 H
    Elst12,r            =    -0.001280873043 H
    Exch11              =     0.000727617768 H
    Exch12              =     0.004766437669 H
    Ind22               =    -0.003149558504 H
    Disp21              =     0.001478014704 H
    Disp22 (SDQ)        =    -0.000157361210 H

    (i =   1 of   4)         31 seconds
    (i =   2 of   4)         62 seconds
    (i =   3 of   4)         94 seconds
    (i =   4 of   4)        125 seconds

    Disp220 (T)         =    -0.000895296496 H

    (i =   1 of  10)         11 seconds
    (i =   2 of  10)         22 seconds
    (i =   3 of  10)         32 seconds
    (i =   4 of  10)         43 seconds
    (i =   5 of  10)         54 seconds
    (i =   6 of  10)         65 seconds
    (i =   7 of  10)         76 seconds
    (i =   8 of  10)         87 seconds
    (i =   9 of  10)         97 seconds
    (i =  10 of  10)        108 seconds

    Disp202 (T)         =    -0.001229762749 H

    Disp22 (T)          =    -0.002125059245 H

    SAPT Results  
  -----------------------------------------------------------------------
    Electrostatics         -28.02291378 mH     -17.58464461 kcal mol^-1
      Elst10,r             -26.74204073 mH     -16.78088461 kcal mol^-1
      Elst12,r              -1.28087304 mH      -0.80376000 kcal mol^-1

    Exchange                55.98221671 mH      35.12937282 kcal mol^-1
      Exch10                50.48816128 mH      31.68180084 kcal mol^-1
      Exch10(S^2)           49.48901317 mH      31.05482591 kcal mol^-1
      Exch11(S^2)            0.72761777 mH       0.45658706 kcal mol^-1
      Exch12(S^2)            4.76643767 mH       2.99098492 kcal mol^-1

    Induction              -14.32430322 mH      -8.98863635 kcal mol^-1
      Ind20,r              -26.25081380 mH     -16.47263504 kcal mol^-1
      Ind22                 -3.14955850 mH      -1.97637788 kcal mol^-1
      Exch-Ind20,r          18.19306543 mH      11.41632139 kcal mol^-1
      Exch-Ind22             2.18279419 mH       1.36972409 kcal mol^-1
      delta HF,r (2)        -5.29979055 mH      -3.32566892 kcal mol^-1

    Dispersion             -13.08450016 mH      -8.21064815 kcal mol^-1
      Disp20               -15.17557062 mH      -9.52281473 kcal mol^-1
      Disp21                 1.47801470 mH       0.92746827 kcal mol^-1
      Disp22 (SDQ)          -0.15736121 mH      -0.09874565 kcal mol^-1
      Disp22 (T)            -2.12505925 mH      -1.33349486 kcal mol^-1
      Exch-Disp20            2.89547621 mH       1.81693883 kcal mol^-1

    Total HF                10.38858163 mH       6.51893366 kcal mol^-1
    Total SAPT0             -1.89151278 mH      -1.18694224 kcal mol^-1
    Total SAPT2              1.35490531 mH       0.85021595 kcal mol^-1
    Total SAPT2+             0.55049956 mH       0.34544370 kcal mol^-1

*** tstop() called on node64.bme.utexas.edu at Fri Aug 29 12:03:16 2014
Module time:
	user time   =    1215.20 seconds =      20.25 minutes
	system time =      10.30 seconds =       0.17 minutes
	total time  =        311 seconds =       5.18 minutes
Total time:
	user time   =    1271.53 seconds =      21.19 minutes
	system time =      10.94 seconds =       0.18 minutes
	total time  =        329 seconds =       5.48 minutes

*** PSI4 exiting successfully. Buy a developer a beer!
