    -----------------------------------------------------------------------
          PSI4: An Open-Source Ab Initio Electronic Structure Package
                              PSI 4.0.0-beta4 Driver

    J. M. Turney, A. C. Simmonett, R. M. Parrish, E. G. Hohenstein,
    F. A. Evangelista, J. T. Fermann, B. J. Mintz, L. A. Burns, J. J. Wilke,
    M. L. Abrams, N. J. Russ, M. L. Leininger, C. L. Janssen, E. T. Seidl,
    W. D. Allen, H. F. Schaefer, R. A. King, E. F. Valeev, C. D. Sherrill,
    and T. D. Crawford, WIREs Comput. Mol. Sci., (2011) (doi: 10.1002/wcms.93)

                         Additional Contributions by
    A. E. DePrince, M. Saitow, U. Bozkaya, A. Yu. Sokolov
    -----------------------------------------------------------------------

    Process ID:   2587
    PSI4DATADIR: /home/xzhu216/psi4/psi4-install/share/psi

    Using LocalCommunicator (Number of processes = 1)

    Memory level set to 256.000 MB

  ==> Input File <==

--------------------------------------------------------------------------
#psi4
#
memory 7 gb

molecule Imidazole_Water {
0 1
    C    -3.750532000     0.043169000     0.026787000
    C    -2.716760000    -0.864409000     0.104803000
    N    -1.573375000    -0.118082000     0.006370000
    C    -1.950267000     1.181318000    -0.124296000
    N    -3.267326000     1.318933000    -0.116175000
    H    -0.623650000    -0.467406000     0.026910000
    H    -4.806895000    -0.157626000     0.066144000
    H    -2.696200000    -1.932899000     0.217225000
    H    -1.235893000     1.980319000    -0.220912000
--
0 1
    O     0.672486100    -0.929463400     0.053429500
    H     1.256415100    -0.989546400     0.812333500
    H     1.230611100    -1.148758400    -0.695518500
units angstrom
no_reorient  #important for SAPT in psi4, default
symmetry c1  #important for SAPT in psi4, default
}

set {
basis aug-cc-pVDZ
scf_type DF
freeze_core True
}
energy('sapt2+')
--------------------------------------------------------------------------

  Memory set to   7.000 GiB by Python script.

  //>>>>>>>>>>>>>>>>>>>>>>>>>>>>>>>>>>>//
  //              Dimer HF             //
  //<<<<<<<<<<<<<<<<<<<<<<<<<<<<<<<<<<<//


  No DF_BASIS_SCF auxiliary basis selected, defaulting to aug-cc-pvdz-jkfit


*** tstart() called on node143.bme.utexas.edu
*** at Fri Aug 29 12:05:38 2014


         ---------------------------------------------------------
                                   SCF
            by Justin Turney, Rob Parrish, and Andy Simmonett
                              RHF Reference
                        4 Threads,   7000 MiB Core
         ---------------------------------------------------------

  ==> Geometry <==

    Molecular point group: c1
    Full point group: C1

    Geometry (in Angstrom), charge = 0, multiplicity = 1:

       Center              X                  Y                   Z       
    ------------   -----------------  -----------------  -----------------
           C         -1.833364445990     0.002114190658     0.031292436639
           C         -0.799592445990    -0.905463809342     0.109308436639
           N          0.343792554010    -0.159136809342     0.010875436639
           C         -0.033099445990     1.140263190658    -0.119790563361
           N         -1.350158445990     1.277878190658    -0.111669563361
           H          1.293517554010    -0.508460809342     0.031415436639
           H         -2.889727445990    -0.198680809342     0.070649436639
           H         -0.779032445990    -1.973953809342     0.221730436639
           H          0.681274554010     1.939264190658    -0.216406563361
           O          2.589653654010    -0.970518209342     0.057934936639
           H          3.173582654010    -1.030601209342     0.816838936639
           H          3.147778654010    -1.189813209342    -0.691013063361

  Running in c1 symmetry.

  Nuclear repulsion =  227.752405953875666

  Charge       = 0
  Multiplicity = 1
  Electrons    = 46
  Nalpha       = 23
  Nbeta        = 23

  ==> Algorithm <==

  SCF Algorithm Type is DF.
  DIIS enabled.
  MOM disabled.
  Fractional occupation disabled.
  Guess Type is CORE.
  Energy threshold   = 1.00e-08
  Density threshold  = 1.00e-08
  Integral threshold = 0.00e+00

  ==> Primary Basis <==

  Basis Set: AUG-CC-PVDZ
    Number of shells: 84
    Number of basis function: 192
    Number of Cartesian functions: 204
    Spherical Harmonics?: true
    Max angular momentum: 2

  ==> Pre-Iterations <==

   -------------------------------------------------------
    Irrep   Nso     Nmo     Nalpha   Nbeta   Ndocc  Nsocc
   -------------------------------------------------------
     A        192     192       0       0       0       0
   -------------------------------------------------------
    Total     192     192      23      23      23       0
   -------------------------------------------------------

 OEINTS: Wrapper to libmints.
   by Justin Turney

   Calculation information:
      Number of atoms:                  12
      Number of AO shells:              84
      Number of SO shells:              84
      Number of primitives:            192
      Number of atomic orbitals:       204
      Number of basis functions:       192

      Number of irreps:                  1
      Number of functions per irrep: [ 192 ]

      Overlap, kinetic, potential, dipole, and quadrupole integrals
        stored in file 35.

  ==> Integral Setup <==

  ==> DFJK: Density-Fitted J/K Matrices <==

    J tasked:                  Yes
    K tasked:                  Yes
    wK tasked:                  No
    OpenMP threads:              4
    Integrals threads:           4
    Memory (MB):              5006
    Algorithm:                Core
    Integral Cache:           SAVE
    Schwarz Cutoff:          0E+00
    Fitting Condition:       1E-12

   => Auxiliary Basis Set <=

  Basis Set: aug-cc-pvdz-jkfit
    Number of shells: 240
    Number of basis function: 708
    Number of Cartesian functions: 816
    Spherical Harmonics?: true
    Max angular momentum: 3

  Minimum eigenvalue in the overlap matrix is 1.8317580315E-05.
  Using Symmetric Orthogonalization.
  SCF Guess: Core (One-Electron) Hamiltonian.

  Guess energy:  -235.80025430266340

  ==> Iterations <==

                        Total Energy        Delta E     RMS |[F,P]|

   @RHF iter   1:  -239.52622104067524   -2.39526e+02   3.65649e-02 
   @RHF iter   2:  -132.34229077520212    1.07184e+02   5.72985e-02 DIIS
   @RHF iter   3:  -248.54867732780576   -1.16206e+02   3.35845e-02 DIIS
   @RHF iter   4:  -274.84362787766128   -2.62950e+01   2.87383e-02 DIIS
   @RHF iter   5:  -299.93362493079616   -2.50900e+01   7.21229e-03 DIIS
   @RHF iter   6:  -300.61126705465853   -6.77642e-01   3.93290e-03 DIIS
   @RHF iter   7:  -300.85975829888031   -2.48491e-01   6.50785e-04 DIIS
   @RHF iter   8:  -300.86943534036089   -9.67704e-03   3.18131e-04 DIIS
   @RHF iter   9:  -300.87151489461309   -2.07955e-03   6.44544e-05 DIIS
   @RHF iter  10:  -300.87169573598925   -1.80841e-04   2.47144e-05 DIIS
   @RHF iter  11:  -300.87172959314347   -3.38572e-05   9.71652e-06 DIIS
   @RHF iter  12:  -300.87173493534539   -5.34220e-06   4.44819e-06 DIIS
   @RHF iter  13:  -300.87173633449248   -1.39915e-06   1.41101e-06 DIIS
   @RHF iter  14:  -300.87173648899449   -1.54502e-07   4.84668e-07 DIIS
   @RHF iter  15:  -300.87173650502569   -1.60312e-08   1.57557e-07 DIIS
   @RHF iter  16:  -300.87173650628853   -1.26283e-09   4.80247e-08 DIIS
   @RHF iter  17:  -300.87173650641734   -1.28807e-10   1.96976e-08 DIIS
   @RHF iter  18:  -300.87173650643450   -1.71667e-11   8.43489e-09 DIIS

  ==> Post-Iterations <==

	Orbital Energies (a.u.)
	-----------------------

	Doubly Occupied:                                                      

	   1A    -20.638549     2A    -15.576192     3A    -15.528746  
	   4A    -11.273434     5A    -11.239041     6A    -11.224631  
	   7A     -1.435350     8A     -1.312381     9A     -1.140450  
	  10A     -0.980483    11A     -0.831825    12A     -0.787539  
	  13A     -0.772913    14A     -0.746595    15A     -0.663868  
	  16A     -0.585288    17A     -0.573505    18A     -0.565525  
	  19A     -0.549347    20A     -0.539183    21A     -0.412436  
	  22A     -0.368400    23A     -0.292332  

	Virtual:                                                              

	  24A      0.010453    25A      0.041930    26A      0.045935  
	  27A      0.052116    28A      0.062924    29A      0.081946  
	  30A      0.106621    31A      0.109188    32A      0.133964  
	  33A      0.136576    34A      0.142487    35A      0.149748  
	  36A      0.154081    37A      0.164308    38A      0.170403  
	  39A      0.180342    40A      0.187402    41A      0.194640  
	  42A      0.209671    43A      0.218771    44A      0.231741  
	  45A      0.233018    46A      0.245957    47A      0.261589  
	  48A      0.263656    49A      0.274457    50A      0.288231  
	  51A      0.289975    52A      0.321933    53A      0.327846  
	  54A      0.331439    55A      0.345281    56A      0.357936  
	  57A      0.364927    58A      0.377826    59A      0.400236  
	  60A      0.405088    61A      0.414551    62A      0.423323  
	  63A      0.430681    64A      0.445105    65A      0.467998  
	  66A      0.480465    67A      0.492111    68A      0.495738  
	  69A      0.514410    70A      0.521051    71A      0.538179  
	  72A      0.563070    73A      0.572069    74A      0.582749  
	  75A      0.589572    76A      0.607935    77A      0.615163  
	  78A      0.622643    79A      0.627695    80A      0.642903  
	  81A      0.645324    82A      0.660880    83A      0.678822  
	  84A      0.691157    85A      0.693735    86A      0.700106  
	  87A      0.713152    88A      0.751109    89A      0.759085  
	  90A      0.766206    91A      0.784910    92A      0.785836  
	  93A      0.807548    94A      0.856607    95A      0.876022  
	  96A      0.884899    97A      0.892399    98A      0.899869  
	  99A      0.914713   100A      0.915643   101A      0.941525  
	 102A      0.974088   103A      0.980170   104A      1.034479  
	 105A      1.035884   106A      1.042868   107A      1.056382  
	 108A      1.058189   109A      1.089806   110A      1.102881  
	 111A      1.152133   112A      1.154931   113A      1.174066  
	 114A      1.180065   115A      1.194845   116A      1.230166  
	 117A      1.239610   118A      1.292019   119A      1.332743  
	 120A      1.372742   121A      1.402264   122A      1.451500  
	 123A      1.495460   124A      1.501748   125A      1.522504  
	 126A      1.567678   127A      1.597477   128A      1.600729  
	 129A      1.635572   130A      1.635688   131A      1.683075  
	 132A      1.708372   133A      1.719489   134A      1.736507  
	 135A      1.749170   136A      1.809406   137A      1.830443  
	 138A      1.833484   139A      1.923710   140A      1.926153  
	 141A      1.958414   142A      1.981305   143A      1.996875  
	 144A      2.021234   145A      2.080316   146A      2.102074  
	 147A      2.118840   148A      2.146730   149A      2.148553  
	 150A      2.169282   151A      2.189016   152A      2.219964  
	 153A      2.263045   154A      2.279804   155A      2.310208  
	 156A      2.352606   157A      2.381509   158A      2.462911  
	 159A      2.517148   160A      2.518558   161A      2.531538  
	 162A      2.553320   163A      2.624128   164A      2.640587  
	 165A      2.659381   166A      2.724568   167A      2.775255  
	 168A      2.780893   169A      2.782046   170A      2.831971  
	 171A      2.857691   172A      2.858708   173A      2.933179  
	 174A      2.938880   175A      2.991143   176A      3.032256  
	 177A      3.075182   178A      3.102160   179A      3.111609  
	 180A      3.231159   181A      3.273465   182A      3.345211  
	 183A      3.387659   184A      3.410967   185A      3.544150  
	 186A      3.637890   187A      3.748407   188A      3.785145  
	 189A      3.971793   190A      4.040593   191A      4.297895  
	 192A      4.451954  

	Final Occupation by Irrep:
	          A 
	DOCC [    23 ]

  Energy converged.

  @RHF Final Energy:  -300.87173650643450

   => Energetics <=

    Nuclear Repulsion Energy =            227.7524059538756660
    One-Electron Energy =                -861.1722623090304296
    Two-Electron Energy =                 332.5481198487202050
    DFT Exchange-Correlation Energy =       0.0000000000000000
    Empirical Dispersion Energy =           0.0000000000000000
    Total Energy =                       -300.8717365064345017



Properties will be evaluated at   0.000000,   0.000000,   0.000000 Bohr
  ==> Properties <==


Properties computed using the SCF density density matrix
  Nuclear Dipole Moment: (a.u.)
     X:     4.3534      Y:    -2.7849      Z:     0.2192

  Electronic Dipole Moment: (a.u.)
     X:    -1.6444      Y:     1.4183      Z:    -0.1215

  Dipole Moment: (a.u.)
     X:     2.7090      Y:    -1.3666      Z:     0.0977     Total:     3.0358

  Dipole Moment: (Debye)
     X:     6.8856      Y:    -3.4736      Z:     0.2484     Total:     7.7161


  Saving occupied orbitals to File 180.

  Saving SAPT 2-DIMER file.

*** tstop() called on node143.bme.utexas.edu at Fri Aug 29 12:05:50 2014
Module time:
	user time   =      43.50 seconds =       0.72 minutes
	system time =       0.45 seconds =       0.01 minutes
	total time  =         12 seconds =       0.20 minutes
Total time:
	user time   =      43.50 seconds =       0.72 minutes
	system time =       0.45 seconds =       0.01 minutes
	total time  =         12 seconds =       0.20 minutes

  //>>>>>>>>>>>>>>>>>>>>>>>>>>>>>>>>>>>//
  //            Monomer A HF           //
  //<<<<<<<<<<<<<<<<<<<<<<<<<<<<<<<<<<<//


  No DF_BASIS_SCF auxiliary basis selected, defaulting to aug-cc-pvdz-jkfit


*** tstart() called on node143.bme.utexas.edu
*** at Fri Aug 29 12:05:50 2014


         ---------------------------------------------------------
                                   SCF
            by Justin Turney, Rob Parrish, and Andy Simmonett
                              RHF Reference
                        4 Threads,   7000 MiB Core
         ---------------------------------------------------------

  ==> Geometry <==

    Molecular point group: c1
    Full point group: C1

    Geometry (in Angstrom), charge = 0, multiplicity = 1:

       Center              X                  Y                   Z       
    ------------   -----------------  -----------------  -----------------
           C         -1.833364445990     0.002114190658     0.031292436639
           C         -0.799592445990    -0.905463809342     0.109308436639
           N          0.343792554010    -0.159136809342     0.010875436639
           C         -0.033099445990     1.140263190658    -0.119790563361
           N         -1.350158445990     1.277878190658    -0.111669563361
           H          1.293517554010    -0.508460809342     0.031415436639
           H         -2.889727445990    -0.198680809342     0.070649436639
           H         -0.779032445990    -1.973953809342     0.221730436639
           H          0.681274554010     1.939264190658    -0.216406563361
           O(Gh)      2.589653654010    -0.970518209342     0.057934936639
           H(Gh)      3.173582654010    -1.030601209342     0.816838936639
           H(Gh)      3.147778654010    -1.189813209342    -0.691013063361

  Running in c1 symmetry.

  Nuclear repulsion =  163.311236019440344

  Charge       = 0
  Multiplicity = 1
  Electrons    = 36
  Nalpha       = 18
  Nbeta        = 18

  ==> Algorithm <==

  SCF Algorithm Type is DF.
  DIIS enabled.
  MOM disabled.
  Fractional occupation disabled.
  Guess Type is CORE.
  Energy threshold   = 1.00e-08
  Density threshold  = 1.00e-08
  Integral threshold = 0.00e+00

  ==> Primary Basis <==

  Basis Set: AUG-CC-PVDZ
    Number of shells: 84
    Number of basis function: 192
    Number of Cartesian functions: 204
    Spherical Harmonics?: true
    Max angular momentum: 2

  ==> Pre-Iterations <==

   -------------------------------------------------------
    Irrep   Nso     Nmo     Nalpha   Nbeta   Ndocc  Nsocc
   -------------------------------------------------------
     A        192     192       0       0       0       0
   -------------------------------------------------------
    Total     192     192      18      18      18       0
   -------------------------------------------------------

 OEINTS: Wrapper to libmints.
   by Justin Turney

   Calculation information:
      Number of atoms:                  12
      Number of AO shells:              84
      Number of SO shells:              84
      Number of primitives:            192
      Number of atomic orbitals:       204
      Number of basis functions:       192

      Number of irreps:                  1
      Number of functions per irrep: [ 192 ]

      Overlap, kinetic, potential, dipole, and quadrupole integrals
        stored in file 35.

  ==> Integral Setup <==

  ==> DFJK: Density-Fitted J/K Matrices <==

    J tasked:                  Yes
    K tasked:                  Yes
    wK tasked:                  No
    OpenMP threads:              4
    Integrals threads:           4
    Memory (MB):              5006
    Algorithm:                Core
    Integral Cache:           LOAD
    Schwarz Cutoff:          0E+00
    Fitting Condition:       1E-12

   => Auxiliary Basis Set <=

  Basis Set: aug-cc-pvdz-jkfit
    Number of shells: 240
    Number of basis function: 708
    Number of Cartesian functions: 816
    Spherical Harmonics?: true
    Max angular momentum: 3

  Minimum eigenvalue in the overlap matrix is 1.8317580315E-05.
  Using Symmetric Orthogonalization.
  SCF Guess: Core (One-Electron) Hamiltonian.

  Guess energy:  -174.39795878387537

  ==> Iterations <==

                        Total Energy        Delta E     RMS |[F,P]|

   @RHF iter   1:  -191.60175860736564   -1.91602e+02   3.00744e-02 
   @RHF iter   2:  -168.60120769257560    2.30006e+01   2.56089e-02 DIIS
   @RHF iter   3:  -212.93933744443882   -4.43381e+01   2.31335e-02 DIIS
   @RHF iter   4:  -223.06630277403480   -1.01270e+01   9.22089e-03 DIIS
   @RHF iter   5:  -224.03448114096454   -9.68178e-01   6.12640e-03 DIIS
   @RHF iter   6:  -224.69118167130898   -6.56701e-01   2.48570e-03 DIIS
   @RHF iter   7:  -224.83719989667628   -1.46018e-01   6.65799e-04 DIIS
   @RHF iter   8:  -224.84576345256590   -8.56356e-03   2.08830e-04 DIIS
   @RHF iter   9:  -224.84669276859944   -9.29316e-04   4.69196e-05 DIIS
   @RHF iter  10:  -224.84676261628903   -6.98477e-05   2.17681e-05 DIIS
   @RHF iter  11:  -224.84678054197764   -1.79257e-05   8.10715e-06 DIIS
   @RHF iter  12:  -224.84678544183373   -4.89986e-06   3.00799e-06 DIIS
   @RHF iter  13:  -224.84678604402723   -6.02193e-07   6.37778e-07 DIIS
   @RHF iter  14:  -224.84678607558442   -3.15572e-08   2.39617e-07 DIIS
   @RHF iter  15:  -224.84678607874315   -3.15873e-09   9.63952e-08 DIIS
   @RHF iter  16:  -224.84678607916157   -4.18424e-10   2.89754e-08 DIIS
   @RHF iter  17:  -224.84678607921927   -5.76961e-11   1.08163e-08 DIIS
   @RHF iter  18:  -224.84678607922558   -6.30962e-12   3.47420e-09 DIIS

  ==> Post-Iterations <==

	Orbital Energies (a.u.)
	-----------------------

	Doubly Occupied:                                                      

	   1A    -15.633217     2A    -15.555983     3A    -11.304192  
	   4A    -11.267714     5A    -11.250650     6A     -1.346901  
	   7A     -1.171660     8A     -1.008794     9A     -0.832213  
	  10A     -0.803056    11A     -0.760501    12A     -0.610679  
	  13A     -0.603846    14A     -0.599720    15A     -0.570684  
	  16A     -0.439156    17A     -0.401289    18A     -0.318643  

	Virtual:                                                              

	  19A      0.019190    20A      0.040899    21A      0.048495  
	  22A      0.051880    23A      0.059277    24A      0.079174  
	  25A      0.098483    26A      0.099461    27A      0.117607  
	  28A      0.127121    29A      0.133242    30A      0.140440  
	  31A      0.141436    32A      0.156014    33A      0.163936  
	  34A      0.170333    35A      0.171470    36A      0.178927  
	  37A      0.200881    38A      0.201733    39A      0.216709  
	  40A      0.223221    41A      0.229861    42A      0.246649  
	  43A      0.268051    44A      0.271985    45A      0.275652  
	  46A      0.279097    47A      0.309647    48A      0.323789  
	  49A      0.333695    50A      0.343163    51A      0.367931  
	  52A      0.376822    53A      0.387926    54A      0.402519  
	  55A      0.408390    56A      0.413266    57A      0.413404  
	  58A      0.428326    59A      0.431895    60A      0.449357  
	  61A      0.453418    62A      0.471424    63A      0.474355  
	  64A      0.486402    65A      0.487452    66A      0.511809  
	  67A      0.536426    68A      0.551766    69A      0.564436  
	  70A      0.577821    71A      0.580122    72A      0.598740  
	  73A      0.600918    74A      0.613866    75A      0.628001  
	  76A      0.630902    77A      0.639221    78A      0.658572  
	  79A      0.672968    80A      0.681654    81A      0.694088  
	  82A      0.694671    83A      0.706861    84A      0.741796  
	  85A      0.760453    86A      0.765289    87A      0.769270  
	  88A      0.782158    89A      0.819033    90A      0.852448  
	  91A      0.866405    92A      0.866916    93A      0.893323  
	  94A      0.894084    95A      0.924517    96A      0.953835  
	  97A      0.973658    98A      1.009815    99A      1.024559  
	 100A      1.027856   101A      1.038578   102A      1.076876  
	 103A      1.096158   104A      1.119989   105A      1.120375  
	 106A      1.142862   107A      1.145165   108A      1.181247  
	 109A      1.188453   110A      1.216876   111A      1.220450  
	 112A      1.262836   113A      1.278429   114A      1.301163  
	 115A      1.334422   116A      1.361436   117A      1.361899  
	 118A      1.402748   119A      1.440134   120A      1.470836  
	 121A      1.536430   122A      1.561295   123A      1.573634  
	 124A      1.576414   125A      1.616757   126A      1.630463  
	 127A      1.656496   128A      1.693894   129A      1.700378  
	 130A      1.724869   131A      1.733738   132A      1.791632  
	 133A      1.806877   134A      1.810423   135A      1.895829  
	 136A      1.922862   137A      1.941247   138A      1.989758  
	 139A      2.056546   140A      2.065012   141A      2.073549  
	 142A      2.116672   143A      2.118381   144A      2.131555  
	 145A      2.171436   146A      2.182354   147A      2.260854  
	 148A      2.280626   149A      2.302168   150A      2.325286  
	 151A      2.358749   152A      2.464608   153A      2.483782  
	 154A      2.494244   155A      2.517025   156A      2.538854  
	 157A      2.542267   158A      2.586875   159A      2.607293  
	 160A      2.619496   161A      2.746104   162A      2.746160  
	 163A      2.754753   164A      2.810321   165A      2.827992  
	 166A      2.856588   167A      2.901835   168A      2.946250  
	 169A      3.003553   170A      3.010878   171A      3.043827  
	 172A      3.107490   173A      3.121298   174A      3.263442  
	 175A      3.340663   176A      3.367568   177A      3.386668  
	 178A      3.514623   179A      3.770352   180A      3.947856  
	 181A      4.081220   182A      4.157323   183A      4.182471  
	 184A      4.906740   185A      5.020651   186A      5.233588  
	 187A      5.344880   188A      5.361139   189A      5.832311  
	 190A      6.874553   191A      7.003977   192A     33.534762  

	Final Occupation by Irrep:
	          A 
	DOCC [    18 ]

  Energy converged.

  @RHF Final Energy:  -224.84678607922558

   => Energetics <=

    Nuclear Repulsion Energy =            163.3112360194403436
    One-Electron Energy =                -627.3582501761517278
    Two-Electron Energy =                 239.2002280774856331
    DFT Exchange-Correlation Energy =       0.0000000000000000
    Empirical Dispersion Energy =           0.0000000000000000
    Total Energy =                       -224.8467860792257511



Properties will be evaluated at   0.000000,   0.000000,   0.000000 Bohr
  ==> Properties <==


Properties computed using the SCF density density matrix
  Nuclear Dipole Moment: (a.u.)
     X:   -46.7421      Y:    16.0832      Z:    -0.8944

  Electronic Dipole Moment: (a.u.)
     X:    47.9759      Y:   -17.0017      Z:     0.9702

  Dipole Moment: (a.u.)
     X:     1.2337      Y:    -0.9185      Z:     0.0757     Total:     1.5400

  Dipole Moment: (Debye)
     X:     3.1358      Y:    -2.3346      Z:     0.1925     Total:     3.9142


  Saving occupied orbitals to File 180.

  Saving SAPT 2-MONOMER_A file.

*** tstop() called on node143.bme.utexas.edu at Fri Aug 29 12:05:59 2014
Module time:
	user time   =      34.36 seconds =       0.57 minutes
	system time =       0.30 seconds =       0.01 minutes
	total time  =          9 seconds =       0.15 minutes
Total time:
	user time   =      77.93 seconds =       1.30 minutes
	system time =       0.75 seconds =       0.01 minutes
	total time  =         21 seconds =       0.35 minutes

  //>>>>>>>>>>>>>>>>>>>>>>>>>>>>>>>>>>>//
  //            Monomer B HF           //
  //<<<<<<<<<<<<<<<<<<<<<<<<<<<<<<<<<<<//


  No DF_BASIS_SCF auxiliary basis selected, defaulting to aug-cc-pvdz-jkfit


*** tstart() called on node143.bme.utexas.edu
*** at Fri Aug 29 12:05:59 2014


         ---------------------------------------------------------
                                   SCF
            by Justin Turney, Rob Parrish, and Andy Simmonett
                              RHF Reference
                        4 Threads,   7000 MiB Core
         ---------------------------------------------------------

  ==> Geometry <==

    Molecular point group: c1
    Full point group: C1

    Geometry (in Angstrom), charge = 0, multiplicity = 1:

       Center              X                  Y                   Z       
    ------------   -----------------  -----------------  -----------------
           C(Gh)     -1.833364445990     0.002114190658     0.031292436639
           C(Gh)     -0.799592445990    -0.905463809342     0.109308436639
           N(Gh)      0.343792554010    -0.159136809342     0.010875436639
           C(Gh)     -0.033099445990     1.140263190658    -0.119790563361
           N(Gh)     -1.350158445990     1.277878190658    -0.111669563361
           H(Gh)      1.293517554010    -0.508460809342     0.031415436639
           H(Gh)     -2.889727445990    -0.198680809342     0.070649436639
           H(Gh)     -0.779032445990    -1.973953809342     0.221730436639
           H(Gh)      0.681274554010     1.939264190658    -0.216406563361
           O          2.589653654010    -0.970518209342     0.057934936639
           H          3.173582654010    -1.030601209342     0.816838936639
           H          3.147778654010    -1.189813209342    -0.691013063361

  Running in c1 symmetry.

  Nuclear repulsion =    9.173760872145706

  Charge       = 0
  Multiplicity = 1
  Electrons    = 10
  Nalpha       = 5
  Nbeta        = 5

  ==> Algorithm <==

  SCF Algorithm Type is DF.
  DIIS enabled.
  MOM disabled.
  Fractional occupation disabled.
  Guess Type is CORE.
  Energy threshold   = 1.00e-08
  Density threshold  = 1.00e-08
  Integral threshold = 0.00e+00

  ==> Primary Basis <==

  Basis Set: AUG-CC-PVDZ
    Number of shells: 84
    Number of basis function: 192
    Number of Cartesian functions: 204
    Spherical Harmonics?: true
    Max angular momentum: 2

  ==> Pre-Iterations <==

   -------------------------------------------------------
    Irrep   Nso     Nmo     Nalpha   Nbeta   Ndocc  Nsocc
   -------------------------------------------------------
     A        192     192       0       0       0       0
   -------------------------------------------------------
    Total     192     192       5       5       5       0
   -------------------------------------------------------

 OEINTS: Wrapper to libmints.
   by Justin Turney

   Calculation information:
      Number of atoms:                  12
      Number of AO shells:              84
      Number of SO shells:              84
      Number of primitives:            192
      Number of atomic orbitals:       204
      Number of basis functions:       192

      Number of irreps:                  1
      Number of functions per irrep: [ 192 ]

      Overlap, kinetic, potential, dipole, and quadrupole integrals
        stored in file 35.

  ==> Integral Setup <==

  ==> DFJK: Density-Fitted J/K Matrices <==

    J tasked:                  Yes
    K tasked:                  Yes
    wK tasked:                  No
    OpenMP threads:              4
    Integrals threads:           4
    Memory (MB):              5006
    Algorithm:                Core
    Integral Cache:           LOAD
    Schwarz Cutoff:          0E+00
    Fitting Condition:       1E-12

   => Auxiliary Basis Set <=

  Basis Set: aug-cc-pvdz-jkfit
    Number of shells: 240
    Number of basis function: 708
    Number of Cartesian functions: 816
    Spherical Harmonics?: true
    Max angular momentum: 3

  Minimum eigenvalue in the overlap matrix is 1.8317580315E-05.
  Using Symmetric Orthogonalization.
  SCF Guess: Core (One-Electron) Hamiltonian.

  Guess energy:   -58.71218149978709

  ==> Iterations <==

                        Total Energy        Delta E     RMS |[F,P]|

   @RHF iter   1:   -68.22675613987276   -6.82268e+01   1.83986e-02 
   @RHF iter   2:   -64.84931710387848    3.37744e+00   1.35916e-02 DIIS
   @RHF iter   3:   -74.94300703351693   -1.00937e+01   8.70486e-03 DIIS
   @RHF iter   4:   -75.81448005215485   -8.71473e-01   3.80297e-03 DIIS
   @RHF iter   5:   -76.04066460377591   -2.26185e-01   3.24630e-04 DIIS
   @RHF iter   6:   -76.04192229241819   -1.25769e-03   1.45503e-04 DIIS
   @RHF iter   7:   -76.04218856163449   -2.66269e-04   1.66426e-05 DIIS
   @RHF iter   8:   -76.04219359402234   -5.03239e-06   2.89385e-06 DIIS
   @RHF iter   9:   -76.04219383308629   -2.39064e-07   6.09115e-07 DIIS
   @RHF iter  10:   -76.04219384147737   -8.39108e-09   1.26514e-07 DIIS
   @RHF iter  11:   -76.04219384183588   -3.58511e-10   9.71536e-09 DIIS

  ==> Post-Iterations <==

	Orbital Energies (a.u.)
	-----------------------

	Doubly Occupied:                                                      

	   1A    -20.577627     2A     -1.355392     3A     -0.717647  
	   4A     -0.585010     5A     -0.508916  

	Virtual:                                                              

	   6A      0.025788     7A      0.037220     8A      0.046251  
	   9A      0.055867    10A      0.059792    11A      0.086583  
	  12A      0.090191    13A      0.096282    14A      0.113783  
	  15A      0.131609    16A      0.134562    17A      0.140368  
	  18A      0.141210    19A      0.141288    20A      0.157047  
	  21A      0.163824    22A      0.181074    23A      0.215858  
	  24A      0.219898    25A      0.220425    26A      0.222182  
	  27A      0.226136    28A      0.242773    29A      0.246894  
	  30A      0.256976    31A      0.282194    32A      0.294941  
	  33A      0.310102    34A      0.317233    35A      0.338571  
	  36A      0.345706    37A      0.369457    38A      0.371832  
	  39A      0.381155    40A      0.387868    41A      0.394251  
	  42A      0.410574    43A      0.451242    44A      0.452970  
	  45A      0.459725    46A      0.473456    47A      0.489294  
	  48A      0.504598    49A      0.517061    50A      0.527546  
	  51A      0.532301    52A      0.550004    53A      0.558998  
	  54A      0.564180    55A      0.564216    56A      0.576817  
	  57A      0.597689    58A      0.598249    59A      0.618578  
	  60A      0.625629    61A      0.645055    62A      0.652370  
	  63A      0.667023    64A      0.688444    65A      0.696627  
	  66A      0.702024    67A      0.710792    68A      0.723689  
	  69A      0.760082    70A      0.795787    71A      0.811214  
	  72A      0.823327    73A      0.835350    74A      0.842304  
	  75A      0.850458    76A      0.865608    77A      0.892688  
	  78A      0.905995    79A      0.925762    80A      0.948363  
	  81A      0.984735    82A      0.986616    83A      1.010399  
	  84A      1.027052    85A      1.034123    86A      1.037665  
	  87A      1.085916    88A      1.104360    89A      1.139428  
	  90A      1.144347    91A      1.181234    92A      1.195568  
	  93A      1.217007    94A      1.220789    95A      1.222460  
	  96A      1.238631    97A      1.276641    98A      1.300722  
	  99A      1.317079   100A      1.327436   101A      1.344877  
	 102A      1.370467   103A      1.393993   104A      1.416158  
	 105A      1.447253   106A      1.479388   107A      1.552797  
	 108A      1.587452   109A      1.639548   110A      1.643144  
	 111A      1.698146   112A      1.814128   113A      2.024903  
	 114A      2.050706   115A      2.102893   116A      2.126025  
	 117A      2.132263   118A      2.147778   119A      2.170392  
	 120A      2.173794   121A      2.195883   122A      2.225249  
	 123A      2.292959   124A      2.331729   125A      2.370355  
	 126A      2.388051   127A      2.413839   128A      2.450259  
	 129A      2.480681   130A      2.485915   131A      2.515017  
	 132A      2.534957   133A      2.557150   134A      2.586992  
	 135A      2.618254   136A      2.628740   137A      2.640775  
	 138A      2.688556   139A      2.809846   140A      2.837795  
	 141A      2.856264   142A      2.920323   143A      2.934444  
	 144A      2.976227   145A      3.051209   146A      3.073923  
	 147A      3.094575   148A      3.139246   149A      3.170406  
	 150A      3.191719   151A      3.202025   152A      3.212592  
	 153A      3.269619   154A      3.380040   155A      3.390653  
	 156A      3.475626   157A      3.538226   158A      3.592258  
	 159A      3.614916   160A      3.627051   161A      3.704104  
	 162A      3.759344   163A      3.768597   164A      3.836763  
	 165A      3.866281   166A      3.869573   167A      3.908968  
	 168A      3.939864   169A      3.997704   170A      4.074348  
	 171A      4.182578   172A      4.347212   173A      4.373613  
	 174A      4.678246   175A      4.690111   176A      4.711800  
	 177A      4.799530   178A      4.974763   179A      5.093533  
	 180A      5.281840   181A      5.361162   182A      5.486770  
	 183A      5.641255   184A      5.800868   185A      5.884168  
	 186A      6.186317   187A      6.692023   188A     18.280589  
	 189A     18.617934   190A     19.359438   191A     25.327014  
	 192A     25.536868  

	Final Occupation by Irrep:
	          A 
	DOCC [     5 ]

  Energy converged.

  @RHF Final Energy:   -76.04219384183588

   => Energetics <=

    Nuclear Repulsion Energy =              9.1737608721457065
    One-Electron Energy =                -122.9427173666320954
    Two-Electron Energy =                  37.7267626526506348
    DFT Exchange-Correlation Energy =       0.0000000000000000
    Empirical Dispersion Energy =           0.0000000000000000
    Total Energy =                        -76.0421938418357541



Properties will be evaluated at   0.000000,   0.000000,   0.000000 Bohr
  ==> Properties <==


Properties computed using the SCF density density matrix
  Nuclear Dipole Moment: (a.u.)
     X:    51.0955      Y:   -18.8681      Z:     1.1136

  Electronic Dipole Moment: (a.u.)
     X:   -50.3370      Y:    18.6830      Z:    -1.1071

  Dipole Moment: (a.u.)
     X:     0.7586      Y:    -0.1851      Z:     0.0066     Total:     0.7809

  Dipole Moment: (Debye)
     X:     1.9281      Y:    -0.4705      Z:     0.0167     Total:     1.9847


  Saving occupied orbitals to File 180.

  Saving SAPT 2-MONOMER_B file.

*** tstop() called on node143.bme.utexas.edu at Fri Aug 29 12:06:04 2014
Module time:
	user time   =      19.25 seconds =       0.32 minutes
	system time =       0.22 seconds =       0.00 minutes
	total time  =          5 seconds =       0.08 minutes
Total time:
	user time   =      97.20 seconds =       1.62 minutes
	system time =       0.97 seconds =       0.02 minutes
	total time  =         26 seconds =       0.43 minutes
  No DF_BASIS_SAPT auxiliary basis selected, defaulting to aug-cc-pvdz-ri

  //>>>>>>>>>>>>>>>>>>>>>>>>>>>>>>>>>>>//
  //               SAPT2+              //
  //<<<<<<<<<<<<<<<<<<<<<<<<<<<<<<<<<<<//


*** tstart() called on node143.bme.utexas.edu
*** at Fri Aug 29 12:06:04 2014

        SAPT2+  
    Ed Hohenstein
     6 June 2009

      Orbital Information
  --------------------------
    NSO        =       192
    NMO        =       192
    NRI        =       570
    NOCC A     =        18
    NOCC B     =         5
    FOCC A     =         5
    FOCC B     =         1
    NVIR A     =       174
    NVIR B     =       187

    Estimated memory usage: 431.4 MB

    Elst10,r            =    -0.043525335378 H
    Exch10 (S^2)        =     0.081762346126 H
    Exch10              =     0.085537536689 H
    Ind20,r (A<-B)      =    -0.017543284949 H
    Ind20,r (B<-A)      =    -0.019506632889 H
    Ind20,r             =    -0.037049917839 H
    Exch-Ind20,r (A<-B) =     0.014982801388 H
    Exch-Ind20,r (B<-A) =     0.008111189842 H
    Exch-Ind20,r        =     0.023093991229 H
    Disp20              =    -0.015355252862 H
    Exch-Disp20         =     0.003375179799 H
    Elst12,r            =    -0.000396664256 H
    Exch11              =    -0.000270405533 H
    Exch12              =     0.007115546061 H
    Ind22               =    -0.005036894809 H
    Disp21              =     0.001761635751 H
    Disp22 (SDQ)        =    -0.000434700267 H

    (i =   1 of   4)         84 seconds
    (i =   2 of   4)        169 seconds
    (i =   3 of   4)        253 seconds
    (i =   4 of   4)        338 seconds

    Disp220 (T)         =    -0.001128166165 H

    (i =   1 of  13)         19 seconds
    (i =   2 of  13)         37 seconds
    (i =   3 of  13)         55 seconds
    (i =   4 of  13)         74 seconds
    (i =   5 of  13)         92 seconds
    (i =   6 of  13)        110 seconds
    (i =   7 of  13)        129 seconds
    (i =   8 of  13)        147 seconds
    (i =   9 of  13)        166 seconds
    (i =  10 of  13)        184 seconds
    (i =  11 of  13)        202 seconds
    (i =  12 of  13)        221 seconds
    (i =  13 of  13)        239 seconds

    Disp202 (T)         =    -0.000977958782 H

    Disp22 (T)          =    -0.002106124948 H

    SAPT Results  
  -----------------------------------------------------------------------
    Electrostatics         -43.92199963 mH     -27.56147203 kcal mol^-1
      Elst10,r             -43.52533538 mH     -27.31256144 kcal mol^-1
      Elst12,r              -0.39666426 mH      -0.24891059 kcal mol^-1

    Exchange                92.38267722 mH      57.97100759 kcal mol^-1
      Exch10                85.53753669 mH      53.67561688 kcal mol^-1
      Exch10(S^2)           81.76234613 mH      51.30664894 kcal mol^-1
      Exch11(S^2)           -0.27040553 mH      -0.16968204 kcal mol^-1
      Exch12(S^2)            7.11554606 mH       4.46507275 kcal mol^-1

    Induction              -26.66607927 mH     -16.73321807 kcal mol^-1
      Ind20,r              -37.04991784 mH     -23.24917542 kcal mol^-1
      Ind22                 -5.03689481 mH      -3.16069934 kcal mol^-1
      Exch-Ind20,r          23.09399123 mH      14.49169889 kcal mol^-1
      Exch-Ind22             3.13960223 mH       1.97013022 kcal mol^-1
      delta HF,r (2)       -10.81286007 mH      -6.78517242 kcal mol^-1

    Dispersion             -12.75926253 mH      -8.00655845 kcal mol^-1
      Disp20               -15.35525286 mH      -9.63556705 kcal mol^-1
      Disp21                 1.76163575 mH       1.10544317 kcal mol^-1
      Disp22 (SDQ)          -0.43470027 mH      -0.27277855 kcal mol^-1
      Disp22 (T)            -2.10612495 mH      -1.32161341 kcal mol^-1
      Exch-Disp20            3.37517980 mH       2.11795739 kcal mol^-1

    Total HF                17.24341463 mH      10.82040649 kcal mol^-1
    Total SAPT0              5.26334156 mH       3.30279683 kcal mol^-1
    Total SAPT2              9.81452525 mH       6.15870783 kcal mol^-1
    Total SAPT2+             9.03533579 mH       5.66975904 kcal mol^-1

*** tstop() called on node143.bme.utexas.edu at Fri Aug 29 12:18:14 2014
Module time:
	user time   =    2809.23 seconds =      46.82 minutes
	system time =      24.20 seconds =       0.40 minutes
	total time  =        730 seconds =      12.17 minutes
Total time:
	user time   =    2906.43 seconds =      48.44 minutes
	system time =      25.17 seconds =       0.42 minutes
	total time  =        756 seconds =      12.60 minutes

*** PSI4 exiting successfully. Buy a developer a beer!
    -----------------------------------------------------------------------
          PSI4: An Open-Source Ab Initio Electronic Structure Package
                              PSI 4.0.0-beta4 Driver

    J. M. Turney, A. C. Simmonett, R. M. Parrish, E. G. Hohenstein,
    F. A. Evangelista, J. T. Fermann, B. J. Mintz, L. A. Burns, J. J. Wilke,
    M. L. Abrams, N. J. Russ, M. L. Leininger, C. L. Janssen, E. T. Seidl,
    W. D. Allen, H. F. Schaefer, R. A. King, E. F. Valeev, C. D. Sherrill,
    and T. D. Crawford, WIREs Comput. Mol. Sci., (2011) (doi: 10.1002/wcms.93)

                         Additional Contributions by
    A. E. DePrince, M. Saitow, U. Bozkaya, A. Yu. Sokolov
    -----------------------------------------------------------------------

    Process ID:  32664
    PSI4DATADIR: /home/xzhu216/psi4/psi4-install/share/psi

    Using LocalCommunicator (Number of processes = 1)

    Memory level set to 256.000 MB

  ==> Input File <==

--------------------------------------------------------------------------
#psi4
#
memory 7 gb

molecule Imidazole_Water {
0 1
    C    -3.750532000     0.043169000     0.026787000
    C    -2.716760000    -0.864409000     0.104803000
    N    -1.573375000    -0.118082000     0.006370000
    C    -1.950267000     1.181318000    -0.124296000
    N    -3.267326000     1.318933000    -0.116175000
    H    -0.623650000    -0.467406000     0.026910000
    H    -4.806895000    -0.157626000     0.066144000
    H    -2.696200000    -1.932899000     0.217225000
    H    -1.235893000     1.980319000    -0.220912000
--
0 1
    O     0.857648400    -0.995471600     0.057218000
    H     1.441577400    -1.055554600     0.816122000
    H     1.415773400    -1.214766600    -0.691730000
units angstrom
no_reorient  #important for SAPT in psi4, default
symmetry c1  #important for SAPT in psi4, default
}

set {
basis aug-cc-pVDZ
scf_type DF
freeze_core True
}
energy('sapt2+')
--------------------------------------------------------------------------

  Memory set to   7.000 GiB by Python script.

  //>>>>>>>>>>>>>>>>>>>>>>>>>>>>>>>>>>>//
  //              Dimer HF             //
  //<<<<<<<<<<<<<<<<<<<<<<<<<<<<<<<<<<<//


  No DF_BASIS_SCF auxiliary basis selected, defaulting to aug-cc-pvdz-jkfit


*** tstart() called on node145.bme.utexas.edu
*** at Fri Aug 29 12:05:58 2014


         ---------------------------------------------------------
                                   SCF
            by Justin Turney, Rob Parrish, and Andy Simmonett
                              RHF Reference
                        4 Threads,   7000 MiB Core
         ---------------------------------------------------------

  ==> Geometry <==

    Molecular point group: c1
    Full point group: C1

    Geometry (in Angstrom), charge = 0, multiplicity = 1:

       Center              X                  Y                   Z       
    ------------   -----------------  -----------------  -----------------
           C         -1.872120455243     0.015930255861     0.030499472083
           C         -0.838348455243    -0.891647744139     0.108515472083
           N          0.305036544757    -0.145320744139     0.010082472083
           C         -0.071855455243     1.154079255861    -0.120583527917
           N         -1.388914455243     1.291694255861    -0.112462527917
           H          1.254761544757    -0.494644744139     0.030622472083
           H         -2.928483455243    -0.184864744139     0.069856472083
           H         -0.817788455243    -1.960137744139     0.220937472083
           H          0.642518544757     1.953080255861    -0.217199527917
           O          2.736059944757    -1.022710344139     0.060930472083
           H          3.319988944757    -1.082793344139     0.819834472083
           H          3.294184944757    -1.242005344139    -0.688017527917

  Running in c1 symmetry.

  Nuclear repulsion =  224.565389420692696

  Charge       = 0
  Multiplicity = 1
  Electrons    = 46
  Nalpha       = 23
  Nbeta        = 23

  ==> Algorithm <==

  SCF Algorithm Type is DF.
  DIIS enabled.
  MOM disabled.
  Fractional occupation disabled.
  Guess Type is CORE.
  Energy threshold   = 1.00e-08
  Density threshold  = 1.00e-08
  Integral threshold = 0.00e+00

  ==> Primary Basis <==

  Basis Set: AUG-CC-PVDZ
    Number of shells: 84
    Number of basis function: 192
    Number of Cartesian functions: 204
    Spherical Harmonics?: true
    Max angular momentum: 2

  ==> Pre-Iterations <==

   -------------------------------------------------------
    Irrep   Nso     Nmo     Nalpha   Nbeta   Ndocc  Nsocc
   -------------------------------------------------------
     A        192     192       0       0       0       0
   -------------------------------------------------------
    Total     192     192      23      23      23       0
   -------------------------------------------------------

 OEINTS: Wrapper to libmints.
   by Justin Turney

   Calculation information:
      Number of atoms:                  12
      Number of AO shells:              84
      Number of SO shells:              84
      Number of primitives:            192
      Number of atomic orbitals:       204
      Number of basis functions:       192

      Number of irreps:                  1
      Number of functions per irrep: [ 192 ]

      Overlap, kinetic, potential, dipole, and quadrupole integrals
        stored in file 35.

  ==> Integral Setup <==

  ==> DFJK: Density-Fitted J/K Matrices <==

    J tasked:                  Yes
    K tasked:                  Yes
    wK tasked:                  No
    OpenMP threads:              4
    Integrals threads:           4
    Memory (MB):              5006
    Algorithm:                Core
    Integral Cache:           SAVE
    Schwarz Cutoff:          0E+00
    Fitting Condition:       1E-12

   => Auxiliary Basis Set <=

  Basis Set: aug-cc-pvdz-jkfit
    Number of shells: 240
    Number of basis function: 708
    Number of Cartesian functions: 816
    Spherical Harmonics?: true
    Max angular momentum: 3

  Minimum eigenvalue in the overlap matrix is 1.8754942319E-05.
  Using Symmetric Orthogonalization.
  SCF Guess: Core (One-Electron) Hamiltonian.

  Guess energy:  -236.43617068296734

  ==> Iterations <==

                        Total Energy        Delta E     RMS |[F,P]|

   @RHF iter   1:  -237.50319537027403   -2.37503e+02   4.18097e-02 
   @RHF iter   2:  -123.88875295156444    1.13614e+02   5.89380e-02 DIIS
   @RHF iter   3:  -244.73932422004739   -1.20851e+02   3.71448e-02 DIIS
   @RHF iter   4:  -251.28417856307814   -6.54485e+00   3.65245e-02 DIIS
   @RHF iter   5:  -299.73152926111152   -4.84474e+01   8.36806e-03 DIIS
   @RHF iter   6:  -300.62464413853911   -8.93115e-01   4.04303e-03 DIIS
   @RHF iter   7:  -300.87375564991851   -2.49112e-01   6.82746e-04 DIIS
   @RHF iter   8:  -300.88443338694378   -1.06777e-02   2.74115e-04 DIIS
   @RHF iter   9:  -300.88658329662746   -2.14991e-03   1.12092e-04 DIIS
   @RHF iter  10:  -300.88716177090078   -5.78474e-04   3.98313e-05 DIIS
   @RHF iter  11:  -300.88727921766701   -1.17447e-04   1.45254e-05 DIIS
   @RHF iter  12:  -300.88729688729165   -1.76696e-05   7.24819e-06 DIIS
   @RHF iter  13:  -300.88730014783437   -3.26054e-06   2.29697e-06 DIIS
   @RHF iter  14:  -300.88730047090405   -3.23070e-07   7.04582e-07 DIIS
   @RHF iter  15:  -300.88730049951653   -2.86125e-08   2.14048e-07 DIIS
   @RHF iter  16:  -300.88730050201104   -2.49452e-09   9.05192e-08 DIIS
   @RHF iter  17:  -300.88730050256220   -5.51154e-10   3.68217e-08 DIIS
   @RHF iter  18:  -300.88730050266918   -1.06979e-10   1.26413e-08 DIIS
   @RHF iter  19:  -300.88730050267986   -1.06866e-11   5.60171e-09 DIIS

  ==> Post-Iterations <==

	Orbital Energies (a.u.)
	-----------------------

	Doubly Occupied:                                                      

	   1A    -20.629408     2A    -15.591012     3A    -15.533698  
	   4A    -11.279329     5A    -11.244477     6A    -11.229267  
	   7A     -1.416998     8A     -1.319109     9A     -1.145663  
	  10A     -0.985413    11A     -0.817775    12A     -0.778418  
	  13A     -0.774069    14A     -0.745014    15A     -0.658441  
	  16A     -0.580637    17A     -0.572171    18A     -0.570301  
	  19A     -0.561424    20A     -0.548500    21A     -0.417562  
	  22A     -0.374852    23A     -0.297001  

	Virtual:                                                              

	  24A      0.013058    25A      0.043559    26A      0.046036  
	  27A      0.051836    28A      0.062227    29A      0.083353  
	  30A      0.105055    31A      0.109307    32A      0.133961  
	  33A      0.135751    34A      0.142688    35A      0.152259  
	  36A      0.153092    37A      0.163665    38A      0.168936  
	  39A      0.179901    40A      0.185703    41A      0.192170  
	  42A      0.210874    43A      0.220307    44A      0.229446  
	  45A      0.232019    46A      0.247802    47A      0.258766  
	  48A      0.262667    49A      0.273629    50A      0.285024  
	  51A      0.288004    52A      0.322974    53A      0.324160  
	  54A      0.330548    55A      0.343071    56A      0.360857  
	  57A      0.361243    58A      0.375146    59A      0.397180  
	  60A      0.403698    61A      0.412476    62A      0.416174  
	  63A      0.428037    64A      0.442148    65A      0.466418  
	  66A      0.467726    67A      0.493218    68A      0.495495  
	  69A      0.509683    70A      0.525585    71A      0.528776  
	  72A      0.554496    73A      0.558768    74A      0.571841  
	  75A      0.582223    76A      0.593206    77A      0.612428  
	  78A      0.617476    79A      0.632588    80A      0.640011  
	  81A      0.645043    82A      0.653541    83A      0.676105  
	  84A      0.687631    85A      0.687651    86A      0.696279  
	  87A      0.714327    88A      0.743501    89A      0.755303  
	  90A      0.759616    91A      0.781406    92A      0.781410  
	  93A      0.805501    94A      0.851365    95A      0.871633  
	  96A      0.874792    97A      0.882630    98A      0.886827  
	  99A      0.908493   100A      0.910140   101A      0.948713  
	 102A      0.970323   103A      0.972600   104A      1.020699  
	 105A      1.030542   106A      1.041063   107A      1.050037  
	 108A      1.056024   109A      1.096514   110A      1.101462  
	 111A      1.147591   112A      1.149048   113A      1.173763  
	 114A      1.181164   115A      1.188145   116A      1.238573  
	 117A      1.241671   118A      1.294118   119A      1.329621  
	 120A      1.359444   121A      1.382382   122A      1.428049  
	 123A      1.464007   124A      1.486923   125A      1.505267  
	 126A      1.556334   127A      1.591947   128A      1.594469  
	 129A      1.603619   130A      1.634127   131A      1.677383  
	 132A      1.688863   133A      1.709485   134A      1.729649  
	 135A      1.743736   136A      1.803323   137A      1.826136  
	 138A      1.829000   139A      1.912638   140A      1.931674  
	 141A      1.971441   142A      1.974929   143A      1.985595  
	 144A      2.011515   145A      2.044353   146A      2.086620  
	 147A      2.096747   148A      2.119103   149A      2.136015  
	 150A      2.154057   151A      2.154086   152A      2.181572  
	 153A      2.225215   154A      2.259252   155A      2.289076  
	 156A      2.346075   157A      2.358877   158A      2.459525  
	 159A      2.503559   160A      2.514605   161A      2.539377  
	 162A      2.549635   163A      2.574711   164A      2.630648  
	 165A      2.638481   166A      2.701633   167A      2.768527  
	 168A      2.771966   169A      2.780032   170A      2.817535  
	 171A      2.845154   172A      2.847685   173A      2.925457  
	 174A      2.930299   175A      2.976096   176A      2.987350  
	 177A      3.037477   178A      3.064373   179A      3.088156  
	 180A      3.193152   181A      3.283814   182A      3.367867  
	 183A      3.386595   184A      3.467853   185A      3.552883  
	 186A      3.649210   187A      3.739259   188A      3.788186  
	 189A      3.875645   190A      4.050488   191A      4.269017  
	 192A      4.311722  

	Final Occupation by Irrep:
	          A 
	DOCC [    23 ]

  Energy converged.

  @RHF Final Energy:  -300.88730050267986

   => Energetics <=

    Nuclear Repulsion Energy =            224.5653894206926964
    One-Electron Energy =                -854.7643027224187335
    Two-Electron Energy =                 329.3116127990458040
    DFT Exchange-Correlation Energy =       0.0000000000000000
    Empirical Dispersion Energy =           0.0000000000000000
    Total Energy =                       -300.8873005026802616



Properties will be evaluated at   0.000000,   0.000000,   0.000000 Bohr
  ==> Properties <==


Properties computed using the SCF density density matrix
  Nuclear Dipole Moment: (a.u.)
     X:     4.4835      Y:    -2.8313      Z:     0.2219

  Electronic Dipole Moment: (a.u.)
     X:    -1.9377      Y:     1.5238      Z:    -0.1276

  Dipole Moment: (a.u.)
     X:     2.5458      Y:    -1.3075      Z:     0.0943     Total:     2.8635

  Dipole Moment: (Debye)
     X:     6.4709      Y:    -3.3233      Z:     0.2397     Total:     7.2783


  Saving occupied orbitals to File 180.

  Saving SAPT 2-DIMER file.

*** tstop() called on node145.bme.utexas.edu at Fri Aug 29 12:06:10 2014
Module time:
	user time   =      45.39 seconds =       0.76 minutes
	system time =       0.44 seconds =       0.01 minutes
	total time  =         12 seconds =       0.20 minutes
Total time:
	user time   =      45.39 seconds =       0.76 minutes
	system time =       0.44 seconds =       0.01 minutes
	total time  =         12 seconds =       0.20 minutes

  //>>>>>>>>>>>>>>>>>>>>>>>>>>>>>>>>>>>//
  //            Monomer A HF           //
  //<<<<<<<<<<<<<<<<<<<<<<<<<<<<<<<<<<<//


  No DF_BASIS_SCF auxiliary basis selected, defaulting to aug-cc-pvdz-jkfit


*** tstart() called on node145.bme.utexas.edu
*** at Fri Aug 29 12:06:10 2014


         ---------------------------------------------------------
                                   SCF
            by Justin Turney, Rob Parrish, and Andy Simmonett
                              RHF Reference
                        4 Threads,   7000 MiB Core
         ---------------------------------------------------------

  ==> Geometry <==

    Molecular point group: c1
    Full point group: C1

    Geometry (in Angstrom), charge = 0, multiplicity = 1:

       Center              X                  Y                   Z       
    ------------   -----------------  -----------------  -----------------
           C         -1.872120455243     0.015930255861     0.030499472083
           C         -0.838348455243    -0.891647744139     0.108515472083
           N          0.305036544757    -0.145320744139     0.010082472083
           C         -0.071855455243     1.154079255861    -0.120583527917
           N         -1.388914455243     1.291694255861    -0.112462527917
           H          1.254761544757    -0.494644744139     0.030622472083
           H         -2.928483455243    -0.184864744139     0.069856472083
           H         -0.817788455243    -1.960137744139     0.220937472083
           H          0.642518544757     1.953080255861    -0.217199527917
           O(Gh)      2.736059944757    -1.022710344139     0.060930472083
           H(Gh)      3.319988944757    -1.082793344139     0.819834472083
           H(Gh)      3.294184944757    -1.242005344139    -0.688017527917

  Running in c1 symmetry.

  Nuclear repulsion =  163.311236019440372

  Charge       = 0
  Multiplicity = 1
  Electrons    = 36
  Nalpha       = 18
  Nbeta        = 18

  ==> Algorithm <==

  SCF Algorithm Type is DF.
  DIIS enabled.
  MOM disabled.
  Fractional occupation disabled.
  Guess Type is CORE.
  Energy threshold   = 1.00e-08
  Density threshold  = 1.00e-08
  Integral threshold = 0.00e+00

  ==> Primary Basis <==

  Basis Set: AUG-CC-PVDZ
    Number of shells: 84
    Number of basis function: 192
    Number of Cartesian functions: 204
    Spherical Harmonics?: true
    Max angular momentum: 2

  ==> Pre-Iterations <==

   -------------------------------------------------------
    Irrep   Nso     Nmo     Nalpha   Nbeta   Ndocc  Nsocc
   -------------------------------------------------------
     A        192     192       0       0       0       0
   -------------------------------------------------------
    Total     192     192      18      18      18       0
   -------------------------------------------------------

 OEINTS: Wrapper to libmints.
   by Justin Turney

   Calculation information:
      Number of atoms:                  12
      Number of AO shells:              84
      Number of SO shells:              84
      Number of primitives:            192
      Number of atomic orbitals:       204
      Number of basis functions:       192

      Number of irreps:                  1
      Number of functions per irrep: [ 192 ]

      Overlap, kinetic, potential, dipole, and quadrupole integrals
        stored in file 35.

  ==> Integral Setup <==

  ==> DFJK: Density-Fitted J/K Matrices <==

    J tasked:                  Yes
    K tasked:                  Yes
    wK tasked:                  No
    OpenMP threads:              4
    Integrals threads:           4
    Memory (MB):              5006
    Algorithm:                Core
    Integral Cache:           LOAD
    Schwarz Cutoff:          0E+00
    Fitting Condition:       1E-12

   => Auxiliary Basis Set <=

  Basis Set: aug-cc-pvdz-jkfit
    Number of shells: 240
    Number of basis function: 708
    Number of Cartesian functions: 816
    Spherical Harmonics?: true
    Max angular momentum: 3

  Minimum eigenvalue in the overlap matrix is 1.8754942319E-05.
  Using Symmetric Orthogonalization.
  SCF Guess: Core (One-Electron) Hamiltonian.

  Guess energy:  -174.39233242528624

  ==> Iterations <==

                        Total Energy        Delta E     RMS |[F,P]|

   @RHF iter   1:  -191.62998475579545   -1.91630e+02   3.00048e-02 
   @RHF iter   2:  -168.59617224463588    2.30338e+01   2.56059e-02 DIIS
   @RHF iter   3:  -213.10532955881936   -4.45092e+01   2.30034e-02 DIIS
   @RHF iter   4:  -223.07939298219256   -9.97406e+00   9.18835e-03 DIIS
   @RHF iter   5:  -224.04055069657235   -9.61158e-01   6.10259e-03 DIIS
   @RHF iter   6:  -224.69315207771066   -6.52601e-01   2.46950e-03 DIIS
   @RHF iter   7:  -224.83700949436624   -1.43857e-01   6.72714e-04 DIIS
   @RHF iter   8:  -224.84572565920772   -8.71616e-03   2.06541e-04 DIIS
   @RHF iter   9:  -224.84664009566430   -9.14436e-04   4.70377e-05 DIIS
   @RHF iter  10:  -224.84670918759812   -6.90919e-05   2.15729e-05 DIIS
   @RHF iter  11:  -224.84672683226589   -1.76447e-05   8.00981e-06 DIIS
   @RHF iter  12:  -224.84673159790563   -4.76564e-06   2.96874e-06 DIIS
   @RHF iter  13:  -224.84673218478522   -5.86880e-07   6.33410e-07 DIIS
   @RHF iter  14:  -224.84673221578353   -3.09983e-08   2.42782e-07 DIIS
   @RHF iter  15:  -224.84673221896068   -3.17715e-09   9.68171e-08 DIIS
   @RHF iter  16:  -224.84673221939593   -4.35250e-10   2.87135e-08 DIIS
   @RHF iter  17:  -224.84673221945221   -5.62750e-11   1.06491e-08 DIIS
   @RHF iter  18:  -224.84673221945903   -6.82121e-12   3.43397e-09 DIIS

  ==> Post-Iterations <==

	Orbital Energies (a.u.)
	-----------------------

	Doubly Occupied:                                                      

	   1A    -15.633293     2A    -15.555977     3A    -11.304202  
	   4A    -11.267725     5A    -11.250657     6A     -1.346907  
	   7A     -1.171667     8A     -1.008798     9A     -0.832207  
	  10A     -0.803066    11A     -0.760500    12A     -0.610677  
	  13A     -0.603847    14A     -0.599728    15A     -0.570685  
	  16A     -0.439161    17A     -0.401296    18A     -0.318647  

	Virtual:                                                              

	  19A      0.019031    20A      0.040870    21A      0.048317  
	  22A      0.051656    23A      0.059017    24A      0.078210  
	  25A      0.098294    26A      0.098734    27A      0.117608  
	  28A      0.126901    29A      0.133166    30A      0.140151  
	  31A      0.141490    32A      0.155900    33A      0.163523  
	  34A      0.169644    35A      0.170165    36A      0.177763  
	  37A      0.199056    38A      0.199924    39A      0.214359  
	  40A      0.222743    41A      0.227585    42A      0.245578  
	  43A      0.266647    44A      0.270811    45A      0.274455  
	  46A      0.278665    47A      0.309014    48A      0.322971  
	  49A      0.333421    50A      0.342724    51A      0.369097  
	  52A      0.374827    53A      0.387700    54A      0.399958  
	  55A      0.405391    56A      0.407696    57A      0.413476  
	  58A      0.424216    59A      0.429873    60A      0.441945  
	  61A      0.453651    62A      0.472015    63A      0.475952  
	  64A      0.485688    65A      0.487345    66A      0.506524  
	  67A      0.530652    68A      0.549096    69A      0.560911  
	  70A      0.576665    71A      0.576913    72A      0.594226  
	  73A      0.596606    74A      0.608033    75A      0.622885  
	  76A      0.627816    77A      0.635632    78A      0.659058  
	  79A      0.671425    80A      0.677812    81A      0.689820  
	  82A      0.690151    83A      0.705354    84A      0.740204  
	  85A      0.759257    86A      0.762614    87A      0.763851  
	  88A      0.774585    89A      0.812190    90A      0.851423  
	  91A      0.858903    92A      0.860969    93A      0.890263  
	  94A      0.892035    95A      0.910848    96A      0.953918  
	  97A      0.973092    98A      1.010974    99A      1.018556  
	 100A      1.024460   101A      1.035024   102A      1.069196  
	 103A      1.089295   104A      1.109916   105A      1.121065  
	 106A      1.137658   107A      1.146747   108A      1.168349  
	 109A      1.198842   110A      1.204472   111A      1.217504  
	 112A      1.257318   113A      1.278508   114A      1.299611  
	 115A      1.322816   116A      1.327611   117A      1.364987  
	 118A      1.406701   119A      1.430209   120A      1.465947  
	 121A      1.503613   122A      1.550317   123A      1.572148  
	 124A      1.574235   125A      1.609984   126A      1.630115  
	 127A      1.641163   128A      1.653229   129A      1.689819  
	 130A      1.715461   131A      1.723500   132A      1.787709  
	 133A      1.806915   134A      1.807889   135A      1.889856  
	 136A      1.921457   137A      1.939691   138A      1.986786  
	 139A      2.034771   140A      2.055326   141A      2.068791  
	 142A      2.083868   143A      2.117649   144A      2.121615  
	 145A      2.163404   146A      2.168774   147A      2.237135  
	 148A      2.269932   149A      2.295528   150A      2.323448  
	 151A      2.352680   152A      2.440040   153A      2.479274  
	 154A      2.485631   155A      2.517742   156A      2.522565  
	 157A      2.534860   158A      2.573465   159A      2.596626  
	 160A      2.612404   161A      2.711416   162A      2.744242  
	 163A      2.748554   164A      2.784242   165A      2.811849  
	 166A      2.822937   167A      2.900242   168A      2.912237  
	 169A      2.978361   170A      3.012283   171A      3.035660  
	 172A      3.079335   173A      3.094888   174A      3.244847  
	 175A      3.323051   176A      3.350983   177A      3.369514  
	 178A      3.510437   179A      3.735832   180A      3.893118  
	 181A      4.075589   182A      4.102008   183A      4.216491  
	 184A      4.914752   185A      5.022170   186A      5.106574  
	 187A      5.296654   188A      5.371530   189A      5.754396  
	 190A      6.881384   191A      7.011505   192A     33.553026  

	Final Occupation by Irrep:
	          A 
	DOCC [    18 ]

  Energy converged.

  @RHF Final Energy:  -224.84673221945903

   => Energetics <=

    Nuclear Repulsion Energy =            163.3112360194403720
    One-Electron Energy =                -627.3578543069115767
    Two-Electron Energy =                 239.1998860680120060
    DFT Exchange-Correlation Energy =       0.0000000000000000
    Empirical Dispersion Energy =           0.0000000000000000
    Total Energy =                       -224.8467322194592271



Properties will be evaluated at   0.000000,   0.000000,   0.000000 Bohr
  ==> Properties <==


Properties computed using the SCF density density matrix
  Nuclear Dipole Moment: (a.u.)
     X:   -49.3787      Y:    17.0231      Z:    -0.9484

  Electronic Dipole Moment: (a.u.)
     X:    50.6124      Y:   -17.9417      Z:     1.0241

  Dipole Moment: (a.u.)
     X:     1.2337      Y:    -0.9186      Z:     0.0757     Total:     1.5400

  Dipole Moment: (Debye)
     X:     3.1358      Y:    -2.3348      Z:     0.1925     Total:     3.9143


  Saving occupied orbitals to File 180.

  Saving SAPT 2-MONOMER_A file.

*** tstop() called on node145.bme.utexas.edu at Fri Aug 29 12:06:19 2014
Module time:
	user time   =      34.22 seconds =       0.57 minutes
	system time =       0.29 seconds =       0.00 minutes
	total time  =          9 seconds =       0.15 minutes
Total time:
	user time   =      79.63 seconds =       1.33 minutes
	system time =       0.73 seconds =       0.01 minutes
	total time  =         21 seconds =       0.35 minutes

  //>>>>>>>>>>>>>>>>>>>>>>>>>>>>>>>>>>>//
  //            Monomer B HF           //
  //<<<<<<<<<<<<<<<<<<<<<<<<<<<<<<<<<<<//


  No DF_BASIS_SCF auxiliary basis selected, defaulting to aug-cc-pvdz-jkfit


*** tstart() called on node145.bme.utexas.edu
*** at Fri Aug 29 12:06:19 2014


         ---------------------------------------------------------
                                   SCF
            by Justin Turney, Rob Parrish, and Andy Simmonett
                              RHF Reference
                        4 Threads,   7000 MiB Core
         ---------------------------------------------------------

  ==> Geometry <==

    Molecular point group: c1
    Full point group: C1

    Geometry (in Angstrom), charge = 0, multiplicity = 1:

       Center              X                  Y                   Z       
    ------------   -----------------  -----------------  -----------------
           C(Gh)     -1.872120455243     0.015930255861     0.030499472083
           C(Gh)     -0.838348455243    -0.891647744139     0.108515472083
           N(Gh)      0.305036544757    -0.145320744139     0.010082472083
           C(Gh)     -0.071855455243     1.154079255861    -0.120583527917
           N(Gh)     -1.388914455243     1.291694255861    -0.112462527917
           H(Gh)      1.254761544757    -0.494644744139     0.030622472083
           H(Gh)     -2.928483455243    -0.184864744139     0.069856472083
           H(Gh)     -0.817788455243    -1.960137744139     0.220937472083
           H(Gh)      0.642518544757     1.953080255861    -0.217199527917
           O          2.736059944757    -1.022710344139     0.060930472083
           H          3.319988944757    -1.082793344139     0.819834472083
           H          3.294184944757    -1.242005344139    -0.688017527917

  Running in c1 symmetry.

  Nuclear repulsion =    9.173760872145710

  Charge       = 0
  Multiplicity = 1
  Electrons    = 10
  Nalpha       = 5
  Nbeta        = 5

  ==> Algorithm <==

  SCF Algorithm Type is DF.
  DIIS enabled.
  MOM disabled.
  Fractional occupation disabled.
  Guess Type is CORE.
  Energy threshold   = 1.00e-08
  Density threshold  = 1.00e-08
  Integral threshold = 0.00e+00

  ==> Primary Basis <==

  Basis Set: AUG-CC-PVDZ
    Number of shells: 84
    Number of basis function: 192
    Number of Cartesian functions: 204
    Spherical Harmonics?: true
    Max angular momentum: 2

  ==> Pre-Iterations <==

   -------------------------------------------------------
    Irrep   Nso     Nmo     Nalpha   Nbeta   Ndocc  Nsocc
   -------------------------------------------------------
     A        192     192       0       0       0       0
   -------------------------------------------------------
    Total     192     192       5       5       5       0
   -------------------------------------------------------

 OEINTS: Wrapper to libmints.
   by Justin Turney

   Calculation information:
      Number of atoms:                  12
      Number of AO shells:              84
      Number of SO shells:              84
      Number of primitives:            192
      Number of atomic orbitals:       204
      Number of basis functions:       192

      Number of irreps:                  1
      Number of functions per irrep: [ 192 ]

      Overlap, kinetic, potential, dipole, and quadrupole integrals
        stored in file 35.

  ==> Integral Setup <==

  ==> DFJK: Density-Fitted J/K Matrices <==

    J tasked:                  Yes
    K tasked:                  Yes
    wK tasked:                  No
    OpenMP threads:              4
    Integrals threads:           4
    Memory (MB):              5006
    Algorithm:                Core
    Integral Cache:           LOAD
    Schwarz Cutoff:          0E+00
    Fitting Condition:       1E-12

   => Auxiliary Basis Set <=

  Basis Set: aug-cc-pvdz-jkfit
    Number of shells: 240
    Number of basis function: 708
    Number of Cartesian functions: 816
    Spherical Harmonics?: true
    Max angular momentum: 3

  Minimum eigenvalue in the overlap matrix is 1.8754942319E-05.
  Using Symmetric Orthogonalization.
  SCF Guess: Core (One-Electron) Hamiltonian.

  Guess energy:   -58.70301473052088

  ==> Iterations <==

                        Total Energy        Delta E     RMS |[F,P]|

   @RHF iter   1:   -68.26451608791049   -6.82645e+01   1.82827e-02 
   @RHF iter   2:   -64.87391983688514    3.39060e+00   1.35788e-02 DIIS
   @RHF iter   3:   -74.95785319958452   -1.00839e+01   8.64011e-03 DIIS
   @RHF iter   4:   -75.81762460159608   -8.59771e-01   3.77455e-03 DIIS
   @RHF iter   5:   -76.04047031775274   -2.22846e-01   3.22126e-04 DIIS
   @RHF iter   6:   -76.04171374792664   -1.24343e-03   1.44038e-04 DIIS
   @RHF iter   7:   -76.04197524937881   -2.61501e-04   1.63530e-05 DIIS
   @RHF iter   8:   -76.04198014959439   -4.90022e-06   2.81985e-06 DIIS
   @RHF iter   9:   -76.04198038087402   -2.31280e-07   6.09608e-07 DIIS
   @RHF iter  10:   -76.04198038918389   -8.30987e-09   1.24730e-07 DIIS
   @RHF iter  11:   -76.04198038953427   -3.50383e-10   9.63555e-09 DIIS

  ==> Post-Iterations <==

	Orbital Energies (a.u.)
	-----------------------

	Doubly Occupied:                                                      

	   1A    -20.577792     2A     -1.355456     3A     -0.717710  
	   4A     -0.585089     5A     -0.508935  

	Virtual:                                                              

	   6A      0.026005     7A      0.036918     8A      0.046245  
	   9A      0.055843    10A      0.059314    11A      0.086756  
	  12A      0.089479    13A      0.096104    14A      0.113217  
	  15A      0.131596    16A      0.134642    17A      0.139836  
	  18A      0.140155    19A      0.141105    20A      0.156616  
	  21A      0.163184    22A      0.182513    23A      0.214474  
	  24A      0.219631    25A      0.220151    26A      0.221210  
	  27A      0.225162    28A      0.243382    29A      0.245909  
	  30A      0.255165    31A      0.278608    32A      0.293707  
	  33A      0.309885    34A      0.315902    35A      0.337634  
	  36A      0.339661    37A      0.366373    38A      0.368828  
	  39A      0.378823    40A      0.386255    41A      0.392587  
	  42A      0.410038    43A      0.450441    44A      0.452791  
	  45A      0.457620    46A      0.469920    47A      0.489652  
	  48A      0.501287    49A      0.514787    50A      0.523924  
	  51A      0.524974    52A      0.549365    53A      0.559892  
	  54A      0.560936    55A      0.562258    56A      0.567022  
	  57A      0.592316    58A      0.597155    59A      0.614409  
	  60A      0.623841    61A      0.643086    62A      0.647789  
	  63A      0.662991    64A      0.686266    65A      0.688850  
	  66A      0.700035    67A      0.706345    68A      0.720071  
	  69A      0.757697    70A      0.790812    71A      0.806279  
	  72A      0.820323    73A      0.834568    74A      0.839220  
	  75A      0.851901    76A      0.853013    77A      0.880846  
	  78A      0.905679    79A      0.915701    80A      0.945634  
	  81A      0.976698    82A      0.979838    83A      1.002221  
	  84A      1.016608    85A      1.028350    86A      1.031796  
	  87A      1.087210    88A      1.101244    89A      1.135425  
	  90A      1.143738    91A      1.179555    92A      1.194172  
	  93A      1.213039    94A      1.213297    95A      1.217133  
	  96A      1.229019    97A      1.268253    98A      1.297826  
	  99A      1.311627   100A      1.317757   101A      1.353283  
	 102A      1.364957   103A      1.388858   104A      1.390790  
	 105A      1.421491   106A      1.462918   107A      1.546687  
	 108A      1.573017   109A      1.617558   110A      1.625883  
	 111A      1.688367   112A      1.760337   113A      2.020107  
	 114A      2.044105   115A      2.090692   116A      2.124516  
	 117A      2.124998   118A      2.142280   119A      2.146809  
	 120A      2.165121   121A      2.170469   122A      2.194774  
	 123A      2.282699   124A      2.325118   125A      2.341394  
	 126A      2.372673   127A      2.400282   128A      2.449586  
	 129A      2.472117   130A      2.478600   131A      2.504887  
	 132A      2.524917   133A      2.549604   134A      2.573583  
	 135A      2.581406   136A      2.614569   137A      2.614590  
	 138A      2.676465   139A      2.754990   140A      2.819228  
	 141A      2.849741   142A      2.904671   143A      2.925156  
	 144A      2.967448   145A      3.003613   146A      3.039984  
	 147A      3.079135   148A      3.104895   149A      3.167349  
	 150A      3.190917   151A      3.196510   152A      3.207939  
	 153A      3.252345   154A      3.379753   155A      3.389502  
	 156A      3.470229   157A      3.542806   158A      3.584125  
	 159A      3.612822   160A      3.652538   161A      3.703210  
	 162A      3.752649   163A      3.753054   164A      3.832857  
	 165A      3.854359   166A      3.858470   167A      3.905097  
	 168A      3.905735   169A      3.939181   170A      4.063761  
	 171A      4.112976   172A      4.303942   173A      4.371231  
	 174A      4.672656   175A      4.685117   176A      4.702431  
	 177A      4.793574   178A      4.959074   179A      5.080080  
	 180A      5.271803   181A      5.358297   182A      5.483584  
	 183A      5.634283   184A      5.795086   185A      5.881037  
	 186A      6.181885   187A      6.554527   188A     18.278128  
	 189A     18.615462   190A     19.354022   191A     25.325202  
	 192A     25.518512  

	Final Occupation by Irrep:
	          A 
	DOCC [     5 ]

  Energy converged.

  @RHF Final Energy:   -76.04198038953427

   => Energetics <=

    Nuclear Repulsion Energy =              9.1737608721457100
    One-Electron Energy =                -122.9415114662976123
    Two-Electron Energy =                  37.7257702046177457
    DFT Exchange-Correlation Energy =       0.0000000000000000
    Empirical Dispersion Energy =           0.0000000000000000
    Total Energy =                        -76.0419803895341602



Properties will be evaluated at   0.000000,   0.000000,   0.000000 Bohr
  ==> Properties <==


Properties computed using the SCF density density matrix
  Nuclear Dipole Moment: (a.u.)
     X:    53.8622      Y:   -19.8544      Z:     1.1702

  Electronic Dipole Moment: (a.u.)
     X:   -53.1027      Y:    19.6689      Z:    -1.1636

  Dipole Moment: (a.u.)
     X:     0.7595      Y:    -0.1855      Z:     0.0066     Total:     0.7819

  Dipole Moment: (Debye)
     X:     1.9306      Y:    -0.4714      Z:     0.0167     Total:     1.9874


  Saving occupied orbitals to File 180.

  Saving SAPT 2-MONOMER_B file.

*** tstop() called on node145.bme.utexas.edu at Fri Aug 29 12:06:25 2014
Module time:
	user time   =      19.16 seconds =       0.32 minutes
	system time =       0.20 seconds =       0.00 minutes
	total time  =          6 seconds =       0.10 minutes
Total time:
	user time   =      98.87 seconds =       1.65 minutes
	system time =       0.93 seconds =       0.02 minutes
	total time  =         27 seconds =       0.45 minutes
  No DF_BASIS_SAPT auxiliary basis selected, defaulting to aug-cc-pvdz-ri

  //>>>>>>>>>>>>>>>>>>>>>>>>>>>>>>>>>>>//
  //               SAPT2+              //
  //<<<<<<<<<<<<<<<<<<<<<<<<<<<<<<<<<<<//


*** tstart() called on node145.bme.utexas.edu
*** at Fri Aug 29 12:06:25 2014

        SAPT2+  
    Ed Hohenstein
     6 June 2009

      Orbital Information
  --------------------------
    NSO        =       192
    NMO        =       192
    NRI        =       570
    NOCC A     =        18
    NOCC B     =         5
    FOCC A     =         5
    FOCC B     =         1
    NVIR A     =       174
    NVIR B     =       187

    Estimated memory usage: 431.4 MB

    Elst10,r            =    -0.028177259602 H
    Exch10 (S^2)        =     0.041285801457 H
    Exch10              =     0.042301849553 H
    Ind20,r (A<-B)      =    -0.007113409837 H
    Ind20,r (B<-A)      =    -0.009895939619 H
    Ind20,r             =    -0.017009349457 H
    Exch-Ind20,r (A<-B) =     0.005802950668 H
    Exch-Ind20,r (B<-A) =     0.004429468476 H
    Exch-Ind20,r        =     0.010232419144 H
    Disp20              =    -0.009609965851 H
    Exch-Disp20         =     0.001964507410 H
    Elst12,r            =    -0.000035187602 H
    Exch11              =    -0.000186346701 H
    Exch12              =     0.004750249277 H
    Ind22               =    -0.002487135709 H
    Disp21              =     0.000915090033 H
    Disp22 (SDQ)        =    -0.000264157531 H

    (i =   1 of   4)         84 seconds
    (i =   2 of   4)        168 seconds
    (i =   3 of   4)        252 seconds
    (i =   4 of   4)        336 seconds

    Disp220 (T)         =    -0.000748027342 H

    (i =   1 of  13)         18 seconds
    (i =   2 of  13)         36 seconds
    (i =   3 of  13)         54 seconds
    (i =   4 of  13)         73 seconds
    (i =   5 of  13)         91 seconds
    (i =   6 of  13)        109 seconds
    (i =   7 of  13)        127 seconds
    (i =   8 of  13)        146 seconds
    (i =   9 of  13)        164 seconds
    (i =  10 of  13)        182 seconds
    (i =  11 of  13)        201 seconds
    (i =  12 of  13)        219 seconds
    (i =  13 of  13)        237 seconds

    Disp202 (T)         =    -0.000656576245 H

    Disp22 (T)          =    -0.001404603587 H

    SAPT Results  
  -----------------------------------------------------------------------
    Electrostatics         -28.21244720 mH     -17.70357864 kcal mol^-1
      Elst10,r             -28.17725960 mH     -17.68149808 kcal mol^-1
      Elst12,r              -0.03518760 mH      -0.02208055 kcal mol^-1

    Exchange                46.86575213 mH      29.40870469 kcal mol^-1
      Exch10                42.30184955 mH      26.54481246 kcal mol^-1
      Exch10(S^2)           41.28580146 mH      25.90723263 kcal mol^-1
[...]
Module time:
	user time   =      15.18 seconds =       0.25 minutes
	system time =       0.77 seconds =       0.01 minutes
	total time  =          2 seconds =       0.03 minutes
Total time:
	user time   =      39.93 seconds =       0.67 minutes
	system time =       1.91 seconds =       0.03 minutes
	total time  =          7 seconds =       0.12 minutes

  //>>>>>>>>>>>>>>>>>>>>>>>>>>>>>>>>>>>//
  //            Monomer B HF           //
  //<<<<<<<<<<<<<<<<<<<<<<<<<<<<<<<<<<<//


*** tstart() called on node99.bme.utexas.edu
*** at Thu Apr 23 17:17:41 2020

   => Loading Basis Set <=

    Name: AUG-CC-PVDZ
    Role: ORBITAL
    Keyword: BASIS
    atoms 1-2, 4     entry C          line   182 file /home/liuchw/anaconda3/envs/psi4env/share/psi4/basis/aug-cc-pvdz.gbs 
    atoms 3, 5       entry N          line   218 file /home/liuchw/anaconda3/envs/psi4env/share/psi4/basis/aug-cc-pvdz.gbs 
    atoms 6-9, 11-12 entry H          line    40 file /home/liuchw/anaconda3/envs/psi4env/share/psi4/basis/aug-cc-pvdz.gbs 
    atoms 10         entry O          line   254 file /home/liuchw/anaconda3/envs/psi4env/share/psi4/basis/aug-cc-pvdz.gbs 


         ---------------------------------------------------------
                                   SCF
               by Justin Turney, Rob Parrish, Andy Simmonett
                          and Daniel G. A. Smith
                              RHF Reference
                        8 Threads,  19073 MiB Core
         ---------------------------------------------------------

  ==> Geometry <==

    Molecular point group: c1
    Full point group: C1

    Geometry (in Angstrom), charge = 0, multiplicity = 1:

       Center              X                  Y                   Z               Mass       
    ------------   -----------------  -----------------  -----------------  -----------------
      Gh(C)          -2.298433969859     0.167909573260     0.021779489485    12.000000000000
      Gh(C)          -1.264663969859    -0.739670426740     0.099789489485    12.000000000000
      Gh(N)          -0.121273969859     0.006659573260     0.001359489485    14.003074004430
      Gh(C)          -0.498173969859     1.306059573260    -0.129310510515    12.000000000000
      Gh(N)          -1.815233969859     1.443669573260    -0.121190510515    14.003074004430
      Gh(H)           0.828446030141    -0.342670426740     0.021899489485     1.007825032230
      Gh(H)          -3.354793969859    -0.032890426740     0.061129489485     1.007825032230
      Gh(H)          -1.244103969859    -1.808160426740     0.212219489485     1.007825032230
      Gh(H)           0.216206030141     2.105059573260    -0.225920510515     1.007825032230
         O            4.346526030141    -1.596830426740     0.093889489485    15.994914619570
         H            4.930456030141    -1.656910426740     0.852789489485     1.007825032230
         H            4.904656030141    -1.816120426740    -0.655060510515     1.007825032230

  Running in c1 symmetry.

  Rotational constants: A =      0.31856  B =      0.03021  C =      0.02770 [cm^-1]
  Rotational constants: A =   9550.14254  B =    905.74398  C =    830.43420 [MHz]
  Nuclear repulsion =    9.173758744885674

  Charge       = 0
  Multiplicity = 1
  Electrons    = 10
  Nalpha       = 5
  Nbeta        = 5

  ==> Algorithm <==

  SCF Algorithm Type is DF.
  DIIS enabled.
  MOM disabled.
  Fractional occupation disabled.
  Guess Type is SAD.
  Energy threshold   = 1.00e-08
  Density threshold  = 1.00e-08
  Integral threshold = 0.00e+00

  ==> Primary Basis <==

  Basis Set: AUG-CC-PVDZ
    Blend: AUG-CC-PVDZ
    Number of shells: 84
    Number of basis function: 192
    Number of Cartesian functions: 204
    Spherical Harmonics?: true
    Max angular momentum: 2

   => Loading Basis Set <=

    Name: (AUG-CC-PVDZ AUX)
    Role: JKFIT
    Keyword: DF_BASIS_SCF
    atoms 1-2, 4     entry C          line   154 file /home/liuchw/anaconda3/envs/psi4env/share/psi4/basis/aug-cc-pvdz-jkfit.gbs 
    atoms 3, 5       entry N          line   212 file /home/liuchw/anaconda3/envs/psi4env/share/psi4/basis/aug-cc-pvdz-jkfit.gbs 
    atoms 6-9, 11-12 entry H          line    70 file /home/liuchw/anaconda3/envs/psi4env/share/psi4/basis/aug-cc-pvdz-jkfit.gbs 
    atoms 10         entry O          line   270 file /home/liuchw/anaconda3/envs/psi4env/share/psi4/basis/aug-cc-pvdz-jkfit.gbs 

  ==> Pre-Iterations <==

   -------------------------------------------------------
    Irrep   Nso     Nmo     Nalpha   Nbeta   Ndocc  Nsocc
   -------------------------------------------------------
     A        192     192       0       0       0       0
   -------------------------------------------------------
    Total     192     192       5       5       5       0
   -------------------------------------------------------

  ==> Integral Setup <==

  ==> DiskDFJK: Density-Fitted J/K Matrices <==

    J tasked:                  Yes
    K tasked:                  Yes
    wK tasked:                  No
    OpenMP threads:              8
    Integrals threads:           8
    Memory [MiB]:            14305
    Algorithm:                Core
    Integral Cache:           LOAD
    Schwarz Cutoff:          1E-12
    Fitting Condition:       1E-10

   => Auxiliary Basis Set <=

  Basis Set: (AUG-CC-PVDZ AUX)
    Blend: AUG-CC-PVDZ-JKFIT
    Number of shells: 240
    Number of basis function: 708
    Number of Cartesian functions: 816
    Spherical Harmonics?: true
    Max angular momentum: 3

  Minimum eigenvalue in the overlap matrix is 2.2328237091E-05.
  Using Symmetric Orthogonalization.

  SCF Guess: Superposition of Atomic Densities via on-the-fly atomic UHF.

  ==> Iterations <==

                           Total Energy        Delta E     RMS |[F,P]|

   @DF-RHF iter SAD:   -75.46364343536860   -7.54636e+01   0.00000e+00 
   @DF-RHF iter   1:   -75.95714524464952   -4.93502e-01   2.35974e-03 DIIS
   @DF-RHF iter   2:   -76.01034069450473   -5.31954e-02   1.54022e-03 DIIS
   @DF-RHF iter   3:   -76.04093081856732   -3.05901e-02   1.10629e-04 DIIS
   @DF-RHF iter   4:   -76.04130842079034   -3.77602e-04   2.48112e-05 DIIS
   @DF-RHF iter   5:   -76.04132970989770   -2.12891e-05   5.59821e-06 DIIS
   @DF-RHF iter   6:   -76.04133139470125   -1.68480e-06   1.12878e-06 DIIS
   @DF-RHF iter   7:   -76.04133146744203   -7.27408e-08   1.88415e-07 DIIS
   @DF-RHF iter   8:   -76.04133146931051   -1.86847e-09   2.91513e-08 DIIS
   @DF-RHF iter   9:   -76.04133146935008   -3.95772e-11   7.58935e-09 DIIS
  Energy and wave function converged.


  ==> Post-Iterations <==

    Orbital Energies [Eh]
    ---------------------

    Doubly Occupied:                                                      

       1A    -20.577695     2A     -1.355604     3A     -0.717938  
       4A     -0.585410     5A     -0.509288  

    Virtual:                                                              

       6A      0.026489     7A      0.035338     8A      0.045163  
       9A      0.053960    10A      0.056937    11A      0.082877  
      12A      0.083963    13A      0.091876    14A      0.109041  
      15A      0.129747    16A      0.131838    17A      0.132201  
      18A      0.133524    19A      0.137789    20A      0.152391  
      21A      0.160926    22A      0.194599    23A      0.204515  
      24A      0.206967    25A      0.211880    26A      0.216248  
      27A      0.221597    28A      0.221777    29A      0.234845  
      30A      0.240562    31A      0.246978    32A      0.280531  
      33A      0.294648    34A      0.300051    35A      0.306687  
      36A      0.316777    37A      0.329572    38A      0.363036  
      39A      0.372243    40A      0.383383    41A      0.385733  
      42A      0.401884    43A      0.423884    44A      0.442212  
      45A      0.447076    46A      0.457117    47A      0.460365  
      48A      0.463339    49A      0.469306    50A      0.482161  
      51A      0.498435    52A      0.521809    53A      0.537328  
      54A      0.539597    55A      0.551605    56A      0.555229  
      57A      0.561043    58A      0.590575    59A      0.591317  
      60A      0.605323    61A      0.613050    62A      0.624676  
      63A      0.631147    64A      0.646184    65A      0.670188  
      66A      0.670490    67A      0.689576    68A      0.706541  
      69A      0.742227    70A      0.745819    71A      0.770312  
      72A      0.808718    73A      0.812463    74A      0.820876  
      75A      0.824604    76A      0.829691    77A      0.840697  
      78A      0.867527    79A      0.895052    80A      0.926169  
      81A      0.930822    82A      0.935311    83A      0.944998  
      84A      0.988586    85A      0.994992    86A      1.018210  
      87A      1.073731    88A      1.087512    89A      1.109267  
      90A      1.117090    91A      1.132026    92A      1.148206  
      93A      1.149624    94A      1.174635    95A      1.184032  
      96A      1.184302    97A      1.203524    98A      1.227532  
      99A      1.282470   100A      1.295778   101A      1.305893  
     102A      1.313420   103A      1.327938   104A      1.328214  
     105A      1.361074   106A      1.393125   107A      1.479181  
     108A      1.485417   109A      1.513896   110A      1.527553  
     111A      1.550101   112A      1.618639   113A      1.669345  
     114A      2.008703   115A      2.010933   116A      2.053265  
     117A      2.107095   118A      2.116920   119A      2.118596  
     120A      2.138861   121A      2.150617   122A      2.187820  
     123A      2.236936   124A      2.267582   125A      2.314275  
     126A      2.333439   127A      2.382707   128A      2.385021  
     129A      2.418460   130A      2.435857   131A      2.463117  
     132A      2.478934   133A      2.488206   134A      2.507761  
     135A      2.523632   136A      2.552425   137A      2.585452  
     138A      2.601973   139A      2.632960   140A      2.722191  
     141A      2.722482   142A      2.801886   143A      2.836090  
     144A      2.897340   145A      2.949700   146A      2.959204  
     147A      2.990406   148A      3.055756   149A      3.087767  
     150A      3.156759   151A      3.158454   152A      3.179049  
     153A      3.197281   154A      3.349139   155A      3.350354  
     156A      3.372320   157A      3.458638   158A      3.494409  
     159A      3.579193   160A      3.604185   161A      3.679869  
     162A      3.703029   163A      3.725422   164A      3.725764  
     165A      3.736524   166A      3.803138   167A      3.818811  
     168A      3.862609   169A      3.870975   170A      4.002376  
     171A      4.028354   172A      4.246995   173A      4.310380  
     174A      4.646464   175A      4.655668   176A      4.669178  
     177A      4.769692   178A      4.860014   179A      5.038160  
     180A      5.245585   181A      5.347949   182A      5.470386  
     183A      5.603489   184A      5.742702   185A      5.859053  
     186A      6.164687   187A      6.266002   188A     18.265976  
     189A     18.597635   190A     19.320723   191A     25.315839  
     192A     25.466805  

    Final Occupation by Irrep:
              A 
    DOCC [     5 ]

  @DF-RHF Final Energy:   -76.04133146935008

   => Energetics <=

    Nuclear Repulsion Energy =              9.1737587448856743
    One-Electron Energy =                -122.9383102298019423
    Two-Electron Energy =                  37.7232200155661843
    Total Energy =                        -76.0413314693500837

Computation Completed


Properties will be evaluated at   0.000000,   0.000000,   0.000000 [a0]

Properties computed using the SCF density matrix

  Nuclear Dipole Moment: [e a0]
     X:    84.2956      Y:   -30.7037      Z:     1.7931

  Electronic Dipole Moment: [e a0]
     X:   -83.5300      Y:    30.5165      Z:    -1.7864

  Dipole Moment: [e a0]
     X:     0.7656      Y:    -0.1871      Z:     0.0067     Total:     0.7882

  Dipole Moment: [D]
     X:     1.9461      Y:    -0.4756      Z:     0.0169     Total:     2.0034


*** tstop() called on node99.bme.utexas.edu at Thu Apr 23 17:17:43 2020
Module time:
	user time   =      11.13 seconds =       0.19 minutes
	system time =       0.61 seconds =       0.01 minutes
	total time  =          2 seconds =       0.03 minutes
Total time:
	user time   =      51.16 seconds =       0.85 minutes
	system time =       2.54 seconds =       0.04 minutes
	total time  =          9 seconds =       0.15 minutes
  Constructing Basis Sets for SAPT...

   => Loading Basis Set <=

    Name: (AUG-CC-PVDZ AUX)
    Role: RIFIT
    Keyword: DF_BASIS_SAPT
    atoms 1-2, 4     entry C          line   112 file /home/liuchw/anaconda3/envs/psi4env/share/psi4/basis/aug-cc-pvdz-ri.gbs 
    atoms 3, 5       entry N          line   158 file /home/liuchw/anaconda3/envs/psi4env/share/psi4/basis/aug-cc-pvdz-ri.gbs 
    atoms 6-9, 11-12 entry H          line    30 file /home/liuchw/anaconda3/envs/psi4env/share/psi4/basis/aug-cc-pvdz-ri.gbs 
    atoms 10         entry O          line   204 file /home/liuchw/anaconda3/envs/psi4env/share/psi4/basis/aug-cc-pvdz-ri.gbs 


  //>>>>>>>>>>>>>>>>>>>>>>>>>>>>>>>>>>>//
  //               SAPT2+              //
  //<<<<<<<<<<<<<<<<<<<<<<<<<<<<<<<<<<<//


*** tstart() called on node99.bme.utexas.edu
*** at Thu Apr 23 17:17:43 2020

        SAPT2+  
    Ed Hohenstein
     6 June 2009

      Orbital Information
  --------------------------
    NSO        =       192
    NMO        =       192
    NRI        =       570
    NOCC A     =        18
    NOCC B     =         5
    FOCC A     =         5
    FOCC B     =         1
    NVIR A     =       174
    NVIR B     =       187

    Estimated memory usage: 431.4 MB

    Natural Orbital Cutoff:   1.000E-06
    Disp(T3) Truncation:            Yes
    CCD (vv|vv) Truncation:         Yes
    MBPT T2 Truncation:             Yes

    Monomer A: 49 virtual orbitals dropped
    Monomer B: 152 virtual orbitals dropped

    Elst10,r            =    -0.002606860467 [Eh]
    Exch10 (S^2)        =     0.000011378844 [Eh]
    Exch10              =     0.000011379003 [Eh]
    Ind20,r (A<-B)      =    -0.000051901278 [Eh]
    Ind20,r (B<-A)      =    -0.000048607760 [Eh]
    Ind20,r             =    -0.000100509039 [Eh]
    Exch-Ind20,r (A<-B) =     0.000000300910 [Eh]
    Exch-Ind20,r (B<-A) =     0.000000920997 [Eh]
    Exch-Ind20,r        =     0.000001221907 [Eh]
    Disp20              =    -0.000192304863 [Eh]
    Disp20 (NO)         =    -0.000186625758 [Eh]
    Exch-Disp20         =     0.000001247383 [Eh]
    Elst12,r            =     0.000201887649 [Eh]
    Exch11              =    -0.000000629209 [Eh]
    Exch12              =     0.000005760878 [Eh]
    Ind22               =    -0.000000769131 [Eh]
    Disp21              =     0.000025750620 [Eh]
    Disp22 (SDQ)        =    -0.000007100337 [Eh]

    (i =   1 of   4)          1 seconds
    (i =   2 of   4)          3 seconds
    (i =   3 of   4)          4 seconds
    (i =   4 of   4)          6 seconds

    Disp220 (T)         =    -0.000018836220 [Eh]

    (i =   1 of  13)          0 seconds
    (i =   2 of  13)          0 seconds
    (i =   3 of  13)          0 seconds
    (i =   4 of  13)          0 seconds
    (i =   5 of  13)          0 seconds
    (i =   6 of  13)          0 seconds
    (i =   7 of  13)          0 seconds
    (i =   8 of  13)          0 seconds
    (i =   9 of  13)          0 seconds
    (i =  10 of  13)          0 seconds
    (i =  11 of  13)          0 seconds
    (i =  12 of  13)          0 seconds
    (i =  13 of  13)          1 seconds

    Disp202 (T)         =    -0.000016186984 [Eh]

    Disp22 (T)          =    -0.000035023204 [Eh]

    Est. Disp220 (T)    =    -0.000019409414 [Eh]
    Est. Disp202 (T)    =    -0.000016679561 [Eh]

    Est. Disp22 (T)     =    -0.000036088975 [Eh]

    SAPT Results 
  --------------------------------------------------------------------------------------------------------
    Electrostatics                 -2.40497282 [mEh]      -1.50914323 [kcal/mol]      -6.31425526 [kJ/mol]
      Elst10,r                     -2.60686047 [mEh]      -1.63582964 [kcal/mol]      -6.84431121 [kJ/mol]
      Elst12,r                      0.20188765 [mEh]       0.12668641 [kcal/mol]       0.53005595 [kJ/mol]

    Exchange                        0.01651067 [mEh]       0.01036060 [kcal/mol]       0.04334876 [kJ/mol]
      Exch10                        0.01137900 [mEh]       0.00714043 [kcal/mol]       0.02987557 [kJ/mol]
      Exch10(S^2)                   0.01137884 [mEh]       0.00714033 [kcal/mol]       0.02987515 [kJ/mol]
      Exch11(S^2)                  -0.00062921 [mEh]      -0.00039483 [kcal/mol]      -0.00165199 [kJ/mol]
      Exch12(S^2)                   0.00576088 [mEh]       0.00361501 [kcal/mol]       0.01512518 [kJ/mol]

    Induction                      -0.10663901 [mEh]      -0.06691699 [kcal/mol]      -0.27998069 [kJ/mol]
      Ind20,r                      -0.10050904 [mEh]      -0.06307037 [kcal/mol]      -0.26388645 [kJ/mol]
      Ind22                        -0.00076913 [mEh]      -0.00048264 [kcal/mol]      -0.00201935 [kJ/mol]
      Exch-Ind20,r                  0.00122191 [mEh]       0.00076676 [kcal/mol]       0.00320812 [kJ/mol]
      Exch-Ind22                    0.00000935 [mEh]       0.00000587 [kcal/mol]       0.00002455 [kJ/mol]
      delta HF,r (2)               -0.00659210 [mEh]      -0.00413660 [kcal/mol]      -0.01730755 [kJ/mol]

    Dispersion                     -0.20849617 [mEh]      -0.13083332 [kcal/mol]      -0.54740663 [kJ/mol]
      Disp20                       -0.19230486 [mEh]      -0.12067312 [kcal/mol]      -0.50489635 [kJ/mol]
      Disp21                        0.02575062 [mEh]       0.01615876 [kcal/mol]       0.06760824 [kJ/mol]
      Disp22 (SDQ)                 -0.00710034 [mEh]      -0.00445553 [kcal/mol]      -0.01864193 [kJ/mol]
      Disp22 (T)                   -0.03502320 [mEh]      -0.02197739 [kcal/mol]      -0.09195341 [kJ/mol]
      Est. Disp22 (T)              -0.03608898 [mEh]      -0.02264617 [kcal/mol]      -0.09475159 [kJ/mol]
      Exch-Disp20                   0.00124738 [mEh]       0.00078274 [kcal/mol]       0.00327500 [kJ/mol]

  Total HF                         -2.70136070 [mEh]      -1.69512943 [kcal/mol]      -7.09242153 [kJ/mol]
  Total SAPT0                      -2.89241818 [mEh]      -1.81501981 [kcal/mol]      -7.59404287 [kJ/mol]
  Total SAPT2                      -2.68615864 [mEh]      -1.68558999 [kcal/mol]      -7.05250854 [kJ/mol]
  Total SAPT2+                     -2.70359733 [mEh]      -1.69653294 [kcal/mol]      -7.09829382 [kJ/mol]

  Special recipe for scaled SAPT0 (see Manual):
    Electrostatics sSAPT0          -2.60686047 [mEh]      -1.63582964 [kcal/mol]      -6.84431121 [kJ/mol]
    Exchange sSAPT0                 0.01137900 [mEh]       0.00714043 [kcal/mol]       0.02987557 [kJ/mol]
    Induction sSAPT0               -0.10587918 [mEh]      -0.06644019 [kcal/mol]      -0.27798575 [kJ/mol]
    Dispersion sSAPT0              -0.19105743 [mEh]      -0.11989035 [kcal/mol]      -0.50162121 [kJ/mol]
  Total sSAPT0                     -2.89241807 [mEh]      -1.81501974 [kcal/mol]      -7.59404260 [kJ/mol]
  --------------------------------------------------------------------------------------------------------

*** tstop() called on node99.bme.utexas.edu at Thu Apr 23 17:18:09 2020
Module time:
	user time   =     188.87 seconds =       3.15 minutes
	system time =      10.58 seconds =       0.18 minutes
	total time  =         26 seconds =       0.43 minutes
Total time:
	user time   =     240.75 seconds =       4.01 minutes
	system time =      13.18 seconds =       0.22 minutes
	total time  =         35 seconds =       0.58 minutes

    Psi4 stopped on: Thursday, 23 April 2020 05:18PM
    Psi4 wall time for execution: 0:00:34.08

*** Psi4 exiting successfully. Buy a developer a beer!
