
    -----------------------------------------------------------------------
          Psi4: An Open-Source Ab Initio Electronic Structure Package
                               Psi4 1.4a2.dev224 

                         Git: Rev {master} e453b16 


    R. M. Parrish, L. A. Burns, D. G. A. Smith, A. C. Simmonett,
    A. E. DePrince III, E. G. Hohenstein, U. Bozkaya, A. Yu. Sokolov,
    R. Di Remigio, R. M. Richard, J. F. Gonthier, A. M. James,
    H. R. McAlexander, A. Kumar, M. Saitow, X. Wang, B. P. Pritchard,
    P. Verma, H. F. Schaefer III, K. Patkowski, R. A. King, E. F. Valeev,
    F. A. Evangelista, J. M. Turney, T. D. Crawford, and C. D. Sherrill,
    J. Chem. Theory Comput. 13(7) pp 3185--3197 (2017).
    (doi: 10.1021/acs.jctc.7b00174)


                         Additional Contributions by
    P. Kraus, H. Kruse, M. H. Lechner, M. C. Schieber, R. A. Shaw,
    A. Alenaizan, R. Galvelis, Z. L. Glick, S. Lehtola, and J. P. Misiewicz

    -----------------------------------------------------------------------


    Psi4 started on: Thursday, 23 April 2020 11:52AM

    Process ID: 59456
    Host:       node73.bme.utexas.edu
    PSIDATADIR: /home/liuchw/anaconda3/envs/psi4env/share/psi4
    Memory:     500.0 MiB
    Threads:    8
    
  ==> Input File <==

--------------------------------------------------------------------------
#Generated by lconvert.py for sapt job

memory 20 GB

molecule  {
0 1
  N      -2.266530    1.755160    0.352360
  C      -3.256290    0.724730    0.014240
  C      -2.422570   -0.289460   -0.775650
  C      -0.987250   -0.118690   -0.221530
  C      -1.119260    0.978990    0.839250
  H      -4.073720    1.148830   -0.565260
  H      -3.672930    0.252960    0.912840
  H      -2.802790   -1.300340   -0.649960
  H      -2.444770   -0.045290   -1.834260
  H      -0.590360   -1.037110    0.204170
  H      -0.318530    0.207680   -1.013410
  H      -1.319500    0.532970    1.821400
  H      -0.233290    1.605750    0.917350
  H      -2.617720    2.379590    1.069600
--
0 1
  O      -0.988730    2.952380   -3.326360
  H      -1.328800    2.860460   -2.417200
  H      -1.034040    3.893840   -3.499330
units angstrom
no_reorient
symmetry c1
}

set {
scf_type DF
basis aug-cc-pvdz
freeze_core True
guess SAD
}
energy('sapt2+')
--------------------------------------------------------------------------

  Memory set to  18.626 GiB by Python driver.

Scratch directory: /scratch/liuchw/

  //>>>>>>>>>>>>>>>>>>>>>>>>>>>>>>>>>>>//
  //              Dimer HF             //
  //<<<<<<<<<<<<<<<<<<<<<<<<<<<<<<<<<<<//


*** tstart() called on node73.bme.utexas.edu
*** at Thu Apr 23 11:52:50 2020

   => Loading Basis Set <=

    Name: AUG-CC-PVDZ
    Role: ORBITAL
    Keyword: BASIS
    atoms 1           entry N          line   218 file /home/liuchw/anaconda3/envs/psi4env/share/psi4/basis/aug-cc-pvdz.gbs 
    atoms 2-5         entry C          line   182 file /home/liuchw/anaconda3/envs/psi4env/share/psi4/basis/aug-cc-pvdz.gbs 
    atoms 6-14, 16-17 entry H          line    40 file /home/liuchw/anaconda3/envs/psi4env/share/psi4/basis/aug-cc-pvdz.gbs 
    atoms 15          entry O          line   254 file /home/liuchw/anaconda3/envs/psi4env/share/psi4/basis/aug-cc-pvdz.gbs 


         ---------------------------------------------------------
                                   SCF
               by Justin Turney, Rob Parrish, Andy Simmonett
                          and Daniel G. A. Smith
                              RHF Reference
                        8 Threads,  19073 MiB Core
         ---------------------------------------------------------

  ==> Geometry <==

    Molecular point group: c1
    Full point group: C1

    Geometry (in Angstrom), charge = 0, multiplicity = 1:

       Center              X                  Y                   Z               Mass       
    ------------   -----------------  -----------------  -----------------  -----------------
         N           -0.452806670383     0.655872038781     0.970749044683    14.003074004430
         C           -1.442566670383    -0.374557961219     0.632629044683    12.000000000000
         C           -0.608846670383    -1.388747961219    -0.157260955317    12.000000000000
         C            0.826473329617    -1.217977961219     0.396859044683    12.000000000000
         C            0.694463329617    -0.120297961219     1.457639044683    12.000000000000
         H           -2.259996670383     0.049542038781     0.053129044683     1.007825032230
         H           -1.859206670383    -0.846327961219     1.531229044683     1.007825032230
         H           -0.989066670383    -2.399627961219    -0.031570955317     1.007825032230
         H           -0.631046670383    -1.144577961219    -1.215870955317     1.007825032230
         H            1.223363329617    -2.136397961219     0.822559044683     1.007825032230
         H            1.495193329617    -0.891607961219    -0.395020955317     1.007825032230
         H            0.494223329617    -0.566317961219     2.439789044683     1.007825032230
         H            1.580433329617     0.506462038781     1.535739044683     1.007825032230
         H           -0.803996670383     1.280302038781     1.687989044683     1.007825032230
         O            0.824993329617     1.853092038781    -2.707970955317    15.994914619570
         H            0.484923329617     1.761172038781    -1.798810955317     1.007825032230
         H            0.779683329617     2.794552038781    -2.880940955317     1.007825032230

  Running in c1 symmetry.

  Rotational constants: A =      0.13085  B =      0.05096  C =      0.05073 [cm^-1]
  Rotational constants: A =   3922.66628  B =   1527.71445  C =   1520.76343 [MHz]
  Nuclear repulsion =  247.945217840320964

  Charge       = 0
  Multiplicity = 1
  Electrons    = 50
  Nalpha       = 25
  Nbeta        = 25

  ==> Algorithm <==

  SCF Algorithm Type is DF.
  DIIS enabled.
  MOM disabled.
  Fractional occupation disabled.
  Guess Type is SAD.
  Energy threshold   = 1.00e-08
  Density threshold  = 1.00e-08
  Integral threshold = 0.00e+00

  ==> Primary Basis <==

  Basis Set: AUG-CC-PVDZ
    Blend: AUG-CC-PVDZ
    Number of shells: 109
    Number of basis function: 237
    Number of Cartesian functions: 249
    Spherical Harmonics?: true
    Max angular momentum: 2

   => Loading Basis Set <=

    Name: (AUG-CC-PVDZ AUX)
    Role: JKFIT
    Keyword: DF_BASIS_SCF
    atoms 1           entry N          line   212 file /home/liuchw/anaconda3/envs/psi4env/share/psi4/basis/aug-cc-pvdz-jkfit.gbs 
    atoms 2-5         entry C          line   154 file /home/liuchw/anaconda3/envs/psi4env/share/psi4/basis/aug-cc-pvdz-jkfit.gbs 
    atoms 6-14, 16-17 entry H          line    70 file /home/liuchw/anaconda3/envs/psi4env/share/psi4/basis/aug-cc-pvdz-jkfit.gbs 
    atoms 15          entry O          line   270 file /home/liuchw/anaconda3/envs/psi4env/share/psi4/basis/aug-cc-pvdz-jkfit.gbs 

  ==> Pre-Iterations <==

   -------------------------------------------------------
    Irrep   Nso     Nmo     Nalpha   Nbeta   Ndocc  Nsocc
   -------------------------------------------------------
     A        237     237       0       0       0       0
   -------------------------------------------------------
    Total     237     237      25      25      25       0
   -------------------------------------------------------

  ==> Integral Setup <==

  ==> DiskDFJK: Density-Fitted J/K Matrices <==

    J tasked:                  Yes
    K tasked:                  Yes
    wK tasked:                  No
    OpenMP threads:              8
    Integrals threads:           8
    Memory [MiB]:            14305
    Algorithm:                Core
    Integral Cache:           SAVE
    Schwarz Cutoff:          1E-12
    Fitting Condition:       1E-10

   => Auxiliary Basis Set <=

  Basis Set: (AUG-CC-PVDZ AUX)
    Blend: AUG-CC-PVDZ-JKFIT
    Number of shells: 300
    Number of basis function: 868
    Number of Cartesian functions: 991
    Spherical Harmonics?: true
    Max angular momentum: 3

  Minimum eigenvalue in the overlap matrix is 1.0676551017E-05.
  Using Symmetric Orthogonalization.

  SCF Guess: Superposition of Atomic Densities via on-the-fly atomic UHF.

  ==> Iterations <==

                           Total Energy        Delta E     RMS |[F,P]|

   @DF-RHF iter SAD:  -286.52651211408011   -2.86527e+02   0.00000e+00 
   @DF-RHF iter   1:  -286.91504975611019   -3.88538e-01   3.15763e-03 DIIS
   @DF-RHF iter   2:  -287.12760818328820   -2.12558e-01   1.89903e-03 DIIS
   @DF-RHF iter   3:  -287.21491000752945   -8.73018e-02   2.43733e-04 DIIS
   @DF-RHF iter   4:  -287.21801999375435   -3.10999e-03   5.58551e-05 DIIS
   @DF-RHF iter   5:  -287.21815515590771   -1.35162e-04   1.94981e-05 DIIS
   @DF-RHF iter   6:  -287.21817124596771   -1.60901e-05   4.22186e-06 DIIS
   @DF-RHF iter   7:  -287.21817242194692   -1.17598e-06   8.51147e-07 DIIS
   @DF-RHF iter   8:  -287.21817246858808   -4.66412e-08   3.60609e-07 DIIS
   @DF-RHF iter   9:  -287.21817247433955   -5.75147e-09   9.37456e-08 DIIS
   @DF-RHF iter  10:  -287.21817247495659   -6.17035e-10   2.84825e-08 DIIS
   @DF-RHF iter  11:  -287.21817247500246   -4.58726e-11   7.71731e-09 DIIS
  Energy and wave function converged.


  ==> Post-Iterations <==

    Orbital Energies [Eh]
    ---------------------

    Doubly Occupied:                                                      

       1A    -20.565479     2A    -15.552869     3A    -11.250163  
       4A    -11.250144     5A    -11.220869     6A    -11.220313  
       7A     -1.339186     8A     -1.225323     9A     -1.026180  
      10A     -0.977118    11A     -0.811484    12A     -0.783861  
      13A     -0.700626    14A     -0.691499    15A     -0.661259  
      16A     -0.592206    17A     -0.572415    18A     -0.560733  
      19A     -0.514310    20A     -0.512138    21A     -0.496109  
      22A     -0.481973    23A     -0.473351    24A     -0.458325  
      25A     -0.377862  

    Virtual:                                                              

      26A      0.033097    27A      0.042176    28A      0.047748  
      29A      0.048318    30A      0.061834    31A      0.066254  
      32A      0.069829    33A      0.071498    34A      0.077537  
      35A      0.098411    36A      0.104073    37A      0.132699  
      38A      0.141713    39A      0.144794    40A      0.150199  
      41A      0.154437    42A      0.159324    43A      0.166288  
      44A      0.167521    45A      0.172591    46A      0.176863  
      47A      0.197319    48A      0.198509    49A      0.201147  
      50A      0.205350    51A      0.215091    52A      0.220282  
      53A      0.233681    54A      0.238172    55A      0.241141  
      56A      0.244564    57A      0.261415    58A      0.261498  
      59A      0.285794    60A      0.324266    61A      0.328224  
      62A      0.339859    63A      0.352217    64A      0.359191  
      65A      0.372195    66A      0.372373    67A      0.386099  
      68A      0.391988    69A      0.395827    70A      0.411218  
      71A      0.412248    72A      0.419994    73A      0.424223  
      74A      0.429453    75A      0.444673    76A      0.452708  
      77A      0.458987    78A      0.464478    79A      0.478550  
      80A      0.486306    81A      0.492588    82A      0.497069  
      83A      0.500763    84A      0.508992    85A      0.514662  
      86A      0.517473    87A      0.542379    88A      0.545445  
      89A      0.554559    90A      0.566585    91A      0.571597  
      92A      0.586331    93A      0.603426    94A      0.608517  
      95A      0.627802    96A      0.628661    97A      0.633743  
      98A      0.648149    99A      0.654513   100A      0.671141  
     101A      0.671564   102A      0.686571   103A      0.699161  
     104A      0.702087   105A      0.712350   106A      0.719043  
     107A      0.736870   108A      0.739843   109A      0.741775  
     110A      0.753544   111A      0.766344   112A      0.770962  
     113A      0.779016   114A      0.795657   115A      0.810558  
     116A      0.818015   117A      0.827023   118A      0.850723  
     119A      0.850740   120A      0.871794   121A      0.872567  
     122A      0.881666   123A      0.905836   124A      0.909956  
     125A      0.920896   126A      0.934204   127A      0.951912  
     128A      0.959619   129A      0.961382   130A      0.974701  
     131A      1.041951   132A      1.048444   133A      1.082890  
     134A      1.105750   135A      1.109158   136A      1.132318  
     137A      1.152051   138A      1.152787   139A      1.177224  
     140A      1.197538   141A      1.201691   142A      1.202063  
     143A      1.242777   144A      1.259334   145A      1.319480  
     146A      1.324542   147A      1.336569   148A      1.345313  
     149A      1.366580   150A      1.375891   151A      1.401882  
     152A      1.430754   153A      1.475079   154A      1.480431  
     155A      1.565187   156A      1.565221   157A      1.602653  
     158A      1.608017   159A      1.647968   160A      1.693985  
     161A      1.697502   162A      1.724778   163A      1.750795  
     164A      1.753465   165A      1.805839   166A      1.810935  
     167A      1.846117   168A      1.865850   169A      1.911344  
     170A      1.918231   171A      1.919821   172A      1.956351  
     173A      1.976276   174A      2.022805   175A      2.055280  
     176A      2.062194   177A      2.067797   178A      2.068862  
     179A      2.100691   180A      2.125002   181A      2.142345  
     182A      2.159774   183A      2.172870   184A      2.191553  
     185A      2.208946   186A      2.218294   187A      2.230072  
     188A      2.276066   189A      2.335642   190A      2.335835  
     191A      2.343724   192A      2.376440   193A      2.383195  
     194A      2.398760   195A      2.399596   196A      2.428768  
     197A      2.479884   198A      2.479933   199A      2.517992  
     200A      2.533254   201A      2.554850   202A      2.560472  
     203A      2.604387   204A      2.614411   205A      2.639548  
     206A      2.647769   207A      2.696140   208A      2.699696  
     209A      2.745947   210A      2.747773   211A      2.792424  
     212A      2.844260   213A      2.859880   214A      2.862842  
     215A      2.907501   216A      2.909458   217A      2.922999  
     218A      2.924911   219A      3.005483   220A      3.020779  
     221A      3.026503   222A      3.084884   223A      3.098201  
     224A      3.131772   225A      3.176596   226A      3.184792  
     227A      3.192639   228A      3.272009   229A      3.396717  
     230A      3.413600   231A      3.696447   232A      3.708852  
     233A      3.744639   234A      3.747682   235A      4.060739  
     236A      4.344832   237A      4.906623  

    Final Occupation by Irrep:
              A 
    DOCC [    25 ]

  @DF-RHF Final Energy:  -287.21817247500246

   => Energetics <=

    Nuclear Repulsion Energy =            247.9452178403209643
    One-Electron Energy =                -881.6951957345740993
    Two-Electron Energy =                 346.5318054192506452
    Total Energy =                       -287.2181724750024614

Computation Completed


Properties will be evaluated at   0.000000,   0.000000,   0.000000 [a0]

Properties computed using the SCF density matrix

  Nuclear Dipole Moment: [e a0]
     X:    -0.4499      Y:    -1.4862      Z:     1.6231

  Electronic Dipole Moment: [e a0]
     X:     0.0754      Y:     1.7184      Z:    -0.7247

  Dipole Moment: [e a0]
     X:    -0.3745      Y:     0.2322      Z:     0.8983     Total:     1.0006

  Dipole Moment: [D]
     X:    -0.9519      Y:     0.5901      Z:     2.2834     Total:     2.5432


*** tstop() called on node73.bme.utexas.edu at Thu Apr 23 11:52:57 2020
Module time:
	user time   =      39.23 seconds =       0.65 minutes
	system time =       1.57 seconds =       0.03 minutes
	total time  =          7 seconds =       0.12 minutes
Total time:
	user time   =      39.23 seconds =       0.65 minutes
	system time =       1.57 seconds =       0.03 minutes
	total time  =          7 seconds =       0.12 minutes

  //>>>>>>>>>>>>>>>>>>>>>>>>>>>>>>>>>>>//
  //            Monomer A HF           //
  //<<<<<<<<<<<<<<<<<<<<<<<<<<<<<<<<<<<//


*** tstart() called on node73.bme.utexas.edu
*** at Thu Apr 23 11:52:57 2020

   => Loading Basis Set <=

    Name: AUG-CC-PVDZ
    Role: ORBITAL
    Keyword: BASIS
    atoms 1           entry N          line   218 file /home/liuchw/anaconda3/envs/psi4env/share/psi4/basis/aug-cc-pvdz.gbs 
    atoms 2-5         entry C          line   182 file /home/liuchw/anaconda3/envs/psi4env/share/psi4/basis/aug-cc-pvdz.gbs 
    atoms 6-14, 16-17 entry H          line    40 file /home/liuchw/anaconda3/envs/psi4env/share/psi4/basis/aug-cc-pvdz.gbs 
    atoms 15          entry O          line   254 file /home/liuchw/anaconda3/envs/psi4env/share/psi4/basis/aug-cc-pvdz.gbs 


         ---------------------------------------------------------
                                   SCF
               by Justin Turney, Rob Parrish, Andy Simmonett
                          and Daniel G. A. Smith
                              RHF Reference
                        8 Threads,  19073 MiB Core
         ---------------------------------------------------------

  ==> Geometry <==

    Molecular point group: c1
    Full point group: C1

    Geometry (in Angstrom), charge = 0, multiplicity = 1:

       Center              X                  Y                   Z               Mass       
    ------------   -----------------  -----------------  -----------------  -----------------
         N           -0.452806670383     0.655872038781     0.970749044683    14.003074004430
         C           -1.442566670383    -0.374557961219     0.632629044683    12.000000000000
         C           -0.608846670383    -1.388747961219    -0.157260955317    12.000000000000
         C            0.826473329617    -1.217977961219     0.396859044683    12.000000000000
         C            0.694463329617    -0.120297961219     1.457639044683    12.000000000000
         H           -2.259996670383     0.049542038781     0.053129044683     1.007825032230
         H           -1.859206670383    -0.846327961219     1.531229044683     1.007825032230
         H           -0.989066670383    -2.399627961219    -0.031570955317     1.007825032230
         H           -0.631046670383    -1.144577961219    -1.215870955317     1.007825032230
         H            1.223363329617    -2.136397961219     0.822559044683     1.007825032230
         H            1.495193329617    -0.891607961219    -0.395020955317     1.007825032230
         H            0.494223329617    -0.566317961219     2.439789044683     1.007825032230
         H            1.580433329617     0.506462038781     1.535739044683     1.007825032230
         H           -0.803996670383     1.280302038781     1.687989044683     1.007825032230
      Gh(O)           0.824993329617     1.853092038781    -2.707970955317    15.994914619570
      Gh(H)           0.484923329617     1.761172038781    -1.798810955317     1.007825032230
      Gh(H)           0.779683329617     2.794552038781    -2.880940955317     1.007825032230

  Running in c1 symmetry.

  Rotational constants: A =      0.13085  B =      0.05096  C =      0.05073 [cm^-1]
  Rotational constants: A =   3922.66628  B =   1527.71445  C =   1520.76343 [MHz]
  Nuclear repulsion =  190.835783082273082

  Charge       = 0
  Multiplicity = 1
  Electrons    = 40
  Nalpha       = 20
  Nbeta        = 20

  ==> Algorithm <==

  SCF Algorithm Type is DF.
  DIIS enabled.
  MOM disabled.
  Fractional occupation disabled.
  Guess Type is SAD.
  Energy threshold   = 1.00e-08
  Density threshold  = 1.00e-08
  Integral threshold = 0.00e+00

  ==> Primary Basis <==

  Basis Set: AUG-CC-PVDZ
    Blend: AUG-CC-PVDZ
    Number of shells: 109
    Number of basis function: 237
    Number of Cartesian functions: 249
    Spherical Harmonics?: true
    Max angular momentum: 2

   => Loading Basis Set <=

    Name: (AUG-CC-PVDZ AUX)
    Role: JKFIT
    Keyword: DF_BASIS_SCF
    atoms 1           entry N          line   212 file /home/liuchw/anaconda3/envs/psi4env/share/psi4/basis/aug-cc-pvdz-jkfit.gbs 
    atoms 2-5         entry C          line   154 file /home/liuchw/anaconda3/envs/psi4env/share/psi4/basis/aug-cc-pvdz-jkfit.gbs 
    atoms 6-14, 16-17 entry H          line    70 file /home/liuchw/anaconda3/envs/psi4env/share/psi4/basis/aug-cc-pvdz-jkfit.gbs 
    atoms 15          entry O          line   270 file /home/liuchw/anaconda3/envs/psi4env/share/psi4/basis/aug-cc-pvdz-jkfit.gbs 

  ==> Pre-Iterations <==

   -------------------------------------------------------
    Irrep   Nso     Nmo     Nalpha   Nbeta   Ndocc  Nsocc
   -------------------------------------------------------
     A        237     237       0       0       0       0
   -------------------------------------------------------
    Total     237     237      20      20      20       0
   -------------------------------------------------------

  ==> Integral Setup <==

  ==> DiskDFJK: Density-Fitted J/K Matrices <==

    J tasked:                  Yes
    K tasked:                  Yes
    wK tasked:                  No
    OpenMP threads:              8
    Integrals threads:           8
    Memory [MiB]:            14305
    Algorithm:                Core
    Integral Cache:           LOAD
    Schwarz Cutoff:          1E-12
    Fitting Condition:       1E-10

   => Auxiliary Basis Set <=

  Basis Set: (AUG-CC-PVDZ AUX)
    Blend: AUG-CC-PVDZ-JKFIT
    Number of shells: 300
    Number of basis function: 868
    Number of Cartesian functions: 991
    Spherical Harmonics?: true
    Max angular momentum: 3

  Minimum eigenvalue in the overlap matrix is 1.0676551017E-05.
  Using Symmetric Orthogonalization.

  SCF Guess: Superposition of Atomic Densities via on-the-fly atomic UHF.

  ==> Iterations <==

                           Total Energy        Delta E     RMS |[F,P]|

   @DF-RHF iter SAD:  -211.04312486789661   -2.11043e+02   0.00000e+00 
   @DF-RHF iter   1:  -210.94962387859999    9.35010e-02   2.55062e-03 DIIS
   @DF-RHF iter   2:  -211.11135376506698   -1.61730e-01   1.46961e-03 DIIS
   @DF-RHF iter   3:  -211.17077280938165   -5.94190e-02   2.31371e-04 DIIS
   @DF-RHF iter   4:  -211.17354427671677   -2.77147e-03   5.30033e-05 DIIS
   @DF-RHF iter   5:  -211.17366231098086   -1.18034e-04   1.79769e-05 DIIS
   @DF-RHF iter   6:  -211.17367615506296   -1.38441e-05   3.54619e-06 DIIS
   @DF-RHF iter   7:  -211.17367696762975   -8.12567e-07   6.04297e-07 DIIS
   @DF-RHF iter   8:  -211.17367699027577   -2.26460e-08   1.91444e-07 DIIS
   @DF-RHF iter   9:  -211.17367699217647   -1.90070e-09   5.04056e-08 DIIS
   @DF-RHF iter  10:  -211.17367699239696   -2.20496e-10   1.25300e-08 DIIS
   @DF-RHF iter  11:  -211.17367699241083   -1.38698e-11   3.47880e-09 DIIS
  Energy and wave function converged.


  ==> Post-Iterations <==

    Orbital Energies [Eh]
    ---------------------

    Doubly Occupied:                                                      

       1A    -15.544591     2A    -11.245649     3A    -11.245630  
       4A    -11.218871     5A    -11.218316     6A     -1.218936  
       7A     -1.022568     8A     -0.972887     9A     -0.806987  
      10A     -0.780757    11A     -0.686268    12A     -0.657339  
      13A     -0.587613    14A     -0.557396    15A     -0.509896  
      16A     -0.506796    17A     -0.478699    18A     -0.470573  
      19A     -0.455891    20A     -0.369530  

    Virtual:                                                              

      21A      0.034468    22A      0.042025    23A      0.047496  
      24A      0.048345    25A      0.063333    26A      0.066685  
      27A      0.069581    28A      0.070569    29A      0.072699  
      30A      0.094650    31A      0.101538    32A      0.134046  
      33A      0.137506    34A      0.147073    35A      0.148593  
      36A      0.152207    37A      0.155085    38A      0.164686  
      39A      0.168128    40A      0.170381    41A      0.175179  
      42A      0.185201    43A      0.197683    44A      0.197896  
      45A      0.204071    46A      0.204357    47A      0.213927  
      48A      0.218474    49A      0.219772    50A      0.240261  
      51A      0.244778    52A      0.249493    53A      0.257316  
      54A      0.292863    55A      0.315085    56A      0.341601  
      57A      0.342997    58A      0.344945    59A      0.370679  
      60A      0.377205    61A      0.383477    62A      0.392066  
      63A      0.400152    64A      0.402030    65A      0.416162  
      66A      0.422169    67A      0.427747    68A      0.433035  
      69A      0.445363    70A      0.455272    71A      0.465874  
      72A      0.468776    73A      0.480247    74A      0.480430  
      75A      0.485837    76A      0.492701    77A      0.500831  
      78A      0.500888    79A      0.508671    80A      0.514949  
      81A      0.518485    82A      0.536025    83A      0.548656  
      84A      0.549332    85A      0.555866    86A      0.580872  
      87A      0.582280    88A      0.589678    89A      0.599197  
      90A      0.606759    91A      0.631870    92A      0.632289  
      93A      0.637130    94A      0.658567    95A      0.663967  
      96A      0.672140    97A      0.685604    98A      0.700710  
      99A      0.708065   100A      0.715751   101A      0.726837  
     102A      0.739305   103A      0.740055   104A      0.743773  
     105A      0.749102   106A      0.773429   107A      0.780149  
     108A      0.791730   109A      0.809938   110A      0.821966  
     111A      0.828086   112A      0.840193   113A      0.846049  
     114A      0.853539   115A      0.871370   116A      0.873961  
     117A      0.883172   118A      0.908323   119A      0.911499  
     120A      0.925093   121A      0.929363   122A      0.945117  
     123A      0.960050   124A      0.960682   125A      0.975088  
     126A      0.978504   127A      1.048016   128A      1.050522  
     129A      1.110124   130A      1.111513   131A      1.137748  
     132A      1.143525   133A      1.173720   134A      1.176139  
     135A      1.202964   136A      1.232100   137A      1.250284  
     138A      1.259549   139A      1.292606   140A      1.318079  
     141A      1.326850   142A      1.338315   143A      1.351927  
     144A      1.362437   145A      1.384833   146A      1.392399  
     147A      1.400999   148A      1.416716   149A      1.458380  
     150A      1.483212   151A      1.490427   152A      1.534962  
     153A      1.608547   154A      1.610474   155A      1.654615  
     156A      1.701330   157A      1.701558   158A      1.753402  
     159A      1.754854   160A      1.806927   161A      1.814029  
     162A      1.851091   163A      1.861746   164A      1.900383  
     165A      1.917709   166A      1.926322   167A      1.964762  
     168A      1.983300   169A      2.021122   170A      2.070893  
     171A      2.072805   172A      2.095417   173A      2.103487  
     174A      2.161182   175A      2.162816   176A      2.191797  
     177A      2.199161   178A      2.214625   179A      2.219876  
     180A      2.232654   181A      2.280096   182A      2.339828  
     183A      2.341468   184A      2.343714   185A      2.354364  
     186A      2.379961   187A      2.396592   188A      2.397772  
     189A      2.419663   190A      2.430037   191A      2.476930  
     192A      2.483593   193A      2.500499   194A      2.523573  
     195A      2.559645   196A      2.563072   197A      2.606237  
     198A      2.608208   199A      2.638669   200A      2.643200  
     201A      2.688999   202A      2.702007   203A      2.717490  
     204A      2.730384   205A      2.749903   206A      2.796382  
     207A      2.854361   208A      2.862508   209A      2.910470  
     210A      2.913258   211A      2.926747   212A      2.927360  
     213A      3.003918   214A      3.023827   215A      3.086698  
     216A      3.101966   217A      3.136829   218A      3.177136  
     219A      3.188880   220A      3.196838   221A      3.277303  
     222A      3.400722   223A      3.412149   224A      3.474074  
     225A      3.703723   226A      3.968293   227A      4.100645  
     228A      4.898156   229A      4.926544   230A      4.958448  
     231A      4.999707   232A      5.187351   233A      5.474423  
     234A      5.662846   235A      6.598737   236A      7.051049  
     237A     33.569857  

    Final Occupation by Irrep:
              A 
    DOCC [    20 ]

  @DF-RHF Final Energy:  -211.17367699241083

   => Energetics <=

    Nuclear Repulsion Energy =            190.8357830822730818
    One-Electron Energy =                -662.9085317896767720
    Two-Electron Energy =                 260.8990717149928287
    Total Energy =                       -211.1736769924108330

Computation Completed


Properties will be evaluated at   0.000000,   0.000000,   0.000000 [a0]

Properties computed using the SCF density matrix

  Nuclear Dipole Moment: [e a0]
     X:   -15.3117      Y:   -38.1100      Z:    51.4051

  Electronic Dipole Moment: [e a0]
     X:    15.2018      Y:    37.8611      Z:   -51.0436

  Dipole Moment: [e a0]
     X:    -0.1100      Y:    -0.2489      Z:     0.3615     Total:     0.4525

  Dipole Moment: [D]
     X:    -0.2795      Y:    -0.6327      Z:     0.9189     Total:     1.1501


*** tstop() called on node73.bme.utexas.edu at Thu Apr 23 11:53:00 2020
Module time:
	user time   =      21.98 seconds =       0.37 minutes
	system time =       1.00 seconds =       0.02 minutes
	total time  =          3 seconds =       0.05 minutes
Total time:
	user time   =      61.26 seconds =       1.02 minutes
	system time =       2.57 seconds =       0.04 minutes
	total time  =         10 seconds =       0.17 minutes

  //>>>>>>>>>>>>>>>>>>>>>>>>>>>>>>>>>>>//
  //            Monomer B HF           //
  //<<<<<<<<<<<<<<<<<<<<<<<<<<<<<<<<<<<//


*** tstart() called on node73.bme.utexas.edu
*** at Thu Apr 23 11:53:00 2020

   => Loading Basis Set <=

    Name: AUG-CC-PVDZ
    Role: ORBITAL
    Keyword: BASIS
    atoms 1           entry N          line   218 file /home/liuchw/anaconda3/envs/psi4env/share/psi4/basis/aug-cc-pvdz.gbs 
    atoms 2-5         entry C          line   182 file /home/liuchw/anaconda3/envs/psi4env/share/psi4/basis/aug-cc-pvdz.gbs 
    atoms 6-14, 16-17 entry H          line    40 file /home/liuchw/anaconda3/envs/psi4env/share/psi4/basis/aug-cc-pvdz.gbs 
    atoms 15          entry O          line   254 file /home/liuchw/anaconda3/envs/psi4env/share/psi4/basis/aug-cc-pvdz.gbs 


         ---------------------------------------------------------
                                   SCF
               by Justin Turney, Rob Parrish, Andy Simmonett
                          and Daniel G. A. Smith
                              RHF Reference
                        8 Threads,  19073 MiB Core
         ---------------------------------------------------------

  ==> Geometry <==

    Molecular point group: c1
    Full point group: C1

    Geometry (in Angstrom), charge = 0, multiplicity = 1:

       Center              X                  Y                   Z               Mass       
    ------------   -----------------  -----------------  -----------------  -----------------
      Gh(N)          -0.452806670383     0.655872038781     0.970749044683    14.003074004430
      Gh(C)          -1.442566670383    -0.374557961219     0.632629044683    12.000000000000
      Gh(C)          -0.608846670383    -1.388747961219    -0.157260955317    12.000000000000
      Gh(C)           0.826473329617    -1.217977961219     0.396859044683    12.000000000000
      Gh(C)           0.694463329617    -0.120297961219     1.457639044683    12.000000000000
      Gh(H)          -2.259996670383     0.049542038781     0.053129044683     1.007825032230
      Gh(H)          -1.859206670383    -0.846327961219     1.531229044683     1.007825032230
      Gh(H)          -0.989066670383    -2.399627961219    -0.031570955317     1.007825032230
      Gh(H)          -0.631046670383    -1.144577961219    -1.215870955317     1.007825032230
      Gh(H)           1.223363329617    -2.136397961219     0.822559044683     1.007825032230
      Gh(H)           1.495193329617    -0.891607961219    -0.395020955317     1.007825032230
      Gh(H)           0.494223329617    -0.566317961219     2.439789044683     1.007825032230
      Gh(H)           1.580433329617     0.506462038781     1.535739044683     1.007825032230
      Gh(H)          -0.803996670383     1.280302038781     1.687989044683     1.007825032230
         O            0.824993329617     1.853092038781    -2.707970955317    15.994914619570
         H            0.484923329617     1.761172038781    -1.798810955317     1.007825032230
         H            0.779683329617     2.794552038781    -2.880940955317     1.007825032230

  Running in c1 symmetry.

  Rotational constants: A =      0.13085  B =      0.05096  C =      0.05073 [cm^-1]
  Rotational constants: A =   3922.66628  B =   1527.71445  C =   1520.76343 [MHz]
  Nuclear repulsion =    9.106539899905538

  Charge       = 0
  Multiplicity = 1
  Electrons    = 10
  Nalpha       = 5
  Nbeta        = 5

  ==> Algorithm <==

  SCF Algorithm Type is DF.
  DIIS enabled.
  MOM disabled.
  Fractional occupation disabled.
  Guess Type is SAD.
  Energy threshold   = 1.00e-08
  Density threshold  = 1.00e-08
  Integral threshold = 0.00e+00

  ==> Primary Basis <==

  Basis Set: AUG-CC-PVDZ
    Blend: AUG-CC-PVDZ
    Number of shells: 109
    Number of basis function: 237
    Number of Cartesian functions: 249
    Spherical Harmonics?: true
    Max angular momentum: 2

   => Loading Basis Set <=

    Name: (AUG-CC-PVDZ AUX)
    Role: JKFIT
    Keyword: DF_BASIS_SCF
    atoms 1           entry N          line   212 file /home/liuchw/anaconda3/envs/psi4env/share/psi4/basis/aug-cc-pvdz-jkfit.gbs 
    atoms 2-5         entry C          line   154 file /home/liuchw/anaconda3/envs/psi4env/share/psi4/basis/aug-cc-pvdz-jkfit.gbs 
    atoms 6-14, 16-17 entry H          line    70 file /home/liuchw/anaconda3/envs/psi4env/share/psi4/basis/aug-cc-pvdz-jkfit.gbs 
    atoms 15          entry O          line   270 file /home/liuchw/anaconda3/envs/psi4env/share/psi4/basis/aug-cc-pvdz-jkfit.gbs 

  ==> Pre-Iterations <==

   -------------------------------------------------------
    Irrep   Nso     Nmo     Nalpha   Nbeta   Ndocc  Nsocc
   -------------------------------------------------------
     A        237     237       0       0       0       0
   -------------------------------------------------------
    Total     237     237       5       5       5       0
   -------------------------------------------------------

  ==> Integral Setup <==

  ==> DiskDFJK: Density-Fitted J/K Matrices <==

    J tasked:                  Yes
    K tasked:                  Yes
    wK tasked:                  No
    OpenMP threads:              8
    Integrals threads:           8
    Memory [MiB]:            14305
    Algorithm:                Core
    Integral Cache:           LOAD
    Schwarz Cutoff:          1E-12
    Fitting Condition:       1E-10

   => Auxiliary Basis Set <=

  Basis Set: (AUG-CC-PVDZ AUX)
    Blend: AUG-CC-PVDZ-JKFIT
    Number of shells: 300
    Number of basis function: 868
    Number of Cartesian functions: 991
    Spherical Harmonics?: true
    Max angular momentum: 3

  Minimum eigenvalue in the overlap matrix is 1.0676551017E-05.
  Using Symmetric Orthogonalization.

  SCF Guess: Superposition of Atomic Densities via on-the-fly atomic UHF.

  ==> Iterations <==

                           Total Energy        Delta E     RMS |[F,P]|

   @DF-RHF iter SAD:   -75.45535522049369   -7.54554e+01   0.00000e+00 
   @DF-RHF iter   1:   -75.95611974475482   -5.00765e-01   1.91118e-03 DIIS
   @DF-RHF iter   2:   -76.00911254118752   -5.29928e-02   1.25958e-03 DIIS
   @DF-RHF iter   3:   -76.04031168566736   -3.11991e-02   9.02030e-05 DIIS
   @DF-RHF iter   4:   -76.04069883233845   -3.87147e-04   2.06333e-05 DIIS
   @DF-RHF iter   5:   -76.04072165987048   -2.28275e-05   4.71293e-06 DIIS
   @DF-RHF iter   6:   -76.04072350408546   -1.84421e-06   9.48550e-07 DIIS
   @DF-RHF iter   7:   -76.04072358283555   -7.87501e-08   1.56884e-07 DIIS
   @DF-RHF iter   8:   -76.04072358480930   -1.97375e-09   2.47907e-08 DIIS
   @DF-RHF iter   9:   -76.04072358485308   -4.37836e-11   6.50840e-09 DIIS
  Energy and wave function converged.


  ==> Post-Iterations <==

    Orbital Energies [Eh]
    ---------------------

    Doubly Occupied:                                                      

       1A    -20.578923     2A     -1.352165     3A     -0.713472  
       4A     -0.584463     5A     -0.508726  

    Virtual:                                                              

       6A      0.018727     7A      0.036567     8A      0.040906  
       9A      0.043934    10A      0.058173    11A      0.065866  
      12A      0.070797    13A      0.071411    14A      0.073251  
      15A      0.084008    16A      0.096986    17A      0.105947  
      18A      0.126351    19A      0.128590    20A      0.135544  
      21A      0.142793    22A      0.144477    23A      0.155762  
      24A      0.159632    25A      0.163451    26A      0.164762  
      27A      0.179617    28A      0.186694    29A      0.187021  
      30A      0.199735    31A      0.201610    32A      0.207324  
      33A      0.225083    34A      0.225545    35A      0.231328  
      36A      0.231568    37A      0.238109    38A      0.254426  
      39A      0.268682    40A      0.278251    41A      0.323554  
      42A      0.330912    43A      0.335266    44A      0.353665  
      45A      0.380384    46A      0.393591    47A      0.397776  
      48A      0.401692    49A      0.404876    50A      0.408464  
      51A      0.413714    52A      0.415827    53A      0.431761  
      54A      0.432428    55A      0.433044    56A      0.462723  
      57A      0.468407    58A      0.475721    59A      0.479144  
      60A      0.479526    61A      0.488770    62A      0.494747  
      63A      0.495988    64A      0.513896    65A      0.514328  
      66A      0.528452    67A      0.533098    68A      0.547858  
      69A      0.569867    70A      0.582752    71A      0.588813  
      72A      0.591474    73A      0.597656    74A      0.622659  
      75A      0.624163    76A      0.631605    77A      0.663163  
      78A      0.678178    79A      0.691810    80A      0.700616  
      81A      0.703399    82A      0.711994    83A      0.741426  
      84A      0.747572    85A      0.755874    86A      0.756573  
      87A      0.760940    88A      0.781206    89A      0.782821  
      90A      0.819944    91A      0.822506    92A      0.838430  
      93A      0.849063    94A      0.853006    95A      0.859855  
      96A      0.878387    97A      0.891161    98A      0.897272  
      99A      0.900520   100A      0.913341   101A      0.915020  
     102A      0.930144   103A      0.942867   104A      0.954824  
     105A      0.975148   106A      0.982000   107A      0.993680  
     108A      0.994503   109A      1.016181   110A      1.023589  
     111A      1.043111   112A      1.057613   113A      1.087651  
     114A      1.101650   115A      1.120068   116A      1.130859  
     117A      1.139208   118A      1.152716   119A      1.159488  
     120A      1.167078   121A      1.167498   122A      1.179837  
     123A      1.195988   124A      1.201035   125A      1.215865  
     126A      1.266637   127A      1.271640   128A      1.331117  
     129A      1.338452   130A      1.344333   131A      1.396939  
     132A      1.415295   133A      1.437788   134A      1.510261  
     135A      1.536666   136A      1.549627   137A      1.564234  
     138A      1.728074   139A      1.952302   140A      1.992707  
     141A      2.025893   142A      2.058445   143A      2.058547  
     144A      2.113533   145A      2.114401   146A      2.132772  
     147A      2.187648   148A      2.244119   149A      2.250434  
     150A      2.270608   151A      2.289885   152A      2.313956  
     153A      2.318888   154A      2.340872   155A      2.358884  
     156A      2.366466   157A      2.371214   158A      2.380512  
     159A      2.389249   160A      2.397283   161A      2.427783  
     162A      2.429655   163A      2.465426   164A      2.471630  
     165A      2.500819   166A      2.515154   167A      2.517976  
     168A      2.528473   169A      2.564255   170A      2.578027  
     171A      2.583258   172A      2.613217   173A      2.626011  
     174A      2.681021   175A      2.700799   176A      2.702154  
     177A      2.738284   178A      2.748107   179A      2.764652  
     180A      2.799394   181A      2.811247   182A      2.874382  
     183A      2.876853   184A      2.889085   185A      2.896687  
     186A      2.951074   187A      2.956322   188A      3.015841  
     189A      3.036404   190A      3.090289   191A      3.132256  
     192A      3.155284   193A      3.220350   194A      3.237993  
     195A      3.303593   196A      3.351813   197A      3.444977  
     198A      3.456092   199A      3.477852   200A      3.501884  
     201A      3.577076   202A      3.598255   203A      3.685199  
     204A      3.693009   205A      3.710267   206A      3.715577  
     207A      3.738970   208A      3.748605   209A      3.765592  
     210A      3.791150   211A      3.859267   212A      3.982012  
     213A      4.006401   214A      4.048961   215A      4.311666  
     216A      4.333881   217A      4.386067   218A      4.580877  
     219A      4.600608   220A      4.803820   221A      4.820188  
     222A      4.950776   223A      5.026854   224A      5.035095  
     225A      5.047732   226A      5.162914   227A      5.182599  
     228A      5.226997   229A      5.277187   230A      5.728798  
     231A      5.938729   232A      5.987482   233A     18.323588  
     234A     18.560048   235A     18.826420   236A     20.260634  
     237A     25.372700  

    Final Occupation by Irrep:
              A 
    DOCC [     5 ]

  @DF-RHF Final Energy:   -76.04072358485308

   => Energetics <=

    Nuclear Repulsion Energy =              9.1065398999055382
    One-Electron Energy =                -122.8190279931370839
    Two-Electron Energy =                  37.6717645083784518
    Total Energy =                        -76.0407235848530831

Computation Completed


Properties will be evaluated at   0.000000,   0.000000,   0.000000 [a0]

Properties computed using the SCF density matrix

  Nuclear Dipole Moment: [e a0]
     X:    14.8619      Y:    36.6238      Z:   -49.7820

  Electronic Dipole Moment: [e a0]
     X:   -15.1183      Y:   -36.0551      Z:    50.2710

  Dipole Moment: [e a0]
     X:    -0.2565      Y:     0.5687      Z:     0.4889     Total:     0.7926

  Dipole Moment: [D]
     X:    -0.6519      Y:     1.4454      Z:     1.2427     Total:     2.0146


*** tstop() called on node73.bme.utexas.edu at Thu Apr 23 11:53:03 2020
Module time:
	user time   =      15.80 seconds =       0.26 minutes
	system time =       0.77 seconds =       0.01 minutes
	total time  =          3 seconds =       0.05 minutes
Total time:
	user time   =      77.12 seconds =       1.29 minutes
	system time =       3.35 seconds =       0.06 minutes
	total time  =         13 seconds =       0.22 minutes
  Constructing Basis Sets for SAPT...

   => Loading Basis Set <=

    Name: (AUG-CC-PVDZ AUX)
    Role: RIFIT
    Keyword: DF_BASIS_SAPT
    atoms 1           entry N          line   158 file /home/liuchw/anaconda3/envs/psi4env/share/psi4/basis/aug-cc-pvdz-ri.gbs 
    atoms 2-5         entry C          line   112 file /home/liuchw/anaconda3/envs/psi4env/share/psi4/basis/aug-cc-pvdz-ri.gbs 
    atoms 6-14, 16-17 entry H          line    30 file /home/liuchw/anaconda3/envs/psi4env/share/psi4/basis/aug-cc-pvdz-ri.gbs 
    atoms 15          entry O          line   204 file /home/liuchw/anaconda3/envs/psi4env/share/psi4/basis/aug-cc-pvdz-ri.gbs 


  //>>>>>>>>>>>>>>>>>>>>>>>>>>>>>>>>>>>//
  //               SAPT2+              //
  //<<<<<<<<<<<<<<<<<<<<<<<<<<<<<<<<<<<//


*** tstart() called on node73.bme.utexas.edu
*** at Thu Apr 23 11:53:03 2020

        SAPT2+  
    Ed Hohenstein
     6 June 2009

      Orbital Information
  --------------------------
    NSO        =       237
    NMO        =       237
    NRI        =       685
    NOCC A     =        20
    NOCC B     =         5
    FOCC A     =         5
    FOCC B     =         1
    NVIR A     =       217
    NVIR B     =       232

    Estimated memory usage: 811.7 MB

    Natural Orbital Cutoff:   1.000E-06
    Disp(T3) Truncation:            Yes
    CCD (vv|vv) Truncation:         Yes
    MBPT T2 Truncation:             Yes

    Monomer A: 53 virtual orbitals dropped
    Monomer B: 194 virtual orbitals dropped

    Elst10,r            =    -0.003870750913 [Eh]
    Exch10 (S^2)        =     0.000526471266 [Eh]
    Exch10              =     0.000526682910 [Eh]
    Ind20,r (A<-B)      =    -0.000382472200 [Eh]
    Ind20,r (B<-A)      =    -0.000109666398 [Eh]
    Ind20,r             =    -0.000492138598 [Eh]
    Exch-Ind20,r (A<-B) =     0.000137423273 [Eh]
    Exch-Ind20,r (B<-A) =     0.000007199674 [Eh]
    Exch-Ind20,r        =     0.000144622946 [Eh]
    Disp20              =    -0.001232415931 [Eh]
    Disp20 (NO)         =    -0.001157070622 [Eh]
    Exch-Disp20         =     0.000053533048 [Eh]
    Elst12,r            =    -0.000001288161 [Eh]
    Exch11              =     0.000004687840 [Eh]
    Exch12              =     0.000181930659 [Eh]
    Ind22               =    -0.000076854500 [Eh]
    Disp21              =     0.000125743712 [Eh]
    Disp22 (SDQ)        =    -0.000060225616 [Eh]

    (i =   1 of   4)          5 seconds
    (i =   2 of   4)          9 seconds
    (i =   3 of   4)         14 seconds
    (i =   4 of   4)         18 seconds

    Disp220 (T)         =    -0.000092534186 [Eh]

    (i =   1 of  15)          0 seconds
    (i =   2 of  15)          1 seconds
    (i =   3 of  15)          1 seconds
    (i =   4 of  15)          1 seconds
    (i =   5 of  15)          1 seconds
    (i =   6 of  15)          1 seconds
    (i =   7 of  15)          1 seconds
    (i =   8 of  15)          1 seconds
    (i =   9 of  15)          1 seconds
    (i =  10 of  15)          1 seconds
    (i =  11 of  15)          1 seconds
    (i =  12 of  15)          2 seconds
    (i =  13 of  15)          2 seconds
    (i =  14 of  15)          2 seconds
    (i =  15 of  15)          2 seconds

    Disp202 (T)         =    -0.000104817954 [Eh]

    Disp22 (T)          =    -0.000197352140 [Eh]

    Est. Disp220 (T)    =    -0.000098559762 [Eh]
    Est. Disp202 (T)    =    -0.000111643416 [Eh]

    Est. Disp22 (T)     =    -0.000210203178 [Eh]

    SAPT Results 
  --------------------------------------------------------------------------------------------------------
    Electrostatics                 -3.87203907 [mEh]      -2.42974120 [kcal/mol]     -10.16603719 [kJ/mol]
      Elst10,r                     -3.87075091 [mEh]      -2.42893287 [kcal/mol]     -10.16265512 [kJ/mol]
      Elst12,r                     -0.00128816 [mEh]      -0.00080833 [kcal/mol]      -0.00338207 [kJ/mol]

    Exchange                        0.71330141 [mEh]       0.44760339 [kcal/mol]       1.87277259 [kJ/mol]
      Exch10                        0.52668291 [mEh]       0.33049852 [kcal/mol]       1.38280579 [kJ/mol]
      Exch10(S^2)                   0.52647127 [mEh]       0.33036571 [kcal/mol]       1.38225012 [kJ/mol]
      Exch11(S^2)                   0.00468784 [mEh]       0.00294166 [kcal/mol]       0.01230792 [kJ/mol]
      Exch12(S^2)                   0.18193066 [mEh]       0.11416321 [kcal/mol]       0.47765888 [kJ/mol]

    Induction                      -0.48209929 [mEh]      -0.30252187 [kcal/mol]      -1.26575151 [kJ/mol]
      Ind20,r                      -0.49213860 [mEh]      -0.30882163 [kcal/mol]      -1.29210971 [kJ/mol]
      Ind22                        -0.07685450 [mEh]      -0.04822693 [kcal/mol]      -0.20178146 [kJ/mol]
      Exch-Ind20,r                  0.14462295 [mEh]       0.09075227 [kcal/mol]       0.37970749 [kJ/mol]
      Exch-Ind22                    0.02258495 [mEh]       0.01417227 [kcal/mol]       0.05929677 [kJ/mol]
      delta HF,r (2)               -0.08031408 [mEh]      -0.05039785 [kcal/mol]      -0.21086460 [kJ/mol]

    Dispersion                     -1.32356797 [mEh]      -0.83055144 [kcal/mol]      -3.47502722 [kJ/mol]
      Disp20                       -1.23241593 [mEh]      -0.77335267 [kcal/mol]      -3.23570758 [kJ/mol]
      Disp21                        0.12574371 [mEh]       0.07890537 [kcal/mol]       0.33014007 [kJ/mol]
      Disp22 (SDQ)                 -0.06022562 [mEh]      -0.03779214 [kcal/mol]      -0.15812233 [kJ/mol]
      Disp22 (T)                   -0.19735214 [mEh]      -0.12384034 [kcal/mol]      -0.51814797 [kJ/mol]
      Est. Disp22 (T)              -0.21020318 [mEh]      -0.13190449 [kcal/mol]      -0.55188837 [kJ/mol]
      Exch-Disp20                   0.05353305 [mEh]       0.03359249 [kcal/mol]       0.14055100 [kJ/mol]

  Total HF                         -3.77189774 [mEh]      -2.36690157 [kcal/mol]      -9.90311615 [kJ/mol]
  Total SAPT0                      -4.95078062 [mEh]      -3.10666174 [kcal/mol]     -12.99827273 [kJ/mol]
  Total SAPT2                      -4.81971984 [mEh]      -3.02441986 [kcal/mol]     -12.65417269 [kJ/mol]
  Total SAPT2+                     -4.96440492 [mEh]      -3.11521112 [kcal/mol]     -13.03404332 [kJ/mol]

  Special recipe for scaled SAPT0 (see Manual):
    Electrostatics sSAPT0          -3.87075091 [mEh]      -2.42893287 [kcal/mol]     -10.16265512 [kJ/mol]
    Exchange sSAPT0                 0.52668291 [mEh]       0.33049852 [kcal/mol]       1.38280579 [kJ/mol]
    Induction sSAPT0               -0.42765525 [mEh]      -0.26835772 [kcal/mol]      -1.12280870 [kJ/mol]
    Dispersion sSAPT0              -1.17881830 [mEh]      -0.73971965 [kcal/mol]      -3.09498701 [kJ/mol]
  Total sSAPT0                     -4.95054155 [mEh]      -3.10651172 [kcal/mol]     -12.99764504 [kJ/mol]
  --------------------------------------------------------------------------------------------------------

*** tstop() called on node73.bme.utexas.edu at Thu Apr 23 11:54:06 2020
Module time:
	user time   =     465.62 seconds =       7.76 minutes
	system time =      20.38 seconds =       0.34 minutes
	total time  =         63 seconds =       1.05 minutes
Total time:
	user time   =     543.79 seconds =       9.06 minutes
	system time =      23.80 seconds =       0.40 minutes
	total time  =         76 seconds =       1.27 minutes

    Psi4 stopped on: Thursday, 23 April 2020 11:54AM
    Psi4 wall time for execution: 0:01:15.60

*** Psi4 exiting successfully. Buy a developer a beer!
