
    -----------------------------------------------------------------------
          Psi4: An Open-Source Ab Initio Electronic Structure Package
                               Psi4 1.4a2.dev224 

                         Git: Rev {master} e453b16 


    R. M. Parrish, L. A. Burns, D. G. A. Smith, A. C. Simmonett,
    A. E. DePrince III, E. G. Hohenstein, U. Bozkaya, A. Yu. Sokolov,
    R. Di Remigio, R. M. Richard, J. F. Gonthier, A. M. James,
    H. R. McAlexander, A. Kumar, M. Saitow, X. Wang, B. P. Pritchard,
    P. Verma, H. F. Schaefer III, K. Patkowski, R. A. King, E. F. Valeev,
    F. A. Evangelista, J. M. Turney, T. D. Crawford, and C. D. Sherrill,
    J. Chem. Theory Comput. 13(7) pp 3185--3197 (2017).
    (doi: 10.1021/acs.jctc.7b00174)


                         Additional Contributions by
    P. Kraus, H. Kruse, M. H. Lechner, M. C. Schieber, R. A. Shaw,
    A. Alenaizan, R. Galvelis, Z. L. Glick, S. Lehtola, and J. P. Misiewicz

    -----------------------------------------------------------------------


    Psi4 started on: Thursday, 23 April 2020 05:19PM

    Process ID: 75748
    Host:       node50.bme.utexas.edu
    PSIDATADIR: /home/liuchw/anaconda3/envs/psi4env/share/psi4
    Memory:     500.0 MiB
    Threads:    8
    
  ==> Input File <==

--------------------------------------------------------------------------
#Generated by lconvert.py for sapt job

memory 20 GB

molecule  {
0 1
  C      -3.555220   -0.145050    0.625060
  C      -3.185550    1.196340    0.554090
  C      -1.965330    1.566370   -0.005380
  C      -1.113310    0.577740   -0.495980
  C      -1.473890   -0.763770   -0.429410
  C      -2.697760   -1.131260    0.132030
  O      -3.000300   -2.456700    0.171870
  H      -4.503840   -0.431940    1.060060
  H      -3.857480    1.951680    0.939040
  H      -1.682140    2.607900   -0.058620
  H      -0.162200    0.849850   -0.933370
  H      -0.822580   -1.539990   -0.806080
  H      -3.872060   -2.569580    0.583710
--
0 1
  O      -6.578580   -3.227200    1.837800
  H      -7.240540   -3.642520    1.280230
  H      -6.583070   -3.751690    2.641820
units angstrom
no_reorient
symmetry c1
}

set {
scf_type DF
basis aug-cc-pvdz
freeze_core True
guess SAD
}
energy('sapt2+')
--------------------------------------------------------------------------

  Memory set to  18.626 GiB by Python driver.

Scratch directory: /scratch/liuchw/

  //>>>>>>>>>>>>>>>>>>>>>>>>>>>>>>>>>>>//
  //              Dimer HF             //
  //<<<<<<<<<<<<<<<<<<<<<<<<<<<<<<<<<<<//


*** tstart() called on node50.bme.utexas.edu
*** at Thu Apr 23 17:19:59 2020

   => Loading Basis Set <=

    Name: AUG-CC-PVDZ
    Role: ORBITAL
    Keyword: BASIS
    atoms 1-6         entry C          line   182 file /home/liuchw/anaconda3/envs/psi4env/share/psi4/basis/aug-cc-pvdz.gbs 
    atoms 7, 14       entry O          line   254 file /home/liuchw/anaconda3/envs/psi4env/share/psi4/basis/aug-cc-pvdz.gbs 
    atoms 8-13, 15-16 entry H          line    40 file /home/liuchw/anaconda3/envs/psi4env/share/psi4/basis/aug-cc-pvdz.gbs 


         ---------------------------------------------------------
                                   SCF
               by Justin Turney, Rob Parrish, Andy Simmonett
                          and Daniel G. A. Smith
                              RHF Reference
                        8 Threads,  19073 MiB Core
         ---------------------------------------------------------

  ==> Geometry <==

    Molecular point group: c1
    Full point group: C1

    Geometry (in Angstrom), charge = 0, multiplicity = 1:

       Center              X                  Y                   Z               Mass       
    ------------   -----------------  -----------------  -----------------  -----------------
         C           -0.431193463100     0.585736596983     0.255116741893    12.000000000000
         C           -0.061523463100     1.927126596983     0.184146741893    12.000000000000
         C            1.158696536900     2.297156596983    -0.375323258107    12.000000000000
         C            2.010716536900     1.308526596983    -0.865923258107    12.000000000000
         C            1.650136536900    -0.032983403017    -0.799353258107    12.000000000000
         C            0.426266536900    -0.400473403017    -0.237913258107    12.000000000000
         O            0.123726536900    -1.725913403017    -0.198073258107    15.994914619570
         H           -1.379813463100     0.298846596983     0.690116741893     1.007825032230
         H           -0.733453463100     2.682466596983     0.569096741893     1.007825032230
         H            1.441886536900     3.338686596983    -0.428563258107     1.007825032230
         H            2.961826536900     1.580636596983    -1.303313258107     1.007825032230
         H            2.301446536900    -0.809203403017    -1.176023258107     1.007825032230
         H           -0.748033463100    -1.838793403017     0.213766741893     1.007825032230
         O           -3.454553463100    -2.496413403017     1.467856741893    15.994914619570
         H           -4.116513463100    -2.911733403017     0.910286741893     1.007825032230
         H           -3.459043463100    -3.020903403017     2.271876741893     1.007825032230

  Running in c1 symmetry.

  Rotational constants: A =      0.13035  B =      0.02794  C =      0.02308 [cm^-1]
  Rotational constants: A =   3907.76158  B =    837.59692  C =    691.94107 [MHz]
  Nuclear repulsion =  329.998520715494976

  Charge       = 0
  Multiplicity = 1
  Electrons    = 60
  Nalpha       = 30
  Nbeta        = 30

  ==> Algorithm <==

  SCF Algorithm Type is DF.
  DIIS enabled.
  MOM disabled.
  Fractional occupation disabled.
  Guess Type is SAD.
  Energy threshold   = 1.00e-08
  Density threshold  = 1.00e-08
  Integral threshold = 0.00e+00

  ==> Primary Basis <==

  Basis Set: AUG-CC-PVDZ
    Blend: AUG-CC-PVDZ
    Number of shells: 112
    Number of basis function: 256
    Number of Cartesian functions: 272
    Spherical Harmonics?: true
    Max angular momentum: 2

   => Loading Basis Set <=

    Name: (AUG-CC-PVDZ AUX)
    Role: JKFIT
    Keyword: DF_BASIS_SCF
    atoms 1-6         entry C          line   154 file /home/liuchw/anaconda3/envs/psi4env/share/psi4/basis/aug-cc-pvdz-jkfit.gbs 
    atoms 7, 14       entry O          line   270 file /home/liuchw/anaconda3/envs/psi4env/share/psi4/basis/aug-cc-pvdz-jkfit.gbs 
    atoms 8-13, 15-16 entry H          line    70 file /home/liuchw/anaconda3/envs/psi4env/share/psi4/basis/aug-cc-pvdz-jkfit.gbs 

  ==> Pre-Iterations <==

   -------------------------------------------------------
    Irrep   Nso     Nmo     Nalpha   Nbeta   Ndocc  Nsocc
   -------------------------------------------------------
     A        256     256       0       0       0       0
   -------------------------------------------------------
    Total     256     256      30      30      30       0
   -------------------------------------------------------

  ==> Integral Setup <==

  ==> DiskDFJK: Density-Fitted J/K Matrices <==

    J tasked:                  Yes
    K tasked:                  Yes
    wK tasked:                  No
    OpenMP threads:              8
    Integrals threads:           8
    Memory [MiB]:            14305
    Algorithm:                Core
    Integral Cache:           SAVE
    Schwarz Cutoff:          1E-12
    Fitting Condition:       1E-10

   => Auxiliary Basis Set <=

  Basis Set: (AUG-CC-PVDZ AUX)
    Blend: AUG-CC-PVDZ-JKFIT
    Number of shells: 320
    Number of basis function: 944
    Number of Cartesian functions: 1088
    Spherical Harmonics?: true
    Max angular momentum: 3

  Minimum eigenvalue in the overlap matrix is 2.2688165345E-06.
  Using Symmetric Orthogonalization.

  SCF Guess: Superposition of Atomic Densities via on-the-fly atomic UHF.

  ==> Iterations <==

                           Total Energy        Delta E     RMS |[F,P]|

   @DF-RHF iter SAD:  -380.47973611837108   -3.80480e+02   0.00000e+00 
   @DF-RHF iter   1:  -381.36057974009128   -8.80844e-01   2.85941e-03 DIIS
   @DF-RHF iter   2:  -381.57949786431192   -2.18918e-01   1.53887e-03 DIIS
   @DF-RHF iter   3:  -381.64379845699227   -6.43006e-02   2.16420e-04 DIIS
   @DF-RHF iter   4:  -381.64612180684929   -2.32335e-03   7.80050e-05 DIIS
   @DF-RHF iter   5:  -381.64633950386485   -2.17697e-04   1.55546e-05 DIIS
   @DF-RHF iter   6:  -381.64635578478368   -1.62809e-05   5.45793e-06 DIIS
   @DF-RHF iter   7:  -381.64635774834682   -1.96356e-06   2.24481e-06 DIIS
   @DF-RHF iter   8:  -381.64635807967289   -3.31326e-07   6.97765e-07 DIIS
   @DF-RHF iter   9:  -381.64635811942719   -3.97543e-08   1.54872e-07 DIIS
   @DF-RHF iter  10:  -381.64635812202692   -2.59973e-09   7.27467e-08 DIIS
   @DF-RHF iter  11:  -381.64635812279198   -7.65056e-10   3.02689e-08 DIIS
   @DF-RHF iter  12:  -381.64635812300827   -2.16289e-10   1.41791e-08 DIIS
   @DF-RHF iter  13:  -381.64635812304692   -3.86535e-11   6.40023e-09 DIIS
  Energy and wave function converged.


  ==> Post-Iterations <==

    Orbital Energies [Eh]
    ---------------------

    Doubly Occupied:                                                      

       1A    -20.593819     2A    -20.592821     3A    -11.302207  
       4A    -11.241487     5A    -11.240137     6A    -11.231437  
       7A    -11.227256     8A    -11.226637     9A     -1.402777  
      10A     -1.371441    11A     -1.143343    12A     -1.015901  
      13A     -1.000806    14A     -0.842203    15A     -0.818184  
      16A     -0.733135    17A     -0.727848    18A     -0.680054  
      19A     -0.647218    20A     -0.604747    21A     -0.603491  
      22A     -0.584653    23A     -0.583314    24A     -0.562087  
      25A     -0.525837    26A     -0.511282    27A     -0.486236  
      28A     -0.475946    29A     -0.335524    30A     -0.307546  

    Virtual:                                                              

      31A      0.027092    32A      0.041906    33A      0.047065  
      34A      0.053179    35A      0.055821    36A      0.063825  
      37A      0.074792    38A      0.083235    39A      0.111446  
      40A      0.122451    41A      0.133340    42A      0.134606  
      43A      0.147057    44A      0.148146    45A      0.150561  
      46A      0.154473    47A      0.155615    48A      0.160118  
      49A      0.162389    50A      0.167293    51A      0.173735  
      52A      0.177589    53A      0.188899    54A      0.192855  
      55A      0.196975    56A      0.200476    57A      0.202185  
      58A      0.203614    59A      0.209169    60A      0.229918  
      61A      0.240247    62A      0.264701    63A      0.274266  
      64A      0.274785    65A      0.284039    66A      0.295542  
      67A      0.307452    68A      0.314867    69A      0.315181  
      70A      0.320570    71A      0.333477    72A      0.342097  
      73A      0.359555    74A      0.364623    75A      0.368568  
      76A      0.372709    77A      0.374290    78A      0.384238  
      79A      0.385957    80A      0.396349    81A      0.399280  
      82A      0.409254    83A      0.415852    84A      0.429022  
      85A      0.429632    86A      0.450080    87A      0.465163  
      88A      0.475422    89A      0.478411    90A      0.489545  
      91A      0.494967    92A      0.510226    93A      0.521490  
      94A      0.530748    95A      0.535215    96A      0.546192  
      97A      0.556633    98A      0.566297    99A      0.594644  
     100A      0.604503   101A      0.606139   102A      0.615864  
     103A      0.623209   104A      0.623495   105A      0.627443  
     106A      0.649698   107A      0.651966   108A      0.659735  
     109A      0.674370   110A      0.684505   111A      0.688984  
     112A      0.691211   113A      0.698251   114A      0.714754  
     115A      0.720583   116A      0.736748   117A      0.744251  
     118A      0.755559   119A      0.768062   120A      0.772024  
     121A      0.772882   122A      0.795866   123A      0.805125  
     124A      0.812211   125A      0.824930   126A      0.843643  
     127A      0.860349   128A      0.876802   129A      0.886521  
     130A      0.892805   131A      0.906361   132A      0.931078  
     133A      0.934066   134A      0.938767   135A      0.944515  
     136A      0.949220   137A      0.955348   138A      0.972964  
     139A      0.976015   140A      0.990294   141A      1.002602  
     142A      1.020434   143A      1.048778   144A      1.070149  
     145A      1.075656   146A      1.087881   147A      1.110757  
     148A      1.133057   149A      1.133734   150A      1.176879  
     151A      1.180953   152A      1.183463   153A      1.198082  
     154A      1.204835   155A      1.271613   156A      1.307170  
     157A      1.324729   158A      1.376616   159A      1.376900  
     160A      1.409235   161A      1.468641   162A      1.470368  
     163A      1.472702   164A      1.495381   165A      1.496307  
     166A      1.523020   167A      1.540841   168A      1.552854  
     169A      1.576652   170A      1.578426   171A      1.586453  
     172A      1.611107   173A      1.633497   174A      1.638932  
     175A      1.649158   176A      1.650665   177A      1.692965  
     178A      1.705294   179A      1.715509   180A      1.715817  
     181A      1.720608   182A      1.726310   183A      1.734733  
     184A      1.787940   185A      1.805710   186A      1.832721  
     187A      1.875444   188A      1.904882   189A      1.906956  
     190A      1.927824   191A      1.958801   192A      1.962906  
     193A      1.969610   194A      1.978132   195A      1.989369  
     196A      1.991436   197A      1.997295   198A      2.010563  
     199A      2.026839   200A      2.062258   201A      2.108240  
     202A      2.129276   203A      2.132153   204A      2.139359  
     205A      2.165750   206A      2.201233   207A      2.205473  
     208A      2.216144   209A      2.230995   210A      2.250812  
     211A      2.263195   212A      2.298217   213A      2.328276  
     214A      2.354991   215A      2.366608   216A      2.382961  
     217A      2.402121   218A      2.407078   219A      2.428699  
     220A      2.468073   221A      2.483243   222A      2.534727  
     223A      2.617967   224A      2.628385   225A      2.642674  
     226A      2.673349   227A      2.714909   228A      2.771545  
     229A      2.818803   230A      2.820427   231A      2.844036  
     232A      2.935826   233A      2.966760   234A      2.986976  
     235A      3.009897   236A      3.027335   237A      3.118949  
     238A      3.158881   239A      3.196269   240A      3.218525  
     241A      3.317098   242A      3.335677   243A      3.552254  
     244A      3.614526   245A      3.686581   246A      3.712034  
     247A      3.747704   248A      3.761037   249A      3.791191  
     250A      3.833810   251A      3.908751   252A      4.016466  
     253A      4.032337   254A      4.298649   255A      4.396321  
     256A      4.801901  

    Final Occupation by Irrep:
              A 
    DOCC [    30 ]

  @DF-RHF Final Energy:  -381.64635812304692

   => Energetics <=

    Nuclear Repulsion Energy =            329.9985207154949762
    One-Electron Energy =               -1174.0510101266388574
    Two-Electron Energy =                 462.4061312880969012
    Total Energy =                       -381.6463581230469231

Computation Completed


Properties will be evaluated at   0.000000,   0.000000,   0.000000 [a0]

Properties computed using the SCF density matrix

  Nuclear Dipole Moment: [e a0]
     X:    -3.5144      Y:    -0.6578      Z:     1.6441

  Electronic Dipole Moment: [e a0]
     X:     2.4872      Y:     0.1421      Z:    -1.1895

  Dipole Moment: [e a0]
     X:    -1.0272      Y:    -0.5157      Z:     0.4546     Total:     1.2360

  Dipole Moment: [D]
     X:    -2.6108      Y:    -1.3108      Z:     1.1555     Total:     3.1416


*** tstop() called on node50.bme.utexas.edu at Thu Apr 23 17:20:06 2020
Module time:
	user time   =      47.84 seconds =       0.80 minutes
	system time =       1.13 seconds =       0.02 minutes
	total time  =          7 seconds =       0.12 minutes
Total time:
	user time   =      47.84 seconds =       0.80 minutes
	system time =       1.13 seconds =       0.02 minutes
	total time  =          7 seconds =       0.12 minutes

  //>>>>>>>>>>>>>>>>>>>>>>>>>>>>>>>>>>>//
  //            Monomer A HF           //
  //<<<<<<<<<<<<<<<<<<<<<<<<<<<<<<<<<<<//


*** tstart() called on node50.bme.utexas.edu
*** at Thu Apr 23 17:20:06 2020

   => Loading Basis Set <=

    Name: AUG-CC-PVDZ
    Role: ORBITAL
    Keyword: BASIS
    atoms 1-6         entry C          line   182 file /home/liuchw/anaconda3/envs/psi4env/share/psi4/basis/aug-cc-pvdz.gbs 
    atoms 7, 14       entry O          line   254 file /home/liuchw/anaconda3/envs/psi4env/share/psi4/basis/aug-cc-pvdz.gbs 
    atoms 8-13, 15-16 entry H          line    40 file /home/liuchw/anaconda3/envs/psi4env/share/psi4/basis/aug-cc-pvdz.gbs 


         ---------------------------------------------------------
                                   SCF
               by Justin Turney, Rob Parrish, Andy Simmonett
                          and Daniel G. A. Smith
                              RHF Reference
                        8 Threads,  19073 MiB Core
         ---------------------------------------------------------

  ==> Geometry <==

    Molecular point group: c1
    Full point group: C1

    Geometry (in Angstrom), charge = 0, multiplicity = 1:

       Center              X                  Y                   Z               Mass       
    ------------   -----------------  -----------------  -----------------  -----------------
         C           -0.431193463100     0.585736596983     0.255116741893    12.000000000000
         C           -0.061523463100     1.927126596983     0.184146741893    12.000000000000
         C            1.158696536900     2.297156596983    -0.375323258107    12.000000000000
         C            2.010716536900     1.308526596983    -0.865923258107    12.000000000000
         C            1.650136536900    -0.032983403017    -0.799353258107    12.000000000000
         C            0.426266536900    -0.400473403017    -0.237913258107    12.000000000000
         O            0.123726536900    -1.725913403017    -0.198073258107    15.994914619570
         H           -1.379813463100     0.298846596983     0.690116741893     1.007825032230
         H           -0.733453463100     2.682466596983     0.569096741893     1.007825032230
         H            1.441886536900     3.338686596983    -0.428563258107     1.007825032230
         H            2.961826536900     1.580636596983    -1.303313258107     1.007825032230
         H            2.301446536900    -0.809203403017    -1.176023258107     1.007825032230
         H           -0.748033463100    -1.838793403017     0.213766741893     1.007825032230
      Gh(O)          -3.454553463100    -2.496413403017     1.467856741893    15.994914619570
      Gh(H)          -4.116513463100    -2.911733403017     0.910286741893     1.007825032230
      Gh(H)          -3.459043463100    -3.020903403017     2.271876741893     1.007825032230

  Running in c1 symmetry.

  Rotational constants: A =      0.13035  B =      0.02794  C =      0.02308 [cm^-1]
  Rotational constants: A =   3907.76158  B =    837.59692  C =    691.94107 [MHz]
  Nuclear repulsion =  271.469533690793980

  Charge       = 0
  Multiplicity = 1
  Electrons    = 50
  Nalpha       = 25
  Nbeta        = 25

  ==> Algorithm <==

  SCF Algorithm Type is DF.
  DIIS enabled.
  MOM disabled.
  Fractional occupation disabled.
  Guess Type is SAD.
  Energy threshold   = 1.00e-08
  Density threshold  = 1.00e-08
  Integral threshold = 0.00e+00

  ==> Primary Basis <==

  Basis Set: AUG-CC-PVDZ
    Blend: AUG-CC-PVDZ
    Number of shells: 112
    Number of basis function: 256
    Number of Cartesian functions: 272
    Spherical Harmonics?: true
    Max angular momentum: 2

   => Loading Basis Set <=

    Name: (AUG-CC-PVDZ AUX)
    Role: JKFIT
    Keyword: DF_BASIS_SCF
    atoms 1-6         entry C          line   154 file /home/liuchw/anaconda3/envs/psi4env/share/psi4/basis/aug-cc-pvdz-jkfit.gbs 
    atoms 7, 14       entry O          line   270 file /home/liuchw/anaconda3/envs/psi4env/share/psi4/basis/aug-cc-pvdz-jkfit.gbs 
    atoms 8-13, 15-16 entry H          line    70 file /home/liuchw/anaconda3/envs/psi4env/share/psi4/basis/aug-cc-pvdz-jkfit.gbs 

  ==> Pre-Iterations <==

   -------------------------------------------------------
    Irrep   Nso     Nmo     Nalpha   Nbeta   Ndocc  Nsocc
   -------------------------------------------------------
     A        256     256       0       0       0       0
   -------------------------------------------------------
    Total     256     256      25      25      25       0
   -------------------------------------------------------

  ==> Integral Setup <==

  ==> DiskDFJK: Density-Fitted J/K Matrices <==

    J tasked:                  Yes
    K tasked:                  Yes
    wK tasked:                  No
    OpenMP threads:              8
    Integrals threads:           8
    Memory [MiB]:            14305
    Algorithm:                Core
    Integral Cache:           LOAD
    Schwarz Cutoff:          1E-12
    Fitting Condition:       1E-10

   => Auxiliary Basis Set <=

  Basis Set: (AUG-CC-PVDZ AUX)
    Blend: AUG-CC-PVDZ-JKFIT
    Number of shells: 320
    Number of basis function: 944
    Number of Cartesian functions: 1088
    Spherical Harmonics?: true
    Max angular momentum: 3

  Minimum eigenvalue in the overlap matrix is 2.2688165345E-06.
  Using Symmetric Orthogonalization.

  SCF Guess: Superposition of Atomic Densities via on-the-fly atomic UHF.

  ==> Iterations <==

                           Total Energy        Delta E     RMS |[F,P]|

   @DF-RHF iter SAD:  -305.00709484309186   -3.05007e+02   0.00000e+00 
   @DF-RHF iter   1:  -305.39340787434259   -3.86313e-01   2.28227e-03 DIIS
   @DF-RHF iter   2:  -305.56193286463912   -1.68525e-01   1.07214e-03 DIIS
   @DF-RHF iter   3:  -305.59896791770916   -3.70351e-02   1.78925e-04 DIIS
   @DF-RHF iter   4:  -305.60077337337850   -1.80546e-03   5.92993e-05 DIIS
   @DF-RHF iter   5:  -305.60091058513683   -1.37212e-04   1.55486e-05 DIIS
   @DF-RHF iter   6:  -305.60092558875647   -1.50036e-05   4.68366e-06 DIIS
   @DF-RHF iter   7:  -305.60092726054228   -1.67179e-06   1.53100e-06 DIIS
   @DF-RHF iter   8:  -305.60092744495569   -1.84413e-07   5.01325e-07 DIIS
   @DF-RHF iter   9:  -305.60092746846095   -2.35053e-08   1.54812e-07 DIIS
   @DF-RHF iter  10:  -305.60092747082780   -2.36685e-09   7.44403e-08 DIIS
   @DF-RHF iter  11:  -305.60092747165493   -8.27129e-10   3.44854e-08 DIIS
   @DF-RHF iter  12:  -305.60092747192658   -2.71655e-10   1.39067e-08 DIIS
   @DF-RHF iter  13:  -305.60092747196546   -3.88809e-11   5.48381e-09 DIIS
  Energy and wave function converged.


  ==> Post-Iterations <==

    Orbital Energies [Eh]
    ---------------------

    Doubly Occupied:                                                      

       1A    -20.604243     2A    -11.310706     3A    -11.249105  
       4A    -11.247062     5A    -11.240758     6A    -11.234552  
       7A    -11.233601     8A     -1.413723     9A     -1.151032  
      10A     -1.023635    11A     -1.008752    12A     -0.850667  
      13A     -0.826265    14A     -0.736979    15A     -0.688198  
      16A     -0.655787    17A     -0.612564    18A     -0.593487  
      19A     -0.592589    20A     -0.571121    21A     -0.518992  
      22A     -0.494263    23A     -0.483858    24A     -0.343052  
      25A     -0.315527  

    Virtual:                                                              

      26A      0.025082    27A      0.038858    28A      0.043495  
      29A      0.053876    30A      0.057847    31A      0.059287  
      32A      0.070631    33A      0.077825    34A      0.104622  
      35A      0.116028    36A      0.116616    37A      0.128276  
      38A      0.134920    39A      0.142518    40A      0.142936  
      41A      0.147913    42A      0.149495    43A      0.151933  
      44A      0.154497    45A      0.161174    46A      0.167061  
      47A      0.172845    48A      0.177566    49A      0.181127  
      50A      0.182846    51A      0.192030    52A      0.196999  
      53A      0.198582    54A      0.199650    55A      0.212277  
      56A      0.216399    57A      0.257285    58A      0.263378  
      59A      0.272488    60A      0.279451    61A      0.298554  
      62A      0.303519    63A      0.310942    64A      0.315646  
      65A      0.327123    66A      0.335370    67A      0.352943  
      68A      0.356362    69A      0.362661    70A      0.368791  
      71A      0.376842    72A      0.379221    73A      0.383763  
      74A      0.385908    75A      0.396642    76A      0.403340  
      77A      0.413684    78A      0.416248    79A      0.423144  
      80A      0.428785    81A      0.444382    82A      0.465676  
      83A      0.469746    84A      0.472035    85A      0.478581  
      86A      0.492525    87A      0.503522    88A      0.507842  
      89A      0.515156    90A      0.526120    91A      0.541872  
      92A      0.551858    93A      0.556427    94A      0.559926  
      95A      0.587588    96A      0.592947    97A      0.598445  
      98A      0.608263    99A      0.612996   100A      0.618543  
     101A      0.620852   102A      0.623765   103A      0.653248  
     104A      0.667155   105A      0.675659   106A      0.680237  
     107A      0.681665   108A      0.690142   109A      0.706005  
     110A      0.709353   111A      0.718732   112A      0.728353  
     113A      0.739862   114A      0.750622   115A      0.766419  
     116A      0.770255   117A      0.781460   118A      0.797358  
     119A      0.814487   120A      0.826182   121A      0.849175  
     122A      0.868564   123A      0.876569   124A      0.885020  
     125A      0.886551   126A      0.897358   127A      0.923950  
     128A      0.926903   129A      0.935046   130A      0.942192  
     131A      0.947780   132A      0.964515   133A      0.967802  
     134A      0.982149   135A      0.989419   136A      1.006010  
     137A      1.014783   138A      1.045970   139A      1.062030  
     140A      1.068399   141A      1.093494   142A      1.106373  
     143A      1.126563   144A      1.134137   145A      1.167742  
     146A      1.174116   147A      1.177204   148A      1.195039  
     149A      1.259641   150A      1.262602   151A      1.276543  
     152A      1.300433   153A      1.326588   154A      1.359667  
     155A      1.365557   156A      1.371366   157A      1.394982  
     158A      1.432377   159A      1.462421   160A      1.481150  
     161A      1.488717   162A      1.490704   163A      1.534848  
     164A      1.563049   165A      1.569193   166A      1.571107  
     167A      1.597622   168A      1.605897   169A      1.631898  
     170A      1.641544   171A      1.643102   172A      1.661746  
     173A      1.697809   174A      1.698062   175A      1.707152  
     176A      1.708248   177A      1.718986   178A      1.726203  
     179A      1.777984   180A      1.795082   181A      1.825178  
     182A      1.866300   183A      1.896951   184A      1.898732  
     185A      1.918752   186A      1.950642   187A      1.954945  
     188A      1.961494   189A      1.970963   190A      1.982849  
     191A      1.983544   192A      2.009107   193A      2.040171  
     194A      2.072602   195A      2.099711   196A      2.121109  
     197A      2.125577   198A      2.153546   199A      2.193432  
     200A      2.196978   201A      2.209257   202A      2.222965  
     203A      2.240810   204A      2.253205   205A      2.258856  
     206A      2.289773   207A      2.320773   208A      2.346560  
     209A      2.356978   210A      2.373224   211A      2.376881  
     212A      2.395190   213A      2.409175   214A      2.473291  
     215A      2.487723   216A      2.525996   217A      2.556676  
     218A      2.621018   219A      2.622572   220A      2.665910  
     221A      2.736995   222A      2.771171   223A      2.813275  
     224A      2.820626   225A      2.839398   226A      2.931574  
     227A      2.961617   228A      2.979574   229A      3.017616  
     230A      3.109975   231A      3.151049   232A      3.187621  
     233A      3.209532   234A      3.306999   235A      3.324669  
     236A      3.393845   237A      3.546189   238A      3.607645  
     239A      3.749711   240A      3.779524   241A      3.825319  
     242A      3.897588   243A      3.914371   244A      4.012109  
     245A      4.049411   246A      4.384626   247A      4.787346  
     248A      4.941594   249A      4.949077   250A      4.999677  
     251A      5.084231   252A      5.380579   253A      5.631576  
     254A      6.581718   255A      7.035803   256A     33.536258  

    Final Occupation by Irrep:
              A 
    DOCC [    25 ]

  @DF-RHF Final Energy:  -305.60092747196546

   => Energetics <=

    Nuclear Repulsion Energy =            271.4695336907939804
    One-Electron Energy =                -952.1398862402811574
    Two-Electron Energy =                 375.0694250775217711
    Total Energy =                       -305.6009274719654627

Computation Completed


Properties will be evaluated at   0.000000,   0.000000,   0.000000 [a0]

Properties computed using the SCF density matrix

  Nuclear Dipole Moment: [e a0]
     X:    63.0267      Y:    48.2936      Z:   -26.5601

  Electronic Dipole Moment: [e a0]
     X:   -63.4693      Y:   -48.0906      Z:    26.7901

  Dipole Moment: [e a0]
     X:    -0.4427      Y:     0.2030      Z:     0.2300     Total:     0.5386

  Dipole Moment: [D]
     X:    -1.1251      Y:     0.5160      Z:     0.5846     Total:     1.3689


*** tstop() called on node50.bme.utexas.edu at Thu Apr 23 17:20:11 2020
Module time:
	user time   =      28.24 seconds =       0.47 minutes
	system time =       0.92 seconds =       0.02 minutes
	total time  =          5 seconds =       0.08 minutes
Total time:
	user time   =      76.14 seconds =       1.27 minutes
	system time =       2.06 seconds =       0.03 minutes
	total time  =         12 seconds =       0.20 minutes

  //>>>>>>>>>>>>>>>>>>>>>>>>>>>>>>>>>>>//
  //            Monomer B HF           //
  //<<<<<<<<<<<<<<<<<<<<<<<<<<<<<<<<<<<//


*** tstart() called on node50.bme.utexas.edu
*** at Thu Apr 23 17:20:11 2020

   => Loading Basis Set <=

    Name: AUG-CC-PVDZ
    Role: ORBITAL
    Keyword: BASIS
    atoms 1-6         entry C          line   182 file /home/liuchw/anaconda3/envs/psi4env/share/psi4/basis/aug-cc-pvdz.gbs 
    atoms 7, 14       entry O          line   254 file /home/liuchw/anaconda3/envs/psi4env/share/psi4/basis/aug-cc-pvdz.gbs 
    atoms 8-13, 15-16 entry H          line    40 file /home/liuchw/anaconda3/envs/psi4env/share/psi4/basis/aug-cc-pvdz.gbs 


         ---------------------------------------------------------
                                   SCF
               by Justin Turney, Rob Parrish, Andy Simmonett
                          and Daniel G. A. Smith
                              RHF Reference
                        8 Threads,  19073 MiB Core
         ---------------------------------------------------------

  ==> Geometry <==

    Molecular point group: c1
    Full point group: C1

    Geometry (in Angstrom), charge = 0, multiplicity = 1:

       Center              X                  Y                   Z               Mass       
    ------------   -----------------  -----------------  -----------------  -----------------
      Gh(C)          -0.431193463100     0.585736596983     0.255116741893    12.000000000000
      Gh(C)          -0.061523463100     1.927126596983     0.184146741893    12.000000000000
      Gh(C)           1.158696536900     2.297156596983    -0.375323258107    12.000000000000
      Gh(C)           2.010716536900     1.308526596983    -0.865923258107    12.000000000000
      Gh(C)           1.650136536900    -0.032983403017    -0.799353258107    12.000000000000
      Gh(C)           0.426266536900    -0.400473403017    -0.237913258107    12.000000000000
      Gh(O)           0.123726536900    -1.725913403017    -0.198073258107    15.994914619570
      Gh(H)          -1.379813463100     0.298846596983     0.690116741893     1.007825032230
      Gh(H)          -0.733453463100     2.682466596983     0.569096741893     1.007825032230
      Gh(H)           1.441886536900     3.338686596983    -0.428563258107     1.007825032230
      Gh(H)           2.961826536900     1.580636596983    -1.303313258107     1.007825032230
      Gh(H)           2.301446536900    -0.809203403017    -1.176023258107     1.007825032230
      Gh(H)          -0.748033463100    -1.838793403017     0.213766741893     1.007825032230
         O           -3.454553463100    -2.496413403017     1.467856741893    15.994914619570
         H           -4.116513463100    -2.911733403017     0.910286741893     1.007825032230
         H           -3.459043463100    -3.020903403017     2.271876741893     1.007825032230

  Running in c1 symmetry.

  Rotational constants: A =      0.13035  B =      0.02794  C =      0.02308 [cm^-1]
  Rotational constants: A =   3907.76158  B =    837.59692  C =    691.94107 [MHz]
  Nuclear repulsion =    9.168874105790348

  Charge       = 0
  Multiplicity = 1
  Electrons    = 10
  Nalpha       = 5
  Nbeta        = 5

  ==> Algorithm <==

  SCF Algorithm Type is DF.
  DIIS enabled.
  MOM disabled.
  Fractional occupation disabled.
  Guess Type is SAD.
  Energy threshold   = 1.00e-08
  Density threshold  = 1.00e-08
  Integral threshold = 0.00e+00

  ==> Primary Basis <==

  Basis Set: AUG-CC-PVDZ
    Blend: AUG-CC-PVDZ
    Number of shells: 112
    Number of basis function: 256
    Number of Cartesian functions: 272
    Spherical Harmonics?: true
    Max angular momentum: 2

   => Loading Basis Set <=

    Name: (AUG-CC-PVDZ AUX)
    Role: JKFIT
    Keyword: DF_BASIS_SCF
    atoms 1-6         entry C          line   154 file /home/liuchw/anaconda3/envs/psi4env/share/psi4/basis/aug-cc-pvdz-jkfit.gbs 
    atoms 7, 14       entry O          line   270 file /home/liuchw/anaconda3/envs/psi4env/share/psi4/basis/aug-cc-pvdz-jkfit.gbs 
    atoms 8-13, 15-16 entry H          line    70 file /home/liuchw/anaconda3/envs/psi4env/share/psi4/basis/aug-cc-pvdz-jkfit.gbs 

  ==> Pre-Iterations <==

   -------------------------------------------------------
    Irrep   Nso     Nmo     Nalpha   Nbeta   Ndocc  Nsocc
   -------------------------------------------------------
     A        256     256       0       0       0       0
   -------------------------------------------------------
    Total     256     256       5       5       5       0
   -------------------------------------------------------

  ==> Integral Setup <==

  ==> DiskDFJK: Density-Fitted J/K Matrices <==

    J tasked:                  Yes
    K tasked:                  Yes
    wK tasked:                  No
    OpenMP threads:              8
    Integrals threads:           8
    Memory [MiB]:            14305
    Algorithm:                Core
    Integral Cache:           LOAD
    Schwarz Cutoff:          1E-12
    Fitting Condition:       1E-10

   => Auxiliary Basis Set <=

  Basis Set: (AUG-CC-PVDZ AUX)
    Blend: AUG-CC-PVDZ-JKFIT
    Number of shells: 320
    Number of basis function: 944
    Number of Cartesian functions: 1088
    Spherical Harmonics?: true
    Max angular momentum: 3

  Minimum eigenvalue in the overlap matrix is 2.2688165345E-06.
  Using Symmetric Orthogonalization.

  SCF Guess: Superposition of Atomic Densities via on-the-fly atomic UHF.

  ==> Iterations <==

                           Total Energy        Delta E     RMS |[F,P]|

   @DF-RHF iter SAD:   -75.46314148645888   -7.54631e+01   0.00000e+00 
   @DF-RHF iter   1:   -75.95711578833414   -4.93974e-01   1.77001e-03 DIIS
   @DF-RHF iter   2:   -76.01030411833688   -5.31883e-02   1.15655e-03 DIIS
   @DF-RHF iter   3:   -76.04095098319104   -3.06469e-02   8.29784e-05 DIIS
   @DF-RHF iter   4:   -76.04132914918429   -3.78166e-04   1.86448e-05 DIIS
   @DF-RHF iter   5:   -76.04135055767003   -2.14085e-05   4.21059e-06 DIIS
   @DF-RHF iter   6:   -76.04135225498109   -1.69731e-06   8.48811e-07 DIIS
   @DF-RHF iter   7:   -76.04135232818560   -7.32045e-08   1.41459e-07 DIIS
   @DF-RHF iter   8:   -76.04135233005823   -1.87264e-09   2.20221e-08 DIIS
   @DF-RHF iter   9:   -76.04135233009782   -3.95914e-11   5.71262e-09 DIIS
  Energy and wave function converged.


  ==> Post-Iterations <==

    Orbital Energies [Eh]
    ---------------------

    Doubly Occupied:                                                      

       1A    -20.577867     2A     -1.355424     3A     -0.717376  
       4A     -0.585560     5A     -0.509267  

    Virtual:                                                              

       6A      0.024939     7A      0.034486     8A      0.040712  
       9A      0.049841    10A      0.057232    11A      0.062758  
      12A      0.071651    13A      0.083266    14A      0.090843  
      15A      0.099105    16A      0.115953    17A      0.123649  
      18A      0.125891    19A      0.130387    20A      0.137491  
      21A      0.146552    22A      0.154496    23A      0.161608  
      24A      0.163179    25A      0.163194    26A      0.167732  
      27A      0.170652    28A      0.182434    29A      0.191922  
      30A      0.199326    31A      0.199457    32A      0.208172  
      33A      0.232064    34A      0.238812    35A      0.249096  
      36A      0.251876    37A      0.258093    38A      0.260667  
      39A      0.272101    40A      0.283483    41A      0.290032  
      42A      0.294783    43A      0.303108    44A      0.307661  
      45A      0.315293    46A      0.327367    47A      0.345422  
      48A      0.376923    49A      0.381283    50A      0.382514  
      51A      0.386108    52A      0.386794    53A      0.405138  
      54A      0.411766    55A      0.423901    56A      0.428189  
      57A      0.429133    58A      0.446108    59A      0.457165  
      60A      0.461740    61A      0.473045    62A      0.473474  
      63A      0.483475    64A      0.485413    65A      0.505584  
      66A      0.506984    67A      0.515646    68A      0.525601  
      69A      0.542123    70A      0.545312    71A      0.552744  
      72A      0.556699    73A      0.570642    74A      0.581159  
      75A      0.584590    76A      0.586882    77A      0.616866  
      78A      0.624361    79A      0.630839    80A      0.652062  
      81A      0.660029    82A      0.661997    83A      0.682659  
      84A      0.692885    85A      0.702982    86A      0.710898  
      87A      0.713488    88A      0.718532    89A      0.742854  
      90A      0.757124    91A      0.773066    92A      0.798891  
      93A      0.805849    94A      0.819662    95A      0.830044  
      96A      0.832783    97A      0.847124    98A      0.862150  
      99A      0.877279   100A      0.878486   101A      0.886151  
     102A      0.896623   103A      0.902269   104A      0.912021  
     105A      0.913838   106A      0.929141   107A      0.939028  
     108A      0.947223   109A      0.963177   110A      0.984863  
     111A      1.006871   112A      1.021320   113A      1.032201  
     114A      1.038971   115A      1.047263   116A      1.072141  
     117A      1.088036   118A      1.088370   119A      1.129889  
     120A      1.140958   121A      1.151000   122A      1.161394  
     123A      1.170944   124A      1.194153   125A      1.227113  
     126A      1.235023   127A      1.256046   128A      1.293988  
     129A      1.311964   130A      1.338631   131A      1.368879  
     132A      1.375734   133A      1.395171   134A      1.424656  
     135A      1.451101   136A      1.484860   137A      1.487226  
     138A      1.492221   139A      1.515620   140A      1.548032  
     141A      1.555537   142A      1.558713   143A      1.575299  
     144A      1.609671   145A      1.642834   146A      1.725532  
     147A      1.750112   148A      1.870364   149A      1.919566  
     150A      2.010567   151A      2.022657   152A      2.065934  
     153A      2.092002   154A      2.141095   155A      2.144592  
     156A      2.151990   157A      2.153295   158A      2.164769  
     159A      2.199536   160A      2.208108   161A      2.210545  
     162A      2.233331   163A      2.235240   164A      2.271934  
     165A      2.280501   166A      2.283633   167A      2.298689  
     168A      2.305922   169A      2.323803   170A      2.326736  
     171A      2.336856   172A      2.398864   173A      2.431511  
     174A      2.472791   175A      2.480849   176A      2.494935  
     177A      2.521504   178A      2.530559   179A      2.533456  
     180A      2.560587   181A      2.620093   182A      2.630169  
     183A      2.636426   184A      2.640394   185A      2.645894  
     186A      2.646558   187A      2.664453   188A      2.690301  
     189A      2.699377   190A      2.725765   191A      2.730127  
     192A      2.771592   193A      2.808237   194A      2.830806  
     195A      2.853603   196A      2.859037   197A      2.873208  
     198A      2.877792   199A      2.901080   200A      2.942532  
     201A      2.986197   202A      3.022149   203A      3.023180  
     204A      3.196333   205A      3.254601   206A      3.272462  
     207A      3.363569   208A      3.404461   209A      3.406198  
     210A      3.408804   211A      3.427207   212A      3.457648  
     213A      3.467911   214A      3.513546   215A      3.533512  
     216A      3.560200   217A      3.691113   218A      3.703874  
     219A      3.718502   220A      3.759587   221A      3.852109  
     222A      3.902357   223A      3.972370   224A      4.041206  
     225A      4.047511   226A      4.068141   227A      4.214149  
     228A      4.285942   229A      4.314772   230A      4.402483  
     231A      4.516885   232A      4.656041   233A      4.878734  
     234A      4.932899   235A      4.993288   236A      5.004819  
     237A      5.084181   238A      5.105168   239A      5.263678  
     240A      5.462020   241A      5.474469   242A      5.512413  
     243A      5.631743   244A      5.742246   245A      5.844023  
     246A      5.983331   247A      6.013884   248A      6.775349  
     249A      7.110141   250A     17.999501   251A     18.403924  
     252A     18.469703   253A     19.046582   254A     19.063537  
     255A     20.620708   256A     33.587922  

    Final Occupation by Irrep:
              A 
    DOCC [     5 ]

  @DF-RHF Final Energy:   -76.04135233009782

   => Energetics <=

    Nuclear Repulsion Energy =              9.1688741057903478
    One-Electron Energy =                -122.9294635780368026
    Two-Electron Energy =                  37.7192371421486214
    Total Energy =                        -76.0413523300978227

Computation Completed


Properties will be evaluated at   0.000000,   0.000000,   0.000000 [a0]

Properties computed using the SCF density matrix

  Nuclear Dipole Moment: [e a0]
     X:   -66.5410      Y:   -48.9514      Z:    28.2042

  Electronic Dipole Moment: [e a0]
     X:    66.0946      Y:    48.3219      Z:   -28.0391

  Dipole Moment: [e a0]
     X:    -0.4464      Y:    -0.6295      Z:     0.1651     Total:     0.7891

  Dipole Moment: [D]
     X:    -1.1346      Y:    -1.5999      Z:     0.4196     Total:     2.0058


*** tstop() called on node50.bme.utexas.edu at Thu Apr 23 17:20:14 2020
Module time:
	user time   =      17.62 seconds =       0.29 minutes
	system time =       0.50 seconds =       0.01 minutes
	total time  =          3 seconds =       0.05 minutes
Total time:
	user time   =      93.80 seconds =       1.56 minutes
	system time =       2.56 seconds =       0.04 minutes
	total time  =         15 seconds =       0.25 minutes
  Constructing Basis Sets for SAPT...

   => Loading Basis Set <=

    Name: (AUG-CC-PVDZ AUX)
    Role: RIFIT
    Keyword: DF_BASIS_SAPT
    atoms 1-6         entry C          line   112 file /home/liuchw/anaconda3/envs/psi4env/share/psi4/basis/aug-cc-pvdz-ri.gbs 
    atoms 7, 14       entry O          line   204 file /home/liuchw/anaconda3/envs/psi4env/share/psi4/basis/aug-cc-pvdz-ri.gbs 
    atoms 8-13, 15-16 entry H          line    30 file /home/liuchw/anaconda3/envs/psi4env/share/psi4/basis/aug-cc-pvdz-ri.gbs 


  //>>>>>>>>>>>>>>>>>>>>>>>>>>>>>>>>>>>//
  //               SAPT2+              //
  //<<<<<<<<<<<<<<<<<<<<<<<<<<<<<<<<<<<//


*** tstart() called on node50.bme.utexas.edu
*** at Thu Apr 23 17:20:14 2020

        SAPT2+  
    Ed Hohenstein
     6 June 2009

      Orbital Information
  --------------------------
    NSO        =       256
    NMO        =       256
    NRI        =       760
    NOCC A     =        25
    NOCC B     =         5
    FOCC A     =         7
    FOCC B     =         1
    NVIR A     =       231
    NVIR B     =       251

    Estimated memory usage: 1328.1 MB

    Natural Orbital Cutoff:   1.000E-06
    Disp(T3) Truncation:            Yes
    CCD (vv|vv) Truncation:         Yes
    MBPT T2 Truncation:             Yes

    Monomer A: 53 virtual orbitals dropped
    Monomer B: 215 virtual orbitals dropped

    Elst10,r            =    -0.003972991156 [Eh]
    Exch10 (S^2)        =     0.000229901737 [Eh]
    Exch10              =     0.000229946763 [Eh]
    Ind20,r (A<-B)      =    -0.000169761325 [Eh]
    Ind20,r (B<-A)      =    -0.000158199947 [Eh]
    Ind20,r             =    -0.000327961272 [Eh]
    Exch-Ind20,r (A<-B) =     0.000009522192 [Eh]
    Exch-Ind20,r (B<-A) =     0.000022951955 [Eh]
    Exch-Ind20,r        =     0.000032474147 [Eh]
    Disp20              =    -0.000694426401 [Eh]
    Disp20 (NO)         =    -0.000649156968 [Eh]
    Exch-Disp20         =     0.000021988420 [Eh]
    Elst12,r            =     0.000330546287 [Eh]
    Exch11              =    -0.000004925873 [Eh]
    Exch12              =     0.000092181286 [Eh]
    Ind22               =    -0.000018674281 [Eh]
    Disp21              =     0.000053230024 [Eh]
    Disp22 (SDQ)        =    -0.000027864864 [Eh]

    (i =   1 of   4)          8 seconds
    (i =   2 of   4)         15 seconds
    (i =   3 of   4)         22 seconds
    (i =   4 of   4)         30 seconds

    Disp220 (T)         =    -0.000065494437 [Eh]

    (i =   1 of  18)          0 seconds
    (i =   2 of  18)          0 seconds
    (i =   3 of  18)          0 seconds
    (i =   4 of  18)          0 seconds
    (i =   5 of  18)          1 seconds
    (i =   6 of  18)          1 seconds
    (i =   7 of  18)          1 seconds
    (i =   8 of  18)          1 seconds
    (i =   9 of  18)          1 seconds
    (i =  10 of  18)          1 seconds
    (i =  11 of  18)          1 seconds
    (i =  12 of  18)          1 seconds
    (i =  13 of  18)          1 seconds
    (i =  14 of  18)          2 seconds
    (i =  15 of  18)          2 seconds
    (i =  16 of  18)          2 seconds
    (i =  17 of  18)          2 seconds
    (i =  18 of  18)          2 seconds

    Disp202 (T)         =    -0.000056048896 [Eh]

    Disp22 (T)          =    -0.000121543333 [Eh]

    Est. Disp220 (T)    =    -0.000070061739 [Eh]
    Est. Disp202 (T)    =    -0.000059957506 [Eh]

    Est. Disp22 (T)     =    -0.000130019245 [Eh]

    SAPT Results 
  --------------------------------------------------------------------------------------------------------
    Electrostatics                 -3.64244487 [mEh]      -2.28566866 [kcal/mol]      -9.56323769 [kJ/mol]
      Elst10,r                     -3.97299116 [mEh]      -2.49308959 [kcal/mol]     -10.43108684 [kJ/mol]
      Elst12,r                      0.33054629 [mEh]       0.20742093 [kcal/mol]       0.86784916 [kJ/mol]

    Exchange                        0.31720218 [mEh]       0.19904737 [kcal/mol]       0.83281420 [kJ/mol]
      Exch10                        0.22994676 [mEh]       0.14429377 [kcal/mol]       0.60372514 [kJ/mol]
      Exch10(S^2)                   0.22990174 [mEh]       0.14426552 [kcal/mol]       0.60360693 [kJ/mol]
      Exch11(S^2)                  -0.00492587 [mEh]      -0.00309103 [kcal/mol]      -0.01293288 [kJ/mol]
      Exch12(S^2)                   0.09218129 [mEh]       0.05784463 [kcal/mol]       0.24202193 [kJ/mol]

    Induction                      -0.35210178 [mEh]      -0.22094720 [kcal/mol]      -0.92444309 [kJ/mol]
      Ind20,r                      -0.32796127 [mEh]      -0.20579881 [kcal/mol]      -0.86106220 [kJ/mol]
      Ind22                        -0.01867428 [mEh]      -0.01171829 [kcal/mol]      -0.04902932 [kJ/mol]
      Exch-Ind20,r                  0.03247415 [mEh]       0.02037783 [kcal/mol]       0.08526086 [kJ/mol]
      Exch-Ind22                    0.00184909 [mEh]       0.00116032 [kcal/mol]       0.00485480 [kJ/mol]
      delta HF,r (2)               -0.03978946 [mEh]      -0.02496827 [kcal/mol]      -0.10446722 [kJ/mol]

    Dispersion                     -0.77709207 [mEh]      -0.48763263 [kcal/mol]      -2.04025494 [kJ/mol]
      Disp20                       -0.69442640 [mEh]      -0.43575915 [kcal/mol]      -1.82321626 [kJ/mol]
      Disp21                        0.05323002 [mEh]       0.03340234 [kcal/mol]       0.13975541 [kJ/mol]
      Disp22 (SDQ)                 -0.02786486 [mEh]      -0.01748547 [kcal/mol]      -0.07315919 [kJ/mol]
      Disp22 (T)                   -0.12154333 [mEh]      -0.07626959 [kcal/mol]      -0.31911198 [kJ/mol]
      Est. Disp22 (T)              -0.13001925 [mEh]      -0.08158831 [kcal/mol]      -0.34136548 [kJ/mol]
      Exch-Disp20                   0.02198842 [mEh]       0.01379794 [kcal/mol]       0.05773059 [kJ/mol]

  Total HF                         -4.07832098 [mEh]      -2.55918505 [kcal/mol]     -10.70763027 [kJ/mol]
  Total SAPT0                      -4.75075896 [mEh]      -2.98114626 [kcal/mol]     -12.47311594 [kJ/mol]
  Total SAPT2                      -4.34978245 [mEh]      -2.72952970 [kcal/mol]     -11.42035225 [kJ/mol]
  Total SAPT2+                     -4.45443654 [mEh]      -2.79520113 [kcal/mol]     -11.69512152 [kJ/mol]

  Special recipe for scaled SAPT0 (see Manual):
    Electrostatics sSAPT0          -3.97299116 [mEh]      -2.49308959 [kcal/mol]     -10.43108684 [kJ/mol]
    Exchange sSAPT0                 0.22994676 [mEh]       0.14429377 [kcal/mol]       0.60372514 [kJ/mol]
    Induction sSAPT0               -0.33525751 [mEh]      -0.21037726 [kcal/mol]      -0.88021846 [kJ/mol]
    Dispersion sSAPT0              -0.67242506 [mEh]      -0.42195310 [kcal/mol]      -1.76545175 [kJ/mol]
  Total sSAPT0                     -4.75072696 [mEh]      -2.98112617 [kcal/mol]     -12.47303191 [kJ/mol]
  --------------------------------------------------------------------------------------------------------

*** tstop() called on node50.bme.utexas.edu at Thu Apr 23 17:21:53 2020
Module time:
	user time   =     727.02 seconds =      12.12 minutes
	system time =      23.27 seconds =       0.39 minutes
	total time  =         99 seconds =       1.65 minutes
Total time:
	user time   =     821.79 seconds =      13.70 minutes
	system time =      25.87 seconds =       0.43 minutes
	total time  =        114 seconds =       1.90 minutes

    Psi4 stopped on: Thursday, 23 April 2020 05:21PM
    Psi4 wall time for execution: 0:01:54.09

*** Psi4 exiting successfully. Buy a developer a beer!
