    -----------------------------------------------------------------------
          PSI4: An Open-Source Ab Initio Electronic Structure Package
                              PSI 4.0.0-beta4 Driver

    J. M. Turney, A. C. Simmonett, R. M. Parrish, E. G. Hohenstein,
    F. A. Evangelista, J. T. Fermann, B. J. Mintz, L. A. Burns, J. J. Wilke,
    M. L. Abrams, N. J. Russ, M. L. Leininger, C. L. Janssen, E. T. Seidl,
    W. D. Allen, H. F. Schaefer, R. A. King, E. F. Valeev, C. D. Sherrill,
    and T. D. Crawford, WIREs Comput. Mol. Sci., (2011) (doi: 10.1002/wcms.93)

                         Additional Contributions by
    A. E. DePrince, M. Saitow, U. Bozkaya, A. Yu. Sokolov
    -----------------------------------------------------------------------

    Process ID:  13353
    PSI4DATADIR: /home/xzhu216/psi4/psi4-install/share/psi

    Using LocalCommunicator (Number of processes = 1)

    Memory level set to 256.000 MB

  ==> Input File <==

--------------------------------------------------------------------------
#psi4
#
memory 7 gb

molecule Phenol_Water {
0 1
    C    -3.555223000    -0.145046000     0.625060000
    C    -3.185554000     1.196342000     0.554092000
    C    -1.965326000     1.566373000    -0.005380000
    C    -1.113308000     0.577738000    -0.495979000
    C    -1.473895000    -0.763769000    -0.429408000
    C    -2.697757000    -1.131256000     0.132028000
    O    -3.000301000    -2.456699000     0.171874000
    H    -4.503836000    -0.431942000     1.060056000
    H    -3.857477000     1.951677000     0.939040000
    H    -1.682144000     2.607902000    -0.058619000
    H    -0.162195000     0.849846000    -0.933373000
    H    -0.822577000    -1.539991000    -0.806084000
    H    -3.872056000    -2.569582000     0.583707000
--
0 1
    O    -5.563635000    -2.980593000     1.367514000
    H    -6.225595000    -3.395911000     0.809941000
    H    -5.568121000    -3.505089000     2.171535000
units angstrom
no_reorient  #important for SAPT in psi4, default
symmetry c1  #important for SAPT in psi4, default
}

set {
basis aug-cc-pVDZ
scf_type DF
freeze_core True
}
energy('sapt2+')
--------------------------------------------------------------------------

  Memory set to   7.000 GiB by Python script.

  //>>>>>>>>>>>>>>>>>>>>>>>>>>>>>>>>>>>//
  //              Dimer HF             //
  //<<<<<<<<<<<<<<<<<<<<<<<<<<<<<<<<<<<//


  No DF_BASIS_SCF auxiliary basis selected, defaulting to aug-cc-pvdz-jkfit


*** tstart() called on node36.bme.utexas.edu
*** at Wed Sep  3 12:38:25 2014


         ---------------------------------------------------------
                                   SCF
            by Justin Turney, Rob Parrish, and Andy Simmonett
                              RHF Reference
                        4 Threads,   7000 MiB Core
         ---------------------------------------------------------

  ==> Geometry <==

    Molecular point group: c1
    Full point group: C1

    Geometry (in Angstrom), charge = 0, multiplicity = 1:

       Center              X                  Y                   Z       
    ------------   -----------------  -----------------  -----------------
           C         -0.594331700860     0.546101320704     0.330706638506
           C         -0.224662700860     1.887489320704     0.259738638506
           C          0.995565299140     2.257520320704    -0.299733361494
           C          1.847583299140     1.268885320704    -0.790332361494
           C          1.486996299140    -0.072621679296    -0.723761361494
           C          0.263134299140    -0.440108679296    -0.162325361494
           O         -0.039409700860    -1.765551679296    -0.122479361494
           H         -1.542944700860     0.259205320704     0.765702638506
           H         -0.896585700860     2.642824320704     0.644686638506
           H          1.278747299140     3.299049320704    -0.352972361494
           H          2.798696299140     1.540993320704    -1.227726361494
           H          2.138314299140    -0.848843679296    -1.100437361494
           H         -0.911164700860    -1.878434679296     0.289353638506
           O         -2.602743700860    -2.289445679296     1.073160638506
           H         -3.264703700860    -2.704763679296     0.515587638506
           H         -2.607229700860    -2.813941679296     1.877181638506

  Running in c1 symmetry.

  Nuclear repulsion =  342.975812075967156

  Charge       = 0
  Multiplicity = 1
  Electrons    = 60
  Nalpha       = 30
  Nbeta        = 30

  ==> Algorithm <==

  SCF Algorithm Type is DF.
  DIIS enabled.
  MOM disabled.
  Fractional occupation disabled.
  Guess Type is CORE.
  Energy threshold   = 1.00e-08
  Density threshold  = 1.00e-08
  Integral threshold = 0.00e+00

  ==> Primary Basis <==

  Basis Set: AUG-CC-PVDZ
    Number of shells: 112
    Number of basis function: 256
    Number of Cartesian functions: 272
    Spherical Harmonics?: true
    Max angular momentum: 2

  ==> Pre-Iterations <==

   -------------------------------------------------------
    Irrep   Nso     Nmo     Nalpha   Nbeta   Ndocc  Nsocc
   -------------------------------------------------------
     A        256     256       0       0       0       0
   -------------------------------------------------------
    Total     256     256      30      30      30       0
   -------------------------------------------------------

 OEINTS: Wrapper to libmints.
   by Justin Turney

   Calculation information:
      Number of atoms:                  16
      Number of AO shells:             112
      Number of SO shells:             112
      Number of primitives:            256
      Number of atomic orbitals:       272
      Number of basis functions:       256

      Number of irreps:                  1
      Number of functions per irrep: [ 256 ]

      Overlap, kinetic, potential, dipole, and quadrupole integrals
        stored in file 35.

  ==> Integral Setup <==

  ==> DFJK: Density-Fitted J/K Matrices <==

    J tasked:                  Yes
    K tasked:                  Yes
    wK tasked:                  No
    OpenMP threads:              4
    Integrals threads:           4
    Memory (MB):              5006
    Algorithm:                Core
    Integral Cache:           SAVE
    Schwarz Cutoff:          0E+00
    Fitting Condition:       1E-12

   => Auxiliary Basis Set <=

  Basis Set: aug-cc-pvdz-jkfit
    Number of shells: 320
    Number of basis function: 944
    Number of Cartesian functions: 1088
    Spherical Harmonics?: true
    Max angular momentum: 3

  Minimum eigenvalue in the overlap matrix is 2.2289871404E-06.
  Using Symmetric Orthogonalization.
  SCF Guess: Core (One-Electron) Hamiltonian.

  Guess energy:  -303.53441773097813

  ==> Iterations <==

                        Total Energy        Delta E     RMS |[F,P]|

   @RHF iter   1:  -287.14810397580334   -2.87148e+02   3.18021e-02 
   @RHF iter   2:   -57.90435211084019    2.29244e+02   6.99990e-02 DIIS
   @RHF iter   3:  -286.50405927900238   -2.28600e+02   2.83438e-02 DIIS
   @RHF iter   4:  -344.76470954917329   -5.82607e+01   2.64472e-02 DIIS
   @RHF iter   5:  -375.78900649131322   -3.10243e+01   1.07951e-02 DIIS
   @RHF iter   6:  -367.95397744987633    7.83503e+00   1.33055e-02 DIIS
   @RHF iter   7:  -381.41230355354162   -1.34583e+01   2.39582e-03 DIIS
   @RHF iter   8:  -381.60577153871941   -1.93468e-01   1.09029e-03 DIIS
   @RHF iter   9:  -381.64306061516822   -3.72891e-02   3.20901e-04 DIIS
   @RHF iter  10:  -381.64903033326698   -5.96972e-03   1.25545e-04 DIIS
   @RHF iter  11:  -381.65024428292065   -1.21395e-03   4.77227e-05 DIIS
   @RHF iter  12:  -381.65048549790015   -2.41215e-04   2.57646e-05 DIIS
   @RHF iter  13:  -381.65056444900972   -7.89511e-05   1.27235e-05 DIIS
   @RHF iter  14:  -381.65058841382267   -2.39648e-05   5.91108e-06 DIIS
   @RHF iter  15:  -381.65059251624621   -4.10242e-06   1.76902e-06 DIIS
   @RHF iter  16:  -381.65059299429834   -4.78052e-07   4.53851e-07 DIIS
   @RHF iter  17:  -381.65059301407587   -1.97775e-08   1.83520e-07 DIIS
   @RHF iter  18:  -381.65059301723306   -3.15720e-09   6.49754e-08 DIIS
   @RHF iter  19:  -381.65059301753831   -3.05249e-10   2.42192e-08 DIIS
   @RHF iter  20:  -381.65059301758299   -4.46789e-11   8.89438e-09 DIIS

  ==> Post-Iterations <==

	Orbital Energies (a.u.)
	-----------------------

	Doubly Occupied:                                                      

	   1A    -20.613755     2A    -20.574719     3A    -11.294332  
	   4A    -11.235940     5A    -11.234677     6A    -11.223747  
	   7A    -11.220969     8A    -11.220532     9A     -1.396609  
	  10A     -1.385961    11A     -1.136989    12A     -1.009757  
	  13A     -0.993878    14A     -0.835443    15A     -0.811195  
	  16A     -0.753681    17A     -0.722012    18A     -0.677251  
	  19A     -0.639182    20A     -0.627275    21A     -0.598833  
	  22A     -0.577882    23A     -0.570666    24A     -0.557227  
	  25A     -0.540346    26A     -0.504442    27A     -0.478356  
	  28A     -0.468419    29A     -0.329897    30A     -0.300050  

	Virtual:                                                              

	  31A      0.022982    32A      0.043384    33A      0.047756  
	  34A      0.051094    35A      0.057586    36A      0.062977  
	  37A      0.076798    38A      0.081698    39A      0.116245  
	  40A      0.127062    41A      0.136936    42A      0.137841  
	  43A      0.146957    44A      0.150210    45A      0.150749  
	  46A      0.156684    47A      0.160190    48A      0.161712  
	  49A      0.163348    50A      0.167375    51A      0.175326  
	  52A      0.180801    53A      0.189772    54A      0.193392  
	  55A      0.204167    56A      0.206219    57A      0.208685  
	  58A      0.210288    59A      0.218523    60A      0.221777  
	  61A      0.247447    62A      0.269101    63A      0.273367  
	  64A      0.275835    65A      0.301270    66A      0.312717  
	  67A      0.316376    68A      0.325103    69A      0.328534  
	  70A      0.332624    71A      0.339701    72A      0.354943  
	  73A      0.362541    74A      0.369930    75A      0.373627  
	  76A      0.374656    77A      0.380955    78A      0.388769  
	  79A      0.396263    80A      0.400080    81A      0.406019  
	  82A      0.415216    83A      0.432252    84A      0.440506  
	  85A      0.440882    86A      0.455119    87A      0.484010  
	  88A      0.501639    89A      0.508492    90A      0.509389  
	  91A      0.522776    92A      0.524499    93A      0.527316  
	  94A      0.549576    95A      0.556000    96A      0.561589  
	  97A      0.568051    98A      0.570532    99A      0.601308  
	 100A      0.611579   101A      0.611899   102A      0.626757  
	 103A      0.628266   104A      0.631407   105A      0.634923  
	 106A      0.655292   107A      0.663085   108A      0.675635  
	 109A      0.689386   110A      0.692412   111A      0.694847  
	 112A      0.698658   113A      0.703205   114A      0.723691  
	 115A      0.728516   116A      0.741066   117A      0.757215  
	 118A      0.764223   119A      0.776844   120A      0.789143  
	 121A      0.791515   122A      0.809023   123A      0.829666  
	 124A      0.846934   125A      0.852206   126A      0.867739  
	 127A      0.880940   128A      0.891454   129A      0.895982  
	 130A      0.915471   131A      0.938631   132A      0.940632  
	 133A      0.940841   134A      0.954606   135A      0.966010  
	 136A      0.976147   137A      0.983003   138A      0.987033  
	 139A      0.998190   140A      1.004770   141A      1.014007  
	 142A      1.043529   143A      1.065543   144A      1.078442  
	 145A      1.084371   146A      1.115307   147A      1.133573  
	 148A      1.139521   149A      1.144707   150A      1.186008  
	 151A      1.187658   152A      1.191263   153A      1.214171  
	 154A      1.260963   155A      1.321459   156A      1.335831  
	 157A      1.387430   158A      1.406762   159A      1.407606  
	 160A      1.453021   161A      1.488066   162A      1.488543  
	 163A      1.495228   164A      1.504877   165A      1.515913  
	 166A      1.545343   167A      1.576023   168A      1.582185  
	 169A      1.589108   170A      1.611186   171A      1.617035  
	 172A      1.634896   173A      1.651037   174A      1.654317  
	 175A      1.660500   176A      1.692330   177A      1.711602  
	 178A      1.722583   179A      1.724375   180A      1.731928  
	 181A      1.741161   182A      1.757353   183A      1.807328  
	 184A      1.823212   185A      1.863704   186A      1.889583  
	 187A      1.913218   188A      1.914588   189A      1.925759  
	 190A      1.965002   191A      1.965479   192A      1.981726  
	 193A      1.983934   194A      1.996073   195A      1.997378  
	 196A      2.007550   197A      2.018892   198A      2.049151  
	 199A      2.077519   200A      2.078133   201A      2.119931  
	 202A      2.141180   203A      2.152965   204A      2.163039  
	 205A      2.189301   206A      2.213013   207A      2.216286  
	 208A      2.227747   209A      2.250933   210A      2.272634  
	 211A      2.298625   212A      2.326062   213A      2.342765  
	 214A      2.362290   215A      2.379263   216A      2.393617  
	 217A      2.412960   218A      2.442649   219A      2.468958  
	 220A      2.496503   221A      2.504826   222A      2.549335  
	 223A      2.624007   224A      2.633906   225A      2.680731  
	 226A      2.754969   227A      2.758989   228A      2.814741  
	 229A      2.832404   230A      2.858337   231A      2.863764  
	 232A      2.966420   233A      2.981638   234A      3.000884  
	 235A      3.046684   236A      3.087028   237A      3.138551  
	 238A      3.175564   239A      3.207543   240A      3.232492  
	 241A      3.325304   242A      3.356264   243A      3.568932  
	 244A      3.622781   245A      3.686374   246A      3.755894  
	 247A      3.777735   248A      3.818491   249A      3.846518  
	 250A      3.884654   251A      3.927967   252A      4.030598  
	 253A      4.082737   254A      4.305515   255A      4.528284  
	 256A      4.817435  

	Final Occupation by Irrep:
	          A 
	DOCC [    30 ]

  Energy converged.

  @RHF Final Energy:  -381.65059301758299

   => Energetics <=

    Nuclear Repulsion Energy =            342.9758120759671556
    One-Electron Energy =               -1200.1847627864954120
    Two-Electron Energy =                 475.5583576929443552
    DFT Exchange-Correlation Energy =       0.0000000000000000
    Empirical Dispersion Energy =           0.0000000000000000
    Total Energy =                       -381.6505930175839012



Properties will be evaluated at   0.000000,   0.000000,   0.000000 Bohr
  ==> Properties <==


Properties computed using the SCF density density matrix
  Nuclear Dipole Moment: (a.u.)
     X:    -2.8315      Y:    -0.4919      Z:     1.3277

  Electronic Dipole Moment: (a.u.)
     X:     1.6066      Y:    -0.1900      Z:    -0.7909

  Dipole Moment: (a.u.)
     X:    -1.2249      Y:    -0.6819      Z:     0.5367     Total:     1.5012

  Dipole Moment: (Debye)
     X:    -3.1134      Y:    -1.7333      Z:     1.3643     Total:     3.8156


  Saving occupied orbitals to File 180.

  Saving SAPT 2-DIMER file.

*** tstop() called on node36.bme.utexas.edu at Wed Sep  3 12:38:44 2014
Module time:
	user time   =      71.67 seconds =       1.19 minutes
	system time =       0.92 seconds =       0.02 minutes
	total time  =         19 seconds =       0.32 minutes
Total time:
	user time   =      71.67 seconds =       1.19 minutes
	system time =       0.92 seconds =       0.02 minutes
	total time  =         19 seconds =       0.32 minutes

  //>>>>>>>>>>>>>>>>>>>>>>>>>>>>>>>>>>>//
  //            Monomer A HF           //
  //<<<<<<<<<<<<<<<<<<<<<<<<<<<<<<<<<<<//


  No DF_BASIS_SCF auxiliary basis selected, defaulting to aug-cc-pvdz-jkfit


*** tstart() called on node36.bme.utexas.edu
*** at Wed Sep  3 12:38:44 2014


         ---------------------------------------------------------
                                   SCF
            by Justin Turney, Rob Parrish, and Andy Simmonett
                              RHF Reference
                        4 Threads,   7000 MiB Core
         ---------------------------------------------------------

  ==> Geometry <==

    Molecular point group: c1
    Full point group: C1

    Geometry (in Angstrom), charge = 0, multiplicity = 1:

       Center              X                  Y                   Z       
    ------------   -----------------  -----------------  -----------------
           C         -0.594331700860     0.546101320704     0.330706638506
           C         -0.224662700860     1.887489320704     0.259738638506
           C          0.995565299140     2.257520320704    -0.299733361494
           C          1.847583299140     1.268885320704    -0.790332361494
           C          1.486996299140    -0.072621679296    -0.723761361494
           C          0.263134299140    -0.440108679296    -0.162325361494
           O         -0.039409700860    -1.765551679296    -0.122479361494
           H         -1.542944700860     0.259205320704     0.765702638506
           H         -0.896585700860     2.642824320704     0.644686638506
           H          1.278747299140     3.299049320704    -0.352972361494
           H          2.798696299140     1.540993320704    -1.227726361494
           H          2.138314299140    -0.848843679296    -1.100437361494
           H         -0.911164700860    -1.878434679296     0.289353638506
           O(Gh)     -2.602743700860    -2.289445679296     1.073160638506
           H(Gh)     -3.264703700860    -2.704763679296     0.515587638506
           H(Gh)     -2.607229700860    -2.813941679296     1.877181638506

  Running in c1 symmetry.

  Nuclear repulsion =  271.469482844451250

  Charge       = 0
  Multiplicity = 1
  Electrons    = 50
  Nalpha       = 25
  Nbeta        = 25

  ==> Algorithm <==

  SCF Algorithm Type is DF.
  DIIS enabled.
  MOM disabled.
  Fractional occupation disabled.
  Guess Type is CORE.
  Energy threshold   = 1.00e-08
  Density threshold  = 1.00e-08
  Integral threshold = 0.00e+00

  ==> Primary Basis <==

  Basis Set: AUG-CC-PVDZ
    Number of shells: 112
    Number of basis function: 256
    Number of Cartesian functions: 272
    Spherical Harmonics?: true
    Max angular momentum: 2

  ==> Pre-Iterations <==

   -------------------------------------------------------
    Irrep   Nso     Nmo     Nalpha   Nbeta   Ndocc  Nsocc
   -------------------------------------------------------
     A        256     256       0       0       0       0
   -------------------------------------------------------
    Total     256     256      25      25      25       0
   -------------------------------------------------------

 OEINTS: Wrapper to libmints.
   by Justin Turney

   Calculation information:
      Number of atoms:                  16
      Number of AO shells:             112
      Number of SO shells:             112
      Number of primitives:            256
      Number of atomic orbitals:       272
      Number of basis functions:       256

      Number of irreps:                  1
      Number of functions per irrep: [ 256 ]

      Overlap, kinetic, potential, dipole, and quadrupole integrals
        stored in file 35.

  ==> Integral Setup <==

  ==> DFJK: Density-Fitted J/K Matrices <==

    J tasked:                  Yes
    K tasked:                  Yes
    wK tasked:                  No
    OpenMP threads:              4
    Integrals threads:           4
    Memory (MB):              5006
    Algorithm:                Core
    Integral Cache:           LOAD
    Schwarz Cutoff:          0E+00
    Fitting Condition:       1E-12

   => Auxiliary Basis Set <=

  Basis Set: aug-cc-pvdz-jkfit
    Number of shells: 320
    Number of basis function: 944
    Number of Cartesian functions: 1088
    Spherical Harmonics?: true
    Max angular momentum: 3

  Minimum eigenvalue in the overlap matrix is 2.2289871407E-06.
  Using Symmetric Orthogonalization.
  SCF Guess: Core (One-Electron) Hamiltonian.

  Guess energy:  -238.23687720145256

  ==> Iterations <==

                        Total Energy        Delta E     RMS |[F,P]|

   @RHF iter   1:  -253.62172045414900   -2.53622e+02   2.62719e-02 
   @RHF iter   2:  -203.18382134505202    5.04379e+01   2.92810e-02 DIIS
   @RHF iter   3:  -271.92825711626460   -6.87444e+01   2.09818e-02 DIIS
   @RHF iter   4:  -283.35397449586401   -1.14257e+01   1.81755e-02 DIIS
   @RHF iter   5:  -303.77539509682856   -2.04214e+01   7.46474e-03 DIIS
   @RHF iter   6:  -305.07172256661067   -1.29633e+00   3.32971e-03 DIIS
   @RHF iter   7:  -305.49889445542181   -4.27172e-01   1.68269e-03 DIIS
   @RHF iter   8:  -305.58922249922659   -9.03280e-02   3.99948e-04 DIIS
   @RHF iter   9:  -305.60013482338161   -1.09123e-02   1.14871e-04 DIIS
   @RHF iter  10:  -305.60094285193054   -8.08029e-04   3.79886e-05 DIIS
   @RHF iter  11:  -305.60103604653170   -9.31946e-05   2.08030e-05 DIIS
   @RHF iter  12:  -305.60105702653073   -2.09800e-05   8.07343e-06 DIIS
   @RHF iter  13:  -305.60106055941776   -3.53289e-06   2.16152e-06 DIIS
   @RHF iter  14:  -305.60106102055499   -4.61137e-07   9.38454e-07 DIIS
   @RHF iter  15:  -305.60106114062467   -1.20070e-07   4.61529e-07 DIIS
   @RHF iter  16:  -305.60106117409873   -3.34741e-08   1.94535e-07 DIIS
   @RHF iter  17:  -305.60106118046826   -6.36953e-09   4.84309e-08 DIIS
   @RHF iter  18:  -305.60106118077692   -3.08660e-10   1.20170e-08 DIIS
   @RHF iter  19:  -305.60106118079182   -1.48930e-11   3.77904e-09 DIIS

  ==> Post-Iterations <==

	Orbital Energies (a.u.)
	-----------------------

	Doubly Occupied:                                                      

	   1A    -20.604286     2A    -11.310703     3A    -11.249080  
	   4A    -11.247049     5A    -11.240713     6A    -11.234525  
	   7A    -11.233593     8A     -1.413673     9A     -1.151017  
	  10A     -1.023619    11A     -1.008731    12A     -0.850647  
	  13A     -0.826246    14A     -0.736959    15A     -0.688187  
	  16A     -0.655770    17A     -0.612547    18A     -0.593447  
	  19A     -0.592571    20A     -0.571106    21A     -0.518975  
	  22A     -0.494246    23A     -0.483841    24A     -0.343047  
	  25A     -0.315513  

	Virtual:                                                              

	  26A      0.026658    27A      0.038967    28A      0.043353  
	  29A      0.054882    30A      0.058271    31A      0.059112  
	  32A      0.074875    33A      0.080038    34A      0.104939  
	  35A      0.116922    36A      0.118021    37A      0.128648  
	  38A      0.133763    39A      0.142380    40A      0.143455  
	  41A      0.148166    42A      0.152172    43A      0.155354  
	  44A      0.155686    45A      0.161721    46A      0.168933  
	  47A      0.174488    48A      0.179111    49A      0.187228  
	  50A      0.192009    51A      0.193261    52A      0.199314  
	  53A      0.200771    54A      0.204599    55A      0.215065  
	  56A      0.229361    57A      0.259119    58A      0.264953  
	  59A      0.281768    60A      0.289720    61A      0.299348  
	  62A      0.307301    63A      0.319810    64A      0.321110  
	  65A      0.332781    66A      0.351916    67A      0.356549  
	  68A      0.357447    69A      0.368307    70A      0.372311  
	  71A      0.375535    72A      0.379674    73A      0.389014  
	  74A      0.400076    75A      0.402697    76A      0.405723  
	  77A      0.419993    78A      0.424139    79A      0.438756  
	  80A      0.445164    81A      0.453282    82A      0.466119  
	  83A      0.475749    84A      0.487738    85A      0.495166  
	  86A      0.500517    87A      0.511666    88A      0.513370  
	  89A      0.526170    90A      0.532590    91A      0.541106  
	  92A      0.554635    93A      0.559207    94A      0.588586  
	  95A      0.594879    96A      0.607269    97A      0.608180  
	  98A      0.616792    99A      0.621452   100A      0.623638  
	 101A      0.640474   102A      0.653513   103A      0.663927  
	 104A      0.668688   105A      0.681059   106A      0.681805  
	 107A      0.685434   108A      0.691140   109A      0.709566  
	 110A      0.713343   111A      0.738910   112A      0.744524  
	 113A      0.748047   114A      0.766675   115A      0.769644  
	 116A      0.785440   117A      0.787292   118A      0.814501  
	 119A      0.840361   120A      0.850159   121A      0.865456  
	 122A      0.875016   123A      0.883761   124A      0.902338  
	 125A      0.925905   126A      0.926361   127A      0.927934  
	 128A      0.938240   129A      0.944316   130A      0.948273  
	 131A      0.964275   132A      0.969881   133A      0.970176  
	 134A      0.984594   135A      1.002976   136A      1.034621  
	 137A      1.037877   138A      1.056197   139A      1.068019  
	 140A      1.096880   141A      1.124161   142A      1.140603  
	 143A      1.168683   144A      1.172649   145A      1.176695  
	 146A      1.190325   147A      1.200339   148A      1.268962  
	 149A      1.275159   150A      1.306136   151A      1.309832  
	 152A      1.343923   153A      1.353323   154A      1.370022  
	 155A      1.410941   156A      1.420364   157A      1.437434  
	 158A      1.471973   159A      1.489067   160A      1.492039  
	 161A      1.495851   162A      1.506479   163A      1.555106  
	 164A      1.571888   165A      1.574826   166A      1.596062  
	 167A      1.604774   168A      1.622175   169A      1.636788  
	 170A      1.643761   171A      1.655891   172A      1.673872  
	 173A      1.698500   174A      1.711880   175A      1.718600  
	 176A      1.719304   177A      1.729142   178A      1.741723  
	 179A      1.803439   180A      1.810875   181A      1.846217  
	 182A      1.872917   183A      1.900541   184A      1.901191  
	 185A      1.926091   186A      1.954878   187A      1.963183  
	 188A      1.966526   189A      1.973694   190A      1.984474  
	 191A      1.995361   192A      2.023923   193A      2.060922  
	 194A      2.094740   195A      2.096349   196A      2.119887  
	 197A      2.133987   198A      2.155668   199A      2.194977  
	 200A      2.201108   201A      2.214751   202A      2.227761  
	 203A      2.234334   204A      2.265789   205A      2.307831  
	 206A      2.310018   207A      2.326533   208A      2.349856  
	 209A      2.359379   210A      2.379158   211A      2.398990  
	 212A      2.426516   213A      2.476806   214A      2.500875  
	 215A      2.528187   216A      2.532290   217A      2.569140  
	 218A      2.630452   219A      2.667239   220A      2.704033  
	 221A      2.755323   222A      2.787539   223A      2.818678  
	 224A      2.847733   225A      2.890864   226A      2.947332  
	 227A      2.971568   228A      2.987406   229A      3.040053  
	 230A      3.123781   231A      3.159350   232A      3.193190  
	 233A      3.214477   234A      3.309917   235A      3.339941  
	 236A      3.534867   237A      3.561997   238A      3.610136  
	 239A      3.753414   240A      3.821705   241A      3.852749  
	 242A      3.902086   243A      3.952635   244A      4.023193  
	 245A      4.149404   246A      4.448612   247A      4.802834  
	 248A      4.951061   249A      5.014729   250A      5.068836  
	 251A      5.235879   252A      5.373169   253A      5.908867  
	 254A      6.706049   255A      7.026006   256A     33.541194  

	Final Occupation by Irrep:
	          A 
	DOCC [    25 ]

  Energy converged.

  @RHF Final Energy:  -305.60106118079182

   => Energetics <=

    Nuclear Repulsion Energy =            271.4694828444512495
    One-Electron Energy =                -952.1409028729007105
    Two-Electron Energy =                 375.0703588476576442
    DFT Exchange-Correlation Energy =       0.0000000000000000
    Empirical Dispersion Energy =           0.0000000000000000
    Total Energy =                       -305.6010611807918167



Properties will be evaluated at   0.000000,   0.000000,   0.000000 Bohr
  ==> Properties <==


Properties computed using the SCF density density matrix
  Nuclear Dipole Moment: (a.u.)
     X:    47.6126      Y:    44.5484      Z:   -19.4178

  Electronic Dipole Moment: (a.u.)
     X:   -48.0555      Y:   -44.3457      Z:    19.6479

  Dipole Moment: (a.u.)
     X:    -0.4429      Y:     0.2026      Z:     0.2301     Total:     0.5387

  Dipole Moment: (Debye)
     X:    -1.1258      Y:     0.5150      Z:     0.5848     Total:     1.3692


  Saving occupied orbitals to File 180.

  Saving SAPT 2-MONOMER_A file.

*** tstop() called on node36.bme.utexas.edu at Wed Sep  3 12:38:59 2014
Module time:
	user time   =      56.43 seconds =       0.94 minutes
	system time =       0.59 seconds =       0.01 minutes
	total time  =         15 seconds =       0.25 minutes
Total time:
	user time   =     128.12 seconds =       2.14 minutes
	system time =       1.51 seconds =       0.03 minutes
	total time  =         34 seconds =       0.57 minutes

  //>>>>>>>>>>>>>>>>>>>>>>>>>>>>>>>>>>>//
  //            Monomer B HF           //
  //<<<<<<<<<<<<<<<<<<<<<<<<<<<<<<<<<<<//


  No DF_BASIS_SCF auxiliary basis selected, defaulting to aug-cc-pvdz-jkfit


*** tstart() called on node36.bme.utexas.edu
*** at Wed Sep  3 12:38:59 2014


         ---------------------------------------------------------
                                   SCF
            by Justin Turney, Rob Parrish, and Andy Simmonett
                              RHF Reference
                        4 Threads,   7000 MiB Core
         ---------------------------------------------------------

  ==> Geometry <==

    Molecular point group: c1
    Full point group: C1

    Geometry (in Angstrom), charge = 0, multiplicity = 1:

       Center              X                  Y                   Z       
    ------------   -----------------  -----------------  -----------------
           C(Gh)     -0.594331700860     0.546101320704     0.330706638506
           C(Gh)     -0.224662700860     1.887489320704     0.259738638506
           C(Gh)      0.995565299140     2.257520320704    -0.299733361494
           C(Gh)      1.847583299140     1.268885320704    -0.790332361494
           C(Gh)      1.486996299140    -0.072621679296    -0.723761361494
           C(Gh)      0.263134299140    -0.440108679296    -0.162325361494
           O(Gh)     -0.039409700860    -1.765551679296    -0.122479361494
           H(Gh)     -1.542944700860     0.259205320704     0.765702638506
           H(Gh)     -0.896585700860     2.642824320704     0.644686638506
           H(Gh)      1.278747299140     3.299049320704    -0.352972361494
           H(Gh)      2.798696299140     1.540993320704    -1.227726361494
           H(Gh)      2.138314299140    -0.848843679296    -1.100437361494
           H(Gh)     -0.911164700860    -1.878434679296     0.289353638506
           O         -2.602743700860    -2.289445679296     1.073160638506
           H         -3.264703700860    -2.704763679296     0.515587638506
           H         -2.607229700860    -2.813941679296     1.877181638506

  Running in c1 symmetry.

  Nuclear repulsion =    9.168849860338906

  Charge       = 0
  Multiplicity = 1
  Electrons    = 10
  Nalpha       = 5
  Nbeta        = 5

  ==> Algorithm <==

  SCF Algorithm Type is DF.
  DIIS enabled.
  MOM disabled.
  Fractional occupation disabled.
  Guess Type is CORE.
  Energy threshold   = 1.00e-08
  Density threshold  = 1.00e-08
  Integral threshold = 0.00e+00

  ==> Primary Basis <==

  Basis Set: AUG-CC-PVDZ
    Number of shells: 112
    Number of basis function: 256
    Number of Cartesian functions: 272
    Spherical Harmonics?: true
    Max angular momentum: 2

  ==> Pre-Iterations <==

   -------------------------------------------------------
    Irrep   Nso     Nmo     Nalpha   Nbeta   Ndocc  Nsocc
   -------------------------------------------------------
     A        256     256       0       0       0       0
   -------------------------------------------------------
    Total     256     256       5       5       5       0
   -------------------------------------------------------

 OEINTS: Wrapper to libmints.
   by Justin Turney

   Calculation information:
      Number of atoms:                  16
      Number of AO shells:             112
      Number of SO shells:             112
      Number of primitives:            256
      Number of atomic orbitals:       272
      Number of basis functions:       256

      Number of irreps:                  1
      Number of functions per irrep: [ 256 ]

      Overlap, kinetic, potential, dipole, and quadrupole integrals
        stored in file 35.

  ==> Integral Setup <==

  ==> DFJK: Density-Fitted J/K Matrices <==

    J tasked:                  Yes
    K tasked:                  Yes
    wK tasked:                  No
    OpenMP threads:              4
    Integrals threads:           4
    Memory (MB):              5006
    Algorithm:                Core
    Integral Cache:           LOAD
    Schwarz Cutoff:          0E+00
    Fitting Condition:       1E-12

   => Auxiliary Basis Set <=

  Basis Set: aug-cc-pvdz-jkfit
    Number of shells: 320
    Number of basis function: 944
    Number of Cartesian functions: 1088
    Spherical Harmonics?: true
    Max angular momentum: 3

  Minimum eigenvalue in the overlap matrix is 2.2289871407E-06.
  Using Symmetric Orthogonalization.
  SCF Guess: Core (One-Electron) Hamiltonian.

  Guess energy:   -58.68402728007372

  ==> Iterations <==

                        Total Energy        Delta E     RMS |[F,P]|

   @RHF iter   1:   -68.34765225734405   -6.83477e+01   1.34838e-02 
   @RHF iter   2:   -64.92327089455715    3.42438e+00   1.01599e-02 DIIS
   @RHF iter   3:   -74.99877390899688   -1.00755e+01   6.34637e-03 DIIS
   @RHF iter   4:   -75.82680601418022   -8.28032e-01   2.76785e-03 DIIS
   @RHF iter   5:   -76.04032592073013   -2.13520e-01   2.34121e-04 DIIS
   @RHF iter   6:   -76.04149623958945   -1.17032e-03   1.08872e-04 DIIS
   @RHF iter   7:   -76.04176206381074   -2.65824e-04   1.24286e-05 DIIS
   @RHF iter   8:   -76.04176712271763   -5.05891e-06   2.06360e-06 DIIS
   @RHF iter   9:   -76.04176735796646   -2.35249e-07   4.63274e-07 DIIS
   @RHF iter  10:   -76.04176736653022   -8.56376e-09   8.99408e-08 DIIS
   @RHF iter  11:   -76.04176736686091   -3.30687e-10   7.33416e-09 DIIS

  ==> Post-Iterations <==

	Orbital Energies (a.u.)
	-----------------------

	Doubly Occupied:                                                      

	   1A    -20.578050     2A     -1.355270     3A     -0.717100  
	   4A     -0.585279     5A     -0.509085  

	Virtual:                                                              

	   6A      0.025347     7A      0.034159     8A      0.041110  
	   9A      0.052373    10A      0.056575    11A      0.061850  
	  12A      0.074913    13A      0.081831    14A      0.093716  
	  15A      0.100223    16A      0.116292    17A      0.126097  
	  18A      0.126934    19A      0.135079    20A      0.140367  
	  21A      0.146309    22A      0.155327    23A      0.161670  
	  24A      0.163714    25A      0.164166    26A      0.169648  
	  27A      0.172422    28A      0.183556    29A      0.194370  
	  30A      0.199379    31A      0.202169    32A      0.216540  
	  33A      0.229746    34A      0.240568    35A      0.250413  
	  36A      0.260444    37A      0.261240    38A      0.264236  
	  39A      0.271732    40A      0.285676    41A      0.293159  
	  42A      0.302663    43A      0.317277    44A      0.319898  
	  45A      0.332052    46A      0.341515    47A      0.349554  
	  48A      0.381433    49A      0.384469    50A      0.384573  
	  51A      0.394987    52A      0.400527    53A      0.414236  
	  54A      0.423536    55A      0.427303    56A      0.431454  
	  57A      0.434758    58A      0.455487    59A      0.465208  
	  60A      0.474974    61A      0.477077    62A      0.488502  
	  63A      0.491370    64A      0.505134    65A      0.510890  
	  66A      0.536005    67A      0.540489    68A      0.543870  
	  69A      0.554984    70A      0.558201    71A      0.566430  
	  72A      0.576061    73A      0.585297    74A      0.594851  
	  75A      0.597029    76A      0.615118    77A      0.628721  
	  78A      0.629907    79A      0.640090    80A      0.650197  
	  81A      0.671490    82A      0.685048    83A      0.695974  
	  84A      0.700846    85A      0.717010    86A      0.720999  
	  87A      0.724440    88A      0.749958    89A      0.762380  
	  90A      0.767221    91A      0.800734    92A      0.808223  
	  93A      0.812482    94A      0.832443    95A      0.843081  
	  96A      0.861143    97A      0.862243    98A      0.876005  
	  99A      0.885367   100A      0.889989   101A      0.897788  
	 102A      0.903458   103A      0.906113   104A      0.917673  
	 105A      0.918552   106A      0.944362   107A      0.944645  
	 108A      0.977344   109A      1.009978   110A      1.011945  
	 111A      1.017513   112A      1.035682   113A      1.038808  
	 114A      1.051837   115A      1.066439   116A      1.091519  
	 117A      1.095385   118A      1.120386   119A      1.133884  
	 120A      1.153354   121A      1.175179   122A      1.177578  
	 123A      1.223179   124A      1.248143   125A      1.253286  
	 126A      1.269066   127A      1.270190   128A      1.317353  
	 129A      1.341241   130A      1.376298   131A      1.380240  
	 132A      1.398597   133A      1.412545   134A      1.447920  
	 135A      1.476064   136A      1.506473   137A      1.522621  
	 138A      1.541693   139A      1.546921   140A      1.571942  
	 141A      1.610261   142A      1.622117   143A      1.646703  
	 144A      1.699131   145A      1.735221   146A      1.763111  
	 147A      1.883906   148A      1.921184   149A      1.993718  
	 150A      2.021829   151A      2.069537   152A      2.080249  
	 153A      2.135502   154A      2.150763   155A      2.153463  
	 156A      2.163899   157A      2.169217   158A      2.193936  
	 159A      2.203109   160A      2.209169   161A      2.214839  
	 162A      2.242263   163A      2.243884   164A      2.280230  
	 165A      2.284260   166A      2.300113   167A      2.304756  
	 168A      2.308567   169A      2.330695   170A      2.332984  
	 171A      2.349848   172A      2.439558   173A      2.475806  
	 174A      2.495573   175A      2.499443   176A      2.526850  
	 177A      2.531689   178A      2.547266   179A      2.557643  
	 180A      2.606934   181A      2.638130   182A      2.640946  
	 183A      2.641244   184A      2.656801   185A      2.659494  
	 186A      2.669995   187A      2.674780   188A      2.712424  
	 189A      2.737822   190A      2.778510   191A      2.788472  
	 192A      2.794828   193A      2.823289   194A      2.847941  
	 195A      2.865158   196A      2.866793   197A      2.886338  
	 198A      2.901214   199A      2.926865   200A      2.949019  
	 201A      2.996049   202A      3.034353   203A      3.112887  
	 204A      3.201826   205A      3.263489   206A      3.280728  
	 207A      3.376015   208A      3.408151   209A      3.409626  
	 210A      3.416235   211A      3.432194   212A      3.472791  
	 213A      3.482393   214A      3.524597   215A      3.547909  
	 216A      3.570470   217A      3.696042   218A      3.729210  
	 219A      3.788918   220A      3.836267   221A      3.888783  
	 222A      3.932757   223A      4.022136   224A      4.061856  
	 225A      4.070759   226A      4.124336   227A      4.242358  
	 228A      4.305606   229A      4.343720   230A      4.408034  
	 231A      4.522456   232A      4.695703   233A      4.886787  
	 234A      4.954440   235A      5.006650   236A      5.019429  
	 237A      5.126935   238A      5.141594   239A      5.290734  
	 240A      5.465851   241A      5.478621   242A      5.515666  
	 243A      5.653851   244A      5.750425   245A      5.892863  
	 246A      6.014477   247A      6.048442   248A      6.855387  
	 249A      7.211388   250A     18.004182   251A     18.415596  
	 252A     18.480643   253A     19.052092   254A     19.074894  
	 255A     20.650494   256A     33.606881  

	Final Occupation by Irrep:
	          A 
	DOCC [     5 ]

  Energy converged.

  @RHF Final Energy:   -76.04176736686091

   => Energetics <=

    Nuclear Repulsion Energy =              9.1688498603389057
    One-Electron Energy =                -122.9316576122945293
    Two-Electron Energy =                  37.7210403850951224
    DFT Exchange-Correlation Energy =       0.0000000000000000
    Empirical Dispersion Energy =           0.0000000000000000
    Total Energy =                        -76.0417673668604976



Properties will be evaluated at   0.000000,   0.000000,   0.000000 Bohr
  ==> Properties <==


Properties computed using the SCF density density matrix
  Nuclear Dipole Moment: (a.u.)
     X:   -50.4441      Y:   -45.0402      Z:    20.7455

  Electronic Dipole Moment: (a.u.)
     X:    50.0013      Y:    44.4138      Z:   -20.5819

  Dipole Moment: (a.u.)
     X:    -0.4428      Y:    -0.6264      Z:     0.1636     Total:     0.7844

  Dipole Moment: (Debye)
     X:    -1.1255      Y:    -1.5922      Z:     0.4158     Total:     1.9937


  Saving occupied orbitals to File 180.

  Saving SAPT 2-MONOMER_B file.

*** tstop() called on node36.bme.utexas.edu at Wed Sep  3 12:39:07 2014
Module time:
	user time   =      27.65 seconds =       0.46 minutes
	system time =       0.28 seconds =       0.00 minutes
	total time  =          8 seconds =       0.13 minutes
Total time:
	user time   =     155.78 seconds =       2.60 minutes
	system time =       1.79 seconds =       0.03 minutes
	total time  =         42 seconds =       0.70 minutes
  No DF_BASIS_SAPT auxiliary basis selected, defaulting to aug-cc-pvdz-ri

  //>>>>>>>>>>>>>>>>>>>>>>>>>>>>>>>>>>>//
  //               SAPT2+              //
  //<<<<<<<<<<<<<<<<<<<<<<<<<<<<<<<<<<<//


*** tstart() called on node36.bme.utexas.edu
*** at Wed Sep  3 12:39:07 2014

        SAPT2+  
    Ed Hohenstein
     6 June 2009

      Orbital Information
  --------------------------
    NSO        =       256
    NMO        =       256
    NRI        =       760
    NOCC A     =        25
    NOCC B     =         5
    FOCC A     =         7
    FOCC B     =         1
    NVIR A     =       231
    NVIR B     =       251

    Estimated memory usage: 1328.1 MB

    Elst10,r            =    -0.016062034172 H
    Exch10 (S^2)        =     0.012986134825 H
    Exch10              =     0.013083900898 H
    Ind20,r (A<-B)      =    -0.002049399912 H
    Ind20,r (B<-A)      =    -0.003819594959 H
    Ind20,r             =    -0.005868994871 H
    Exch-Ind20,r (A<-B) =     0.001252994403 H
    Exch-Ind20,r (B<-A) =     0.001703326084 H
    Exch-Ind20,r        =     0.002956320487 H
    Disp20              =    -0.005153735391 H
    Exch-Disp20         =     0.000817476605 H
    Elst12,r            =     0.000190408136 H
    Exch11              =    -0.000034735569 H
    Exch12              =     0.002683664933 H
    Ind22               =    -0.001045018329 H
    Disp21              =     0.000331024087 H
    Disp22 (SDQ)        =    -0.000240311806 H

    (i =   1 of   4)        242 seconds
    (i =   2 of   4)        484 seconds
    (i =   3 of   4)        726 seconds
    (i =   4 of   4)        976 seconds

    Disp220 (T)         =    -0.000472198410 H

    (i =   1 of  18)         24 seconds
    (i =   2 of  18)         49 seconds
    (i =   3 of  18)         75 seconds
    (i =   4 of  18)        102 seconds
    (i =   5 of  18)        129 seconds
    (i =   6 of  18)        156 seconds
    (i =   7 of  18)        183 seconds
    (i =   8 of  18)        210 seconds
    (i =   9 of  18)        238 seconds
    (i =  10 of  18)        265 seconds
    (i =  11 of  18)        292 seconds
    (i =  12 of  18)        319 seconds
    (i =  13 of  18)        346 seconds
    (i =  14 of  18)        373 seconds
    (i =  15 of  18)        400 seconds
    (i =  16 of  18)        426 seconds
    (i =  17 of  18)        453 seconds
    (i =  18 of  18)        480 seconds

    Disp202 (T)         =    -0.000401886170 H

    Disp22 (T)          =    -0.000874084580 H

    SAPT Results  
  -----------------------------------------------------------------------
    Electrostatics         -15.87162604 mH      -9.95959612 kcal mol^-1
      Elst10,r             -16.06203417 mH     -10.07907903 kcal mol^-1
      Elst12,r               0.19040814 mH       0.11948291 kcal mol^-1

    Exchange                15.73283026 mH       9.87250045 kcal mol^-1
      Exch10                13.08390090 mH       8.21027211 kcal mol^-1
      Exch10(S^2)           12.98613482 mH       8.14892297 kcal mol^-1
      Exch11(S^2)           -0.03473557 mH      -0.02179690 kcal mol^-1
      Exch12(S^2)            2.68366493 mH       1.68402524 kcal mol^-1

    Induction               -5.30496006 mH      -3.32891284 kcal mol^-1
      Ind20,r               -5.86899487 mH      -3.68285004 kcal mol^-1
      Ind22                 -1.04501833 mH      -0.65575893 kcal mol^-1
      Exch-Ind20,r           2.95632049 mH       1.85511919 kcal mol^-1
      Exch-Ind22             0.52639492 mH       0.33031781 kcal mol^-1
      delta HF,r (2)        -1.87366227 mH      -1.17574088 kcal mol^-1

    Dispersion              -5.11963109 mH      -3.21261714 kcal mol^-1
      Disp20                -5.15373539 mH      -3.23401792 kcal mol^-1
      Disp21                 0.33102409 mH       0.20772076 kcal mol^-1
      Disp22 (SDQ)          -0.24031181 mH      -0.15079794 kcal mol^-1
      Disp22 (T)            -0.87408458 mH      -0.54849638 kcal mol^-1
      Exch-Disp20            0.81747660 mH       0.51297434 kcal mol^-1

    Total HF                -7.76446993 mH      -4.87227864 kcal mol^-1
    Total SAPT0            -12.10072872 mH      -7.59332223 kcal mol^-1
    Total SAPT2             -9.78001462 mH      -6.13705209 kcal mol^-1
    Total SAPT2+           -10.56338692 mH      -6.62862565 kcal mol^-1

*** tstop() called on node36.bme.utexas.edu at Wed Sep  3 13:09:03 2014
Module time:
	user time   =    6503.88 seconds =     108.40 minutes
	system time =      31.99 seconds =       0.53 minutes
	total time  =       1796 seconds =      29.93 minutes
Total time:
	user time   =    6659.66 seconds =     110.99 minutes
	system time =      33.78 seconds =       0.56 minutes
	total time  =       1838 seconds =      30.63 minutes

*** PSI4 exiting successfully. Buy a developer a beer!
