    -----------------------------------------------------------------------
          PSI4: An Open-Source Ab Initio Electronic Structure Package
                              PSI 4.0.0-beta4 Driver

    J. M. Turney, A. C. Simmonett, R. M. Parrish, E. G. Hohenstein,
    F. A. Evangelista, J. T. Fermann, B. J. Mintz, L. A. Burns, J. J. Wilke,
    M. L. Abrams, N. J. Russ, M. L. Leininger, C. L. Janssen, E. T. Seidl,
    W. D. Allen, H. F. Schaefer, R. A. King, E. F. Valeev, C. D. Sherrill,
    and T. D. Crawford, WIREs Comput. Mol. Sci., (2011) (doi: 10.1002/wcms.93)

                         Additional Contributions by
    A. E. DePrince, M. Saitow, U. Bozkaya, A. Yu. Sokolov
    -----------------------------------------------------------------------

    Process ID:   8639
    PSI4DATADIR: /home/xzhu216/psi4/psi4-install/share/psi

    Using LocalCommunicator (Number of processes = 1)

    Memory level set to 256.000 MB

  ==> Input File <==

--------------------------------------------------------------------------
#psi4
#
memory 7 gb

molecule Phenol_Water {
0 1
    C    -3.555223000    -0.145046000     0.625060000
    C    -3.185554000     1.196342000     0.554092000
    C    -1.965326000     1.566373000    -0.005380000
    C    -1.113308000     0.577738000    -0.495979000
    C    -1.473895000    -0.763769000    -0.429408000
    C    -2.697757000    -1.131256000     0.132028000
    O    -3.000301000    -2.456699000     0.171874000
    H    -4.503836000    -0.431942000     1.060056000
    H    -3.857477000     1.951677000     0.939040000
    H    -1.682144000     2.607902000    -0.058619000
    H    -0.162195000     0.849846000    -0.933373000
    H    -0.822577000    -1.539991000    -0.806084000
    H    -3.872056000    -2.569582000     0.583707000
--
0 1
    O    -5.056161300    -2.857289700     1.132371900
    H    -5.718121300    -3.272607700     0.574798900
    H    -5.060647300    -3.381785700     1.936392900
units angstrom
no_reorient  #important for SAPT in psi4, default
symmetry c1  #important for SAPT in psi4, default
}

set {
basis aug-cc-pVDZ
scf_type DF
freeze_core True
}
energy('sapt2+')
--------------------------------------------------------------------------

  Memory set to   7.000 GiB by Python script.

  //>>>>>>>>>>>>>>>>>>>>>>>>>>>>>>>>>>>//
  //              Dimer HF             //
  //<<<<<<<<<<<<<<<<<<<<<<<<<<<<<<<<<<<//


  No DF_BASIS_SCF auxiliary basis selected, defaulting to aug-cc-pvdz-jkfit


*** tstart() called on node31.bme.utexas.edu
*** at Wed Sep  3 12:36:26 2014


         ---------------------------------------------------------
                                   SCF
            by Justin Turney, Rob Parrish, and Andy Simmonett
                              RHF Reference
                        4 Threads,   7000 MiB Core
         ---------------------------------------------------------

  ==> Geometry <==

    Molecular point group: c1
    Full point group: C1

    Geometry (in Angstrom), charge = 0, multiplicity = 1:

       Center              X                  Y                   Z       
    ------------   -----------------  -----------------  -----------------
           C         -0.675899659183     0.526282365682     0.368501820823
           C         -0.306230659183     1.867670365682     0.297533820823
           C          0.913997340817     2.237701365682    -0.261938179177
           C          1.766015340817     1.249066365682    -0.752537179177
           C          1.405428340817    -0.092440634318    -0.685966179177
           C          0.181566340817    -0.459927634318    -0.124530179177
           O         -0.120977659183    -1.785370634318    -0.084684179177
           H         -1.624512659183     0.239386365682     0.803497820823
           H         -0.978153659183     2.623005365682     0.682481820823
           H          1.197179340817     3.279230365682    -0.315177179177
           H          2.717128340817     1.521174365682    -1.189931179177
           H          2.056746340817    -0.868662634318    -1.062642179177
           H         -0.992732659183    -1.898253634318     0.327148820823
           O         -2.176837959183    -2.185961334318     0.875813720823
           H         -2.838797959183    -2.601279334318     0.318240720823
           H         -2.181323959183    -2.710457334318     1.679834720823

  Running in c1 symmetry.

  Nuclear repulsion =  352.617546115253333

  Charge       = 0
  Multiplicity = 1
  Electrons    = 60
  Nalpha       = 30
  Nbeta        = 30

  ==> Algorithm <==

  SCF Algorithm Type is DF.
  DIIS enabled.
  MOM disabled.
  Fractional occupation disabled.
  Guess Type is CORE.
  Energy threshold   = 1.00e-08
  Density threshold  = 1.00e-08
  Integral threshold = 0.00e+00

  ==> Primary Basis <==

  Basis Set: AUG-CC-PVDZ
    Number of shells: 112
    Number of basis function: 256
    Number of Cartesian functions: 272
    Spherical Harmonics?: true
    Max angular momentum: 2

  ==> Pre-Iterations <==

   -------------------------------------------------------
    Irrep   Nso     Nmo     Nalpha   Nbeta   Ndocc  Nsocc
   -------------------------------------------------------
     A        256     256       0       0       0       0
   -------------------------------------------------------
    Total     256     256      30      30      30       0
   -------------------------------------------------------

 OEINTS: Wrapper to libmints.
   by Justin Turney

   Calculation information:
      Number of atoms:                  16
      Number of AO shells:             112
      Number of SO shells:             112
      Number of primitives:            256
      Number of atomic orbitals:       272
      Number of basis functions:       256

      Number of irreps:                  1
      Number of functions per irrep: [ 256 ]

      Overlap, kinetic, potential, dipole, and quadrupole integrals
        stored in file 35.

  ==> Integral Setup <==

  ==> DFJK: Density-Fitted J/K Matrices <==

    J tasked:                  Yes
    K tasked:                  Yes
    wK tasked:                  No
    OpenMP threads:              4
    Integrals threads:           4
    Memory (MB):              5006
    Algorithm:                Core
    Integral Cache:           SAVE
    Schwarz Cutoff:          0E+00
    Fitting Condition:       1E-12

   => Auxiliary Basis Set <=

  Basis Set: aug-cc-pvdz-jkfit
    Number of shells: 320
    Number of basis function: 944
    Number of Cartesian functions: 1088
    Spherical Harmonics?: true
    Max angular momentum: 3

  Minimum eigenvalue in the overlap matrix is 2.2284162492E-06.
  Using Symmetric Orthogonalization.
  SCF Guess: Core (One-Electron) Hamiltonian.

  Guess energy:  -301.17038543065456

  ==> Iterations <==

                        Total Energy        Delta E     RMS |[F,P]|

   @RHF iter   1:  -300.29251703389701   -3.00293e+02   3.12260e-02 
   @RHF iter   2:  -217.50524246178730    8.27873e+01   4.22133e-02 DIIS
   @RHF iter   3:  -294.86293638946330   -7.73577e+01   2.98458e-02 DIIS
   @RHF iter   4:  -307.11968983583569   -1.22568e+01   3.18411e-02 DIIS
   @RHF iter   5:  -380.36374215115740   -7.32441e+01   5.74327e-03 DIIS
   @RHF iter   6:  -381.43294859785357   -1.06921e+00   2.30019e-03 DIIS
   @RHF iter   7:  -381.61085738513310   -1.77909e-01   4.65698e-04 DIIS
   @RHF iter   8:  -381.62419544200299   -1.33381e-02   1.84855e-04 DIIS
   @RHF iter   9:  -381.62609248149312   -1.89704e-03   9.89355e-05 DIIS
   @RHF iter  10:  -381.62673285104785   -6.40370e-04   4.20704e-05 DIIS
   @RHF iter  11:  -381.62687467631343   -1.41825e-04   1.11988e-05 DIIS
   @RHF iter  12:  -381.62689336716659   -1.86909e-05   5.39485e-06 DIIS
   @RHF iter  13:  -381.62689870723733   -5.34007e-06   2.71895e-06 DIIS
   @RHF iter  14:  -381.62690033483892   -1.62760e-06   1.02389e-06 DIIS
   @RHF iter  15:  -381.62690051881174   -1.83973e-07   2.85374e-07 DIIS
   @RHF iter  16:  -381.62690052912768   -1.03159e-08   1.06343e-07 DIIS
   @RHF iter  17:  -381.62690052983311   -7.05427e-10   3.09367e-08 DIIS
   @RHF iter  18:  -381.62690052990803   -7.49196e-11   1.01267e-08 DIIS
   @RHF iter  19:  -381.62690052991690   -8.86757e-12   3.81354e-09 DIIS

  ==> Post-Iterations <==

	Orbital Energies (a.u.)
	-----------------------

	Doubly Occupied:                                                      

	   1A    -20.635388     2A    -20.538336     3A    -11.283780  
	   4A    -11.230008     5A    -11.228102     6A    -11.215494  
	   7A    -11.213847     8A    -11.211371     9A     -1.439518  
	  10A     -1.362562    11A     -1.129461    12A     -1.002681  
	  13A     -0.986279    14A     -0.835019    15A     -0.806129  
	  16A     -0.784125    17A     -0.747361    18A     -0.684731  
	  19A     -0.631339    20A     -0.628453    21A     -0.603313  
	  22A     -0.571071    23A     -0.566943    24A     -0.551448  
	  25A     -0.518725    26A     -0.495617    27A     -0.464289  
	  28A     -0.457479    29A     -0.323622    30A     -0.289770  

	Virtual:                                                              

	  31A      0.017463    32A      0.044757    33A      0.047932  
	  34A      0.048531    35A      0.058633    36A      0.061786  
	  37A      0.076340    38A      0.081073    39A      0.120999  
	  40A      0.131590    41A      0.138936    42A      0.141009  
	  43A      0.141287    44A      0.149947    45A      0.152960  
	  46A      0.157703    47A      0.159340    48A      0.164412  
	  49A      0.167779    50A      0.169193    51A      0.177274  
	  52A      0.184057    53A      0.191264    54A      0.192984  
	  55A      0.204748    56A      0.208176    57A      0.208707  
	  58A      0.212343    59A      0.216163    60A      0.219736  
	  61A      0.243196    62A      0.269229    63A      0.274663  
	  64A      0.282096    65A      0.306673    66A      0.316801  
	  67A      0.318353    68A      0.329231    69A      0.330379  
	  70A      0.333226    71A      0.342065    72A      0.364162  
	  73A      0.372062    74A      0.376226    75A      0.381863  
	  76A      0.383239    77A      0.394606    78A      0.397709  
	  79A      0.404592    80A      0.406679    81A      0.415728  
	  82A      0.422255    83A      0.445238    84A      0.445360  
	  85A      0.457543    86A      0.470722    87A      0.492111  
	  88A      0.507582    89A      0.513034    90A      0.523536  
	  91A      0.529286    92A      0.548886    93A      0.549142  
	  94A      0.555697    95A      0.560421    96A      0.568188  
	  97A      0.573294    98A      0.603265    99A      0.610525  
	 100A      0.622424   101A      0.623913   102A      0.631042  
	 103A      0.631689   104A      0.640900   105A      0.650639  
	 106A      0.657201   107A      0.676514   108A      0.679912  
	 109A      0.696394   110A      0.700567   111A      0.702040  
	 112A      0.706800   113A      0.714978   114A      0.729394  
	 115A      0.733615   116A      0.755167   117A      0.766882  
	 118A      0.767623   119A      0.781890   120A      0.793942  
	 121A      0.802960   122A      0.808394   123A      0.849026  
	 124A      0.857177   125A      0.872325   126A      0.876107  
	 127A      0.888762   128A      0.901706   129A      0.903734  
	 130A      0.926000   131A      0.938468   132A      0.943110  
	 133A      0.948373   134A      0.961042   135A      0.984041  
	 136A      0.985815   137A      0.992004   138A      1.000303  
	 139A      1.003030   140A      1.010086   141A      1.028909  
	 142A      1.050462   143A      1.066779   144A      1.078573  
	 145A      1.086542   146A      1.113524   147A      1.156345  
	 148A      1.157399   149A      1.165716   150A      1.190859  
	 151A      1.194311   152A      1.197232   153A      1.230844  
	 154A      1.296106   155A      1.346796   156A      1.384237  
	 157A      1.408576   158A      1.428504   159A      1.441204  
	 160A      1.494917   161A      1.503339   162A      1.516844  
	 163A      1.518825   164A      1.525393   165A      1.535234  
	 166A      1.553997   167A      1.583721   168A      1.599275  
	 169A      1.607485   170A      1.620141   171A      1.636437  
	 172A      1.647617   173A      1.661208   174A      1.668665  
	 175A      1.694750   176A      1.711518   177A      1.720898  
	 178A      1.737032   179A      1.738325   180A      1.752079  
	 181A      1.762496   182A      1.777613   183A      1.819673  
	 184A      1.843011   185A      1.869852   186A      1.901838  
	 187A      1.919824   188A      1.922229   189A      1.948091  
	 190A      1.970181   191A      1.982142   192A      1.984978  
	 193A      1.992992   194A      1.994996   195A      2.008518  
	 196A      2.014392   197A      2.040024   198A      2.065552  
	 199A      2.076298   200A      2.127959   201A      2.133438  
	 202A      2.151033   203A      2.168907   204A      2.226963  
	 205A      2.228563   206A      2.228935   207A      2.234150  
	 208A      2.261155   209A      2.270990   210A      2.298585  
	 211A      2.349092   212A      2.366233   213A      2.375936  
	 214A      2.395697   215A      2.398430   216A      2.423851  
	 217A      2.453386   218A      2.464962   219A      2.502955  
	 220A      2.536256   221A      2.583377   222A      2.659090  
	 223A      2.660245   224A      2.687947   225A      2.698556  
	 226A      2.787472   227A      2.788015   228A      2.841390  
	 229A      2.862648   230A      2.867446   231A      2.967929  
	 232A      2.986499   233A      3.012365   234A      3.047828  
	 235A      3.094316   236A      3.148420   237A      3.177162  
	 238A      3.183983   239A      3.258868   240A      3.267729  
	 241A      3.335237   242A      3.393733   243A      3.602993  
	 244A      3.629264   245A      3.669999   246A      3.750336  
	 247A      3.806504   248A      3.822765   249A      3.890290  
	 250A      3.928492   251A      3.996404   252A      4.075654  
	 253A      4.091643   254A      4.304266   255A      4.814591  
	 256A      4.858246  

	Final Occupation by Irrep:
	          A 
	DOCC [    30 ]

  Energy converged.

  @RHF Final Energy:  -381.62690052991690

   => Energetics <=

    Nuclear Repulsion Energy =            352.6175461152533330
    One-Electron Energy =               -1219.6163703976319539
    Two-Electron Energy =                 485.3719237524624077
    DFT Exchange-Correlation Energy =       0.0000000000000000
    Empirical Dispersion Energy =           0.0000000000000000
    Total Energy =                       -381.6269005299161563



Properties will be evaluated at   0.000000,   0.000000,   0.000000 Bohr
  ==> Properties <==


Properties computed using the SCF density density matrix
  Nuclear Dipole Moment: (a.u.)
     X:    -2.4901      Y:    -0.4089      Z:     1.1695

  Electronic Dipole Moment: (a.u.)
     X:     0.9895      Y:    -0.5245      Z:    -0.5198

  Dipole Moment: (a.u.)
     X:    -1.5006      Y:    -0.9335      Z:     0.6497     Total:     1.8829

  Dipole Moment: (Debye)
     X:    -3.8142      Y:    -2.3727      Z:     1.6514     Total:     4.7859


  Saving occupied orbitals to File 180.

  Saving SAPT 2-DIMER file.

*** tstop() called on node31.bme.utexas.edu at Wed Sep  3 12:36:58 2014
Module time:
	user time   =     113.55 seconds =       1.89 minutes
	system time =       1.90 seconds =       0.03 minutes
	total time  =         32 seconds =       0.53 minutes
Total time:
	user time   =     113.55 seconds =       1.89 minutes
	system time =       1.90 seconds =       0.03 minutes
	total time  =         32 seconds =       0.53 minutes

  //>>>>>>>>>>>>>>>>>>>>>>>>>>>>>>>>>>>//
  //            Monomer A HF           //
  //<<<<<<<<<<<<<<<<<<<<<<<<<<<<<<<<<<<//


  No DF_BASIS_SCF auxiliary basis selected, defaulting to aug-cc-pvdz-jkfit


*** tstart() called on node31.bme.utexas.edu
*** at Wed Sep  3 12:36:58 2014


         ---------------------------------------------------------
                                   SCF
            by Justin Turney, Rob Parrish, and Andy Simmonett
                              RHF Reference
                        4 Threads,   7000 MiB Core
         ---------------------------------------------------------

  ==> Geometry <==

    Molecular point group: c1
    Full point group: C1

    Geometry (in Angstrom), charge = 0, multiplicity = 1:

       Center              X                  Y                   Z       
    ------------   -----------------  -----------------  -----------------
           C         -0.675899659183     0.526282365682     0.368501820823
           C         -0.306230659183     1.867670365682     0.297533820823
           C          0.913997340817     2.237701365682    -0.261938179177
           C          1.766015340817     1.249066365682    -0.752537179177
           C          1.405428340817    -0.092440634318    -0.685966179177
           C          0.181566340817    -0.459927634318    -0.124530179177
           O         -0.120977659183    -1.785370634318    -0.084684179177
           H         -1.624512659183     0.239386365682     0.803497820823
           H         -0.978153659183     2.623005365682     0.682481820823
           H          1.197179340817     3.279230365682    -0.315177179177
           H          2.717128340817     1.521174365682    -1.189931179177
           H          2.056746340817    -0.868662634318    -1.062642179177
           H         -0.992732659183    -1.898253634318     0.327148820823
           O(Gh)     -2.176837959183    -2.185961334318     0.875813720823
           H(Gh)     -2.838797959183    -2.601279334318     0.318240720823
           H(Gh)     -2.181323959183    -2.710457334318     1.679834720823

  Running in c1 symmetry.

  Nuclear repulsion =  271.469482844451250

  Charge       = 0
  Multiplicity = 1
  Electrons    = 50
  Nalpha       = 25
  Nbeta        = 25

  ==> Algorithm <==

  SCF Algorithm Type is DF.
  DIIS enabled.
  MOM disabled.
  Fractional occupation disabled.
  Guess Type is CORE.
  Energy threshold   = 1.00e-08
  Density threshold  = 1.00e-08
  Integral threshold = 0.00e+00

  ==> Primary Basis <==

  Basis Set: AUG-CC-PVDZ
    Number of shells: 112
    Number of basis function: 256
    Number of Cartesian functions: 272
    Spherical Harmonics?: true
    Max angular momentum: 2

  ==> Pre-Iterations <==

   -------------------------------------------------------
    Irrep   Nso     Nmo     Nalpha   Nbeta   Ndocc  Nsocc
   -------------------------------------------------------
     A        256     256       0       0       0       0
   -------------------------------------------------------
    Total     256     256      25      25      25       0
   -------------------------------------------------------

 OEINTS: Wrapper to libmints.
   by Justin Turney

   Calculation information:
      Number of atoms:                  16
      Number of AO shells:             112
      Number of SO shells:             112
      Number of primitives:            256
      Number of atomic orbitals:       272
      Number of basis functions:       256

      Number of irreps:                  1
      Number of functions per irrep: [ 256 ]

      Overlap, kinetic, potential, dipole, and quadrupole integrals
        stored in file 35.

  ==> Integral Setup <==

  ==> DFJK: Density-Fitted J/K Matrices <==

    J tasked:                  Yes
    K tasked:                  Yes
    wK tasked:                  No
    OpenMP threads:              4
    Integrals threads:           4
    Memory (MB):              5006
    Algorithm:                Core
    Integral Cache:           LOAD
    Schwarz Cutoff:          0E+00
    Fitting Condition:       1E-12

   => Auxiliary Basis Set <=

  Basis Set: aug-cc-pvdz-jkfit
    Number of shells: 320
    Number of basis function: 944
    Number of Cartesian functions: 1088
    Spherical Harmonics?: true
    Max angular momentum: 3

  Minimum eigenvalue in the overlap matrix is 2.2284162494E-06.
  Using Symmetric Orthogonalization.
  SCF Guess: Core (One-Electron) Hamiltonian.

  Guess energy:  -238.25566274621656

  ==> Iterations <==

                        Total Energy        Delta E     RMS |[F,P]|

   @RHF iter   1:  -253.55106747693878   -2.53551e+02   2.63822e-02 
   @RHF iter   2:  -203.16255394107736    5.03885e+01   2.92776e-02 DIIS
   @RHF iter   3:  -271.65693247934018   -6.84944e+01   2.11591e-02 DIIS
   @RHF iter   4:  -283.46861150905625   -1.18117e+01   1.80954e-02 DIIS
   @RHF iter   5:  -303.58258919174409   -2.01140e+01   7.84623e-03 DIIS
   @RHF iter   6:  -305.01961735921975   -1.43703e+00   3.52662e-03 DIIS
   @RHF iter   7:  -305.49415849043601   -4.74541e-01   1.70449e-03 DIIS
   @RHF iter   8:  -305.58712902976947   -9.29705e-02   4.44455e-04 DIIS
   @RHF iter   9:  -305.60017025259538   -1.30412e-02   1.25293e-04 DIIS
   @RHF iter  10:  -305.60111264101397   -9.42388e-04   3.90522e-05 DIIS
   @RHF iter  11:  -305.60121644203116   -1.03801e-04   2.20579e-05 DIIS
   @RHF iter  12:  -305.60124063718035   -2.41951e-05   8.42328e-06 DIIS
   @RHF iter  13:  -305.60124476821545   -4.13104e-06   2.44088e-06 DIIS
   @RHF iter  14:  -305.60124533902399   -5.70809e-07   1.08322e-06 DIIS
   @RHF iter  15:  -305.60124549943316   -1.60409e-07   5.18873e-07 DIIS
   @RHF iter  16:  -305.60124554344168   -4.40085e-08   2.10396e-07 DIIS
   @RHF iter  17:  -305.60124555034827   -6.90659e-09   5.39275e-08 DIIS
   @RHF iter  18:  -305.60124555071252   -3.64253e-10   1.30134e-08 DIIS
   @RHF iter  19:  -305.60124555073071   -1.81899e-11   3.52510e-09 DIIS

  ==> Post-Iterations <==

	Orbital Energies (a.u.)
	-----------------------

	Doubly Occupied:                                                      

	   1A    -20.604102     2A    -11.310716     3A    -11.249060  
	   4A    -11.247036     5A    -11.240687     6A    -11.234500  
	   7A    -11.233586     8A     -1.413622     9A     -1.151007  
	  10A     -1.023607    11A     -1.008717    12A     -0.850645  
	  13A     -0.826229    14A     -0.736967    15A     -0.688188  
	  16A     -0.655749    17A     -0.612540    18A     -0.593401  
	  19A     -0.592561    20A     -0.571089    21A     -0.518963  
	  22A     -0.494234    23A     -0.483822    24A     -0.343042  
	  25A     -0.315497  

	Virtual:                                                              

	  26A      0.027414    27A      0.038987    28A      0.043356  
	  29A      0.055226    30A      0.059082    31A      0.059172  
	  32A      0.075441    33A      0.082479    34A      0.104959  
	  35A      0.118019    36A      0.118831    37A      0.128925  
	  38A      0.133376    39A      0.142172    40A      0.143483  
	  41A      0.148365    42A      0.151823    43A      0.156504  
	  44A      0.160149    45A      0.162259    46A      0.169132  
	  47A      0.175454    48A      0.180677    49A      0.187927  
	  50A      0.191518    51A      0.195531    52A      0.200963  
	  53A      0.202818    54A      0.215088    55A      0.215230  
	  56A      0.239382    57A      0.256990    58A      0.264109  
	  59A      0.287603    60A      0.294523    61A      0.298625  
	  62A      0.308106    63A      0.321764    64A      0.322161  
	  65A      0.334116    66A      0.353571    67A      0.357624  
	  68A      0.361528    69A      0.371118    70A      0.372585  
	  71A      0.380415    72A      0.387482    73A      0.390302  
	  74A      0.405387    75A      0.410757    76A      0.412019  
	  77A      0.428820    78A      0.435506    79A      0.447385  
	  80A      0.448194    81A      0.451903    82A      0.481432  
	  83A      0.484924    84A      0.495271    85A      0.498254  
	  86A      0.503218    87A      0.513771    88A      0.514987  
	  89A      0.533612    90A      0.542936    91A      0.559360  
	  92A      0.565752    93A      0.566894    94A      0.592210  
	  95A      0.596199    96A      0.608568    97A      0.616381  
	  98A      0.622837    99A      0.630539   100A      0.638693  
	 101A      0.658387   102A      0.661616   103A      0.667061  
	 104A      0.682235   105A      0.684241   106A      0.686772  
	 107A      0.692713   108A      0.707523   109A      0.717252  
	 110A      0.728513   111A      0.748507   112A      0.751996  
	 113A      0.761722   114A      0.768047   115A      0.776213  
	 116A      0.789025   117A      0.794388   118A      0.829555  
	 119A      0.854406   120A      0.855560   121A      0.872202  
	 122A      0.877039   123A      0.885258   124A      0.908858  
	 125A      0.926864   126A      0.927194   127A      0.929564  
	 128A      0.945502   129A      0.952647   130A      0.963677  
	 131A      0.974216   132A      0.977472   133A      0.984587  
	 134A      0.994426   135A      1.006329   136A      1.041956  
	 137A      1.055156   138A      1.069063   139A      1.070224  
	 140A      1.110651   141A      1.138786   142A      1.152122  
	 143A      1.161483   144A      1.174804   145A      1.176460  
	 146A      1.190180   147A      1.214800   148A      1.272502  
	 149A      1.305369   150A      1.308520   151A      1.332713  
	 152A      1.356038   153A      1.377256   154A      1.407275  
	 155A      1.416541   156A      1.442728   157A      1.461483  
	 158A      1.490126   159A      1.495196   160A      1.526261  
	 161A      1.531131   162A      1.551288   163A      1.574854  
	 164A      1.585227   165A      1.587835   166A      1.603766  
	 167A      1.626298   168A      1.633636   169A      1.638144  
	 170A      1.654043   171A      1.663776   172A      1.698906  
	 173A      1.702640   174A      1.715659   175A      1.719277  
	 176A      1.727833   177A      1.730827   178A      1.791952  
	 179A      1.824193   180A      1.831336   181A      1.862538  
	 182A      1.875314   183A      1.901710   184A      1.902095  
	 185A      1.931077   186A      1.956487   187A      1.966410  
	 188A      1.971726   189A      1.977644   190A      1.989043  
	 191A      2.000262   192A      2.025819   193A      2.084900  
	 194A      2.105178   195A      2.126553   196A      2.142021  
	 197A      2.168117   198A      2.190297   199A      2.198681  
	 200A      2.212128   201A      2.226416   202A      2.253161  
	 203A      2.253796   204A      2.279971   205A      2.321760  
	 206A      2.343912   207A      2.347969   208A      2.359354  
	 209A      2.366131   210A      2.381565   211A      2.403292  
	 212A      2.435601   213A      2.486026   214A      2.514590  
	 215A      2.570432   216A      2.608831   217A      2.621179  
	 218A      2.664952   219A      2.758833   220A      2.772633  
	 221A      2.790480   222A      2.824774   223A      2.852279  
	 224A      2.895400   225A      2.963343   226A      2.966161  
	 227A      3.000691   228A      3.034623   229A      3.110407  
	 230A      3.131563   231A      3.177369   232A      3.211522  
	 233A      3.285012   234A      3.311831   235A      3.361609  
	 236A      3.568020   237A      3.609275   238A      3.754645  
	 239A      3.780576   240A      3.845868   241A      3.903450  
	 242A      3.913151   243A      3.987348   244A      4.036985  
	 245A      4.185232   246A      4.455546   247A      4.812055  
	 248A      4.944332   249A      5.029436   250A      5.273447  
	 251A      5.370741   252A      5.433496   253A      6.005063  
	 254A      6.788615   255A      7.006210   256A     33.526903  

	Final Occupation by Irrep:
	          A 
	DOCC [    25 ]

  Energy converged.

  @RHF Final Energy:  -305.60124555073071

   => Energetics <=

    Nuclear Repulsion Energy =            271.4694828444512495
    One-Electron Energy =                -952.1423197320699501
    Two-Electron Energy =                 375.0715913368886163
    DFT Exchange-Correlation Energy =       0.0000000000000000
    Empirical Dispersion Energy =           0.0000000000000000
    Total Energy =                       -305.6012455507300842



Properties will be evaluated at   0.000000,   0.000000,   0.000000 Bohr
  ==> Properties <==


Properties computed using the SCF density density matrix
  Nuclear Dipole Moment: (a.u.)
     X:    39.9055      Y:    42.6757      Z:   -15.8467

  Electronic Dipole Moment: (a.u.)
     X:   -40.3487      Y:   -42.4733      Z:    16.0769

  Dipole Moment: (a.u.)
     X:    -0.4432      Y:     0.2024      Z:     0.2302     Total:     0.5388

  Dipole Moment: (Debye)
     X:    -1.1264      Y:     0.5145      Z:     0.5850     Total:     1.3696


  Saving occupied orbitals to File 180.

  Saving SAPT 2-MONOMER_A file.

*** tstop() called on node31.bme.utexas.edu at Wed Sep  3 12:37:22 2014
Module time:
	user time   =      90.56 seconds =       1.51 minutes
	system time =       1.36 seconds =       0.02 minutes
	total time  =         24 seconds =       0.40 minutes
Total time:
	user time   =     204.13 seconds =       3.40 minutes
	system time =       3.26 seconds =       0.05 minutes
	total time  =         56 seconds =       0.93 minutes

  //>>>>>>>>>>>>>>>>>>>>>>>>>>>>>>>>>>>//
  //            Monomer B HF           //
  //<<<<<<<<<<<<<<<<<<<<<<<<<<<<<<<<<<<//


  No DF_BASIS_SCF auxiliary basis selected, defaulting to aug-cc-pvdz-jkfit


*** tstart() called on node31.bme.utexas.edu
*** at Wed Sep  3 12:37:22 2014


         ---------------------------------------------------------
                                   SCF
            by Justin Turney, Rob Parrish, and Andy Simmonett
                              RHF Reference
                        4 Threads,   7000 MiB Core
         ---------------------------------------------------------

  ==> Geometry <==

    Molecular point group: c1
    Full point group: C1

    Geometry (in Angstrom), charge = 0, multiplicity = 1:

       Center              X                  Y                   Z       
    ------------   -----------------  -----------------  -----------------
           C(Gh)     -0.675899659183     0.526282365682     0.368501820823
           C(Gh)     -0.306230659183     1.867670365682     0.297533820823
           C(Gh)      0.913997340817     2.237701365682    -0.261938179177
           C(Gh)      1.766015340817     1.249066365682    -0.752537179177
           C(Gh)      1.405428340817    -0.092440634318    -0.685966179177
           C(Gh)      0.181566340817    -0.459927634318    -0.124530179177
           O(Gh)     -0.120977659183    -1.785370634318    -0.084684179177
           H(Gh)     -1.624512659183     0.239386365682     0.803497820823
           H(Gh)     -0.978153659183     2.623005365682     0.682481820823
           H(Gh)      1.197179340817     3.279230365682    -0.315177179177
           H(Gh)      2.717128340817     1.521174365682    -1.189931179177
           H(Gh)      2.056746340817    -0.868662634318    -1.062642179177
           H(Gh)     -0.992732659183    -1.898253634318     0.327148820823
           O         -2.176837959183    -2.185961334318     0.875813720823
           H         -2.838797959183    -2.601279334318     0.318240720823
           H         -2.181323959183    -2.710457334318     1.679834720823

  Running in c1 symmetry.

  Nuclear repulsion =    9.168849860338906

  Charge       = 0
  Multiplicity = 1
  Electrons    = 10
  Nalpha       = 5
  Nbeta        = 5

  ==> Algorithm <==

  SCF Algorithm Type is DF.
  DIIS enabled.
  MOM disabled.
  Fractional occupation disabled.
  Guess Type is CORE.
  Energy threshold   = 1.00e-08
  Density threshold  = 1.00e-08
  Integral threshold = 0.00e+00

  ==> Primary Basis <==

  Basis Set: AUG-CC-PVDZ
    Number of shells: 112
    Number of basis function: 256
    Number of Cartesian functions: 272
    Spherical Harmonics?: true
    Max angular momentum: 2

  ==> Pre-Iterations <==

   -------------------------------------------------------
    Irrep   Nso     Nmo     Nalpha   Nbeta   Ndocc  Nsocc
   -------------------------------------------------------
     A        256     256       0       0       0       0
   -------------------------------------------------------
    Total     256     256       5       5       5       0
   -------------------------------------------------------

 OEINTS: Wrapper to libmints.
   by Justin Turney

   Calculation information:
      Number of atoms:                  16
      Number of AO shells:             112
      Number of SO shells:             112
      Number of primitives:            256
      Number of atomic orbitals:       272
      Number of basis functions:       256

      Number of irreps:                  1
      Number of functions per irrep: [ 256 ]

      Overlap, kinetic, potential, dipole, and quadrupole integrals
        stored in file 35.

  ==> Integral Setup <==

  ==> DFJK: Density-Fitted J/K Matrices <==

    J tasked:                  Yes
    K tasked:                  Yes
    wK tasked:                  No
    OpenMP threads:              4
    Integrals threads:           4
    Memory (MB):              5006
    Algorithm:                Core
    Integral Cache:           LOAD
    Schwarz Cutoff:          0E+00
    Fitting Condition:       1E-12

   => Auxiliary Basis Set <=

  Basis Set: aug-cc-pvdz-jkfit
    Number of shells: 320
    Number of basis function: 944
    Number of Cartesian functions: 1088
    Spherical Harmonics?: true
    Max angular momentum: 3

  Minimum eigenvalue in the overlap matrix is 2.2284162494E-06.
  Using Symmetric Orthogonalization.
  SCF Guess: Core (One-Electron) Hamiltonian.

  Guess energy:   -58.71481118725706

  ==> Iterations <==

                        Total Energy        Delta E     RMS |[F,P]|

   @RHF iter   1:   -68.22232587096499   -6.82223e+01   1.37813e-02 
   @RHF iter   2:   -64.84281723726096    3.37951e+00   1.01860e-02 DIIS
   @RHF iter   3:   -74.94687366073246   -1.01041e+01   6.51645e-03 DIIS
   @RHF iter   4:   -75.81478091028545   -8.67907e-01   2.84887e-03 DIIS
   @RHF iter   5:   -76.04061225461521   -2.25831e-01   2.38844e-04 DIIS
   @RHF iter   6:   -76.04182734785176   -1.21509e-03   1.10814e-04 DIIS
   @RHF iter   7:   -76.04210112710322   -2.73779e-04   1.28482e-05 DIIS
   @RHF iter   8:   -76.04210640693900   -5.27984e-06   2.20229e-06 DIIS
   @RHF iter   9:   -76.04210665654460   -2.49606e-07   4.59654e-07 DIIS
   @RHF iter  10:   -76.04210666521726   -8.67266e-09   9.41724e-08 DIIS
   @RHF iter  11:   -76.04210666557388   -3.56621e-10   7.48913e-09 DIIS

  ==> Post-Iterations <==

	Orbital Energies (a.u.)
	-----------------------

	Doubly Occupied:                                                      

	   1A    -20.578051     2A     -1.355200     3A     -0.716976  
	   4A     -0.585118     5A     -0.508955  

	Virtual:                                                              

	   6A      0.025313     7A      0.034042     8A      0.041279  
	   9A      0.053551    10A      0.056338    11A      0.061214  
	  12A      0.075960    13A      0.081522    14A      0.095489  
	  15A      0.101173    16A      0.116854    17A      0.127107  
	  18A      0.127423    19A      0.138026    20A      0.140843  
	  21A      0.147279    22A      0.155658    23A      0.161452  
	  24A      0.163665    25A      0.164544    26A      0.167673  
	  27A      0.174786    28A      0.183299    29A      0.196721  
	  30A      0.198549    31A      0.204101    32A      0.220281  
	  33A      0.230720    34A      0.241905    35A      0.249790  
	  36A      0.261440    37A      0.264445    38A      0.266448  
	  39A      0.269959    40A      0.287982    41A      0.293292  
	  42A      0.303065    43A      0.323064    44A      0.326060  
	  45A      0.341238    46A      0.352801    47A      0.360125  
	  48A      0.382720    49A      0.385879    50A      0.389999  
	  51A      0.397956    52A      0.415100    53A      0.417084  
	  54A      0.428993    55A      0.429933    56A      0.436635  
	  57A      0.439460    58A      0.460342    59A      0.471170  
	  60A      0.480292    61A      0.480807    62A      0.494719  
	  63A      0.495475    64A      0.512599    65A      0.514436  
	  66A      0.544078    67A      0.547054    68A      0.556053  
	  69A      0.561087    70A      0.562565    71A      0.571337  
	  72A      0.584226    73A      0.595533    74A      0.608838  
	  75A      0.608965    76A      0.632385    77A      0.635913  
	  78A      0.642888    79A      0.650921    80A      0.661534  
	  81A      0.677614    82A      0.687164    83A      0.698600  
	  84A      0.703772    85A      0.713755    86A      0.732861  
	  87A      0.733504    88A      0.767971    89A      0.771128  
	  90A      0.774989    91A      0.811651    92A      0.817320  
	  93A      0.819878    94A      0.836957    95A      0.847643  
	  96A      0.872920    97A      0.875891    98A      0.884170  
	  99A      0.896415   100A      0.905158   101A      0.906095  
	 102A      0.911300   103A      0.920453   104A      0.926020  
	 105A      0.927432   106A      0.944088   107A      0.946733  
	 108A      0.997148   109A      1.009520   110A      1.031019  
	 111A      1.039312   112A      1.046939   113A      1.057450  
	 114A      1.069639   115A      1.091844   116A      1.100833  
	 117A      1.103499   118A      1.134993   119A      1.144679  
	 120A      1.159836   121A      1.182219   122A      1.208075  
	 123A      1.216884   124A      1.241918   125A      1.275503  
	 126A      1.298484   127A      1.303215   128A      1.322180  
	 129A      1.347845   130A      1.383608   131A      1.386923  
	 132A      1.415538   133A      1.453131   134A      1.496068  
	 135A      1.509879   136A      1.535025   137A      1.544993  
	 138A      1.545385   139A      1.567483   140A      1.622523  
	 141A      1.623837   142A      1.637407   143A      1.654177  
	 144A      1.723191   145A      1.757709   146A      1.830659  
	 147A      1.897848   148A      1.932538   149A      2.033466  
	 150A      2.074536   151A      2.103351   152A      2.148854  
	 153A      2.155550   154A      2.157053   155A      2.166353  
	 156A      2.170592   157A      2.177853   158A      2.205340  
	 159A      2.207338   160A      2.218712   161A      2.219028  
	 162A      2.247603   163A      2.254868   164A      2.284273  
	 165A      2.286845   166A      2.306579   167A      2.312048  
	 168A      2.318627   169A      2.332753   170A      2.341946  
	 171A      2.363248   172A      2.477161   173A      2.484764  
	 174A      2.508171   175A      2.510616   176A      2.532688  
	 177A      2.549936   178A      2.576574   179A      2.602261  
	 180A      2.625094   181A      2.653181   182A      2.653307  
	 183A      2.658801   184A      2.680270   185A      2.691560  
	 186A      2.697606   187A      2.725872   188A      2.749331  
	 189A      2.798741   190A      2.816943   191A      2.843830  
	 192A      2.854571   193A      2.861476   194A      2.865635  
	 195A      2.884844   196A      2.913161   197A      2.950304  
	 198A      2.959915   199A      2.991187   200A      3.026125  
	 201A      3.047936   202A      3.163423   203A      3.207316  
	 204A      3.251667   205A      3.288809   206A      3.289536  
	 207A      3.389571   208A      3.411885   209A      3.412538  
	 210A      3.420265   211A      3.437474   212A      3.485789  
	 213A      3.495126   214A      3.536933   215A      3.561298  
	 216A      3.592979   217A      3.702829   218A      3.747950  
	 219A      3.797651   220A      3.836269   221A      3.900489  
	 222A      4.010733   223A      4.058662   224A      4.072598  
	 225A      4.096733   226A      4.203813   227A      4.324959  
	 228A      4.351138   229A      4.372238   230A      4.420784  
	 231A      4.533893   232A      4.709390   233A      4.897008  
	 234A      4.969059   235A      5.025134   236A      5.040768  
	 237A      5.143433   238A      5.178320   239A      5.317496  
	 240A      5.468708   241A      5.481389   242A      5.518986  
	 243A      5.676620   244A      5.757375   245A      5.942870  
	 246A      6.032979   247A      6.077548   248A      6.932904  
	 249A      7.529482   250A     18.008621   251A     18.424760  
	 252A     18.490997   253A     19.056936   254A     19.089619  
	 255A     20.679664   256A     33.647697  

	Final Occupation by Irrep:
	          A 
	DOCC [     5 ]

  Energy converged.

  @RHF Final Energy:   -76.04210666557388

   => Energetics <=

    Nuclear Repulsion Energy =              9.1688498603389057
    One-Electron Energy =                -122.9333052586595159
    Two-Electron Energy =                  37.7223487327467950
    DFT Exchange-Correlation Energy =       0.0000000000000000
    Empirical Dispersion Energy =           0.0000000000000000
    Total Energy =                        -76.0421066655738116



Properties will be evaluated at   0.000000,   0.000000,   0.000000 Bohr
  ==> Properties <==


Properties computed using the SCF density density matrix
  Nuclear Dipole Moment: (a.u.)
     X:   -42.3957      Y:   -43.0847      Z:    17.0162

  Electronic Dipole Moment: (a.u.)
     X:    41.9548      Y:    42.4593      Z:   -16.8535

  Dipole Moment: (a.u.)
     X:    -0.4408      Y:    -0.6254      Z:     0.1627     Total:     0.7822

  Dipole Moment: (Debye)
     X:    -1.1205      Y:    -1.5896      Z:     0.4136     Total:     1.9883


  Saving occupied orbitals to File 180.

  Saving SAPT 2-MONOMER_B file.

*** tstop() called on node31.bme.utexas.edu at Wed Sep  3 12:37:34 2014
Module time:
	user time   =      44.13 seconds =       0.74 minutes
	system time =       0.47 seconds =       0.01 minutes
	total time  =         12 seconds =       0.20 minutes
Total time:
	user time   =     248.28 seconds =       4.14 minutes
	system time =       3.73 seconds =       0.06 minutes
	total time  =         68 seconds =       1.13 minutes
  No DF_BASIS_SAPT auxiliary basis selected, defaulting to aug-cc-pvdz-ri

  //>>>>>>>>>>>>>>>>>>>>>>>>>>>>>>>>>>>//
  //               SAPT2+              //
  //<<<<<<<<<<<<<<<<<<<<<<<<<<<<<<<<<<<//


*** tstart() called on node31.bme.utexas.edu
*** at Wed Sep  3 12:37:34 2014

        SAPT2+  
    Ed Hohenstein
     6 June 2009

      Orbital Information
  --------------------------
    NSO        =       256
    NMO        =       256
    NRI        =       760
    NOCC A     =        25
    NOCC B     =         5
    FOCC A     =         7
    FOCC B     =         1
    NVIR A     =       231
    NVIR B     =       251

    Estimated memory usage: 1328.1 MB

    Elst10,r            =    -0.050674916674 H
    Exch10 (S^2)        =     0.092200447677 H
    Exch10              =     0.096392764578 H
    Ind20,r (A<-B)      =    -0.020798041827 H
    Ind20,r (B<-A)      =    -0.026205631078 H
    Ind20,r             =    -0.047003672905 H
    Exch-Ind20,r (A<-B) =     0.017993617100 H
    Exch-Ind20,r (B<-A) =     0.011550008808 H
    Exch-Ind20,r        =     0.029543625909 H
    Disp20              =    -0.017856889534 H
    Exch-Disp20         =     0.004212003685 H
    Elst12,r            =    -0.001413388006 H
    Exch11              =    -0.000230259826 H
    Exch12              =     0.010636738512 H
    Ind22               =    -0.007849938964 H
    Disp21              =     0.001943224389 H
    Disp22 (SDQ)        =    -0.000861305751 H

    (i =   1 of   4)        441 seconds
    (i =   2 of   4)        886 seconds
    (i =   3 of   4)       1326 seconds
    (i =   4 of   4)       1767 seconds

    Disp220 (T)         =    -0.001448030013 H

    (i =   1 of  18)         46 seconds
    (i =   2 of  18)         93 seconds
    (i =   3 of  18)        139 seconds
    (i =   4 of  18)        185 seconds
    (i =   5 of  18)        232 seconds
    (i =   6 of  18)        278 seconds
    (i =   7 of  18)        324 seconds
    (i =   8 of  18)        371 seconds
    (i =   9 of  18)        417 seconds
    (i =  10 of  18)        463 seconds
    (i =  11 of  18)        509 seconds
    (i =  12 of  18)        556 seconds
    (i =  13 of  18)        602 seconds
    (i =  14 of  18)        648 seconds
    (i =  15 of  18)        695 seconds
    (i =  16 of  18)        741 seconds
    (i =  17 of  18)        788 seconds
    (i =  18 of  18)        834 seconds

    Disp202 (T)         =    -0.001162500118 H

    Disp22 (T)          =    -0.002610530132 H

    SAPT Results  
  -----------------------------------------------------------------------
    Electrostatics         -52.08830468 mH     -32.68590603 kcal mol^-1
      Elst10,r             -50.67491667 mH     -31.79899162 kcal mol^-1
      Elst12,r              -1.41338801 mH      -0.88691440 kcal mol^-1

    Exchange               106.79924326 mH      67.01753974 kcal mol^-1
      Exch10                96.39276458 mH      60.48737550 kcal mol^-1
      Exch10(S^2)           92.20044768 mH      57.85665682 kcal mol^-1
      Exch11(S^2)           -0.23025983 mH      -0.14449023 kcal mol^-1
      Exch12(S^2)           10.63673851 mH       6.67465447 kcal mol^-1

    Induction              -32.18211031 mH     -20.19457995 kcal mol^-1
      Ind20,r              -47.00367291 mH     -29.49525128 kcal mol^-1
      Ind22                 -7.84993896 mH      -4.92591127 kcal mol^-1
      Exch-Ind20,r          29.54362591 mH      18.53890592 kcal mol^-1
      Exch-Ind22             4.93399017 mH       3.09612571 kcal mol^-1
      delta HF,r (2)       -11.80611452 mH      -7.40844902 kcal mol^-1

    Dispersion             -15.17349734 mH      -9.52151373 kcal mol^-1
      Disp20               -17.85688953 mH     -11.20536782 kcal mol^-1
      Disp21                 1.94322439 mH       1.21939176 kcal mol^-1
      Disp22 (SDQ)          -0.86130575 mH      -0.54047754 kcal mol^-1
      Disp22 (T)            -2.61053013 mH      -1.63813246 kcal mol^-1
      Exch-Disp20            4.21200368 mH       2.64307233 kcal mol^-1

    Total HF                16.45168639 mH      10.32358950 kcal mol^-1
    Total SAPT0              2.80680054 mH       1.76129400 kcal mol^-1
    Total SAPT2              8.88394243 mH       5.57475827 kcal mol^-1
    Total SAPT2+             7.35533093 mH       4.61554004 kcal mol^-1

*** tstop() called on node31.bme.utexas.edu at Wed Sep  3 13:31:47 2014
Module time:
	user time   =   11319.91 seconds =     188.67 minutes
	system time =      69.61 seconds =       1.16 minutes
	total time  =       3253 seconds =      54.22 minutes
Total time:
	user time   =   11568.19 seconds =     192.80 minutes
	system time =      73.34 seconds =       1.22 minutes
	total time  =       3321 seconds =      55.35 minutes

*** PSI4 exiting successfully. Buy a developer a beer!
