    -----------------------------------------------------------------------
          PSI4: An Open-Source Ab Initio Electronic Structure Package
                              PSI 4.0.0-beta4 Driver

    J. M. Turney, A. C. Simmonett, R. M. Parrish, E. G. Hohenstein,
    F. A. Evangelista, J. T. Fermann, B. J. Mintz, L. A. Burns, J. J. Wilke,
    M. L. Abrams, N. J. Russ, M. L. Leininger, C. L. Janssen, E. T. Seidl,
    W. D. Allen, H. F. Schaefer, R. A. King, E. F. Valeev, C. D. Sherrill,
    and T. D. Crawford, WIREs Comput. Mol. Sci., (2011) (doi: 10.1002/wcms.93)

                         Additional Contributions by
    A. E. DePrince, M. Saitow, U. Bozkaya, A. Yu. Sokolov
    -----------------------------------------------------------------------

    Process ID:  23838
    PSI4DATADIR: /home/xzhu216/psi4/psi4-install/share/psi

    Using LocalCommunicator (Number of processes = 1)

    Memory level set to 256.000 MB

  ==> Input File <==

--------------------------------------------------------------------------
#psi4
#
memory 7 gb

molecule Indole_Water {
0 1
    N    -2.633039000    -1.751090000    -0.900115000
    C    -2.257806000     1.403205000     0.733621000
    C    -3.533166000     1.939620000     0.673294000
    C    -4.594196000     1.239407000     0.063735000
    C    -4.399328000    -0.012758000    -0.497992000
    C    -3.111741000    -0.553793000    -0.436832000
    C    -2.026325000     0.135278000     0.173448000
    C    -0.882740000    -0.707951000     0.050804000
    C    -1.295587000    -1.844201000    -0.607824000
    H    -1.452019000     1.951354000     1.204536000
    H    -3.723673000     2.914694000     1.100929000
    H    -5.577995000     1.687927000     0.034147000
    H    -5.213371000    -0.550691000    -0.966004000
    H     0.116630000    -0.510733000     0.399383000
    H    -3.177614000    -2.454193000    -1.380703000
    H    -0.735089000    -2.718720000    -0.892972000
--
0 1
    O    -4.214705250    -3.749700400    -2.274812600
    H    -4.766506250    -4.428304400    -1.880369600
    H    -4.430979250    -3.779794400    -3.209100600
units angstrom
no_reorient  #important for SAPT in psi4, default
symmetry c1  #important for SAPT in psi4, default
}

set {
basis aug-cc-pVDZ
scf_type DF
freeze_core True
}
energy('sapt2+')
--------------------------------------------------------------------------

  Memory set to   7.000 GiB by Python script.

  //>>>>>>>>>>>>>>>>>>>>>>>>>>>>>>>>>>>//
  //              Dimer HF             //
  //<<<<<<<<<<<<<<<<<<<<<<<<<<<<<<<<<<<//


  No DF_BASIS_SCF auxiliary basis selected, defaulting to aug-cc-pvdz-jkfit


*** tstart() called on node61.bme.utexas.edu
*** at Wed Sep  3 12:43:11 2014


         ---------------------------------------------------------
                                   SCF
            by Justin Turney, Rob Parrish, and Andy Simmonett
                              RHF Reference
                        4 Threads,   7000 MiB Core
         ---------------------------------------------------------

  ==> Geometry <==

    Molecular point group: c1
    Full point group: C1

    Geometry (in Angstrom), charge = 0, multiplicity = 1:

       Center              X                  Y                   Z       
    ------------   -----------------  -----------------  -----------------
           N          0.318668074199    -1.208688688381    -0.509226722892
           C          0.693901074199     1.945606311619     1.124509277108
           C         -0.581458925801     2.482021311619     1.064182277108
           C         -1.642488925801     1.781808311619     0.454623277108
           C         -1.447620925801     0.529643311619    -0.107103722892
           C         -0.160033925801    -0.011391688381    -0.045943722892
           C          0.925382074199     0.677679311619     0.564336277108
           C          2.068967074199    -0.165549688381     0.441692277108
           C          1.656120074199    -1.301799688381    -0.216935722892
           H          1.499688074199     2.493755311619     1.595424277108
           H         -0.771965925801     3.457095311619     1.491817277108
           H         -2.626287925801     2.230328311619     0.425035277108
           H         -2.261663925801    -0.008289688381    -0.575115722892
           H          3.068337074199     0.031668311619     0.790271277108
           H         -0.225906925801    -1.911791688381    -0.989814722892
           H          2.216618074199    -2.176318688381    -0.502083722892
           O         -1.262998175801    -3.207299088381    -1.883924322892
           H         -1.814799175801    -3.885903088381    -1.489481322892
           H         -1.479272175801    -3.237393088381    -2.818212322892

  Running in c1 symmetry.

  Nuclear repulsion =  482.282399785247321

  Charge       = 0
  Multiplicity = 1
  Electrons    = 72
  Nalpha       = 36
  Nbeta        = 36

  ==> Algorithm <==

  SCF Algorithm Type is DF.
  DIIS enabled.
  MOM disabled.
  Fractional occupation disabled.
  Guess Type is CORE.
  Energy threshold   = 1.00e-08
  Density threshold  = 1.00e-08
  Integral threshold = 0.00e+00

  ==> Primary Basis <==

  Basis Set: AUG-CC-PVDZ
    Number of shells: 135
    Number of basis function: 311
    Number of Cartesian functions: 331
    Spherical Harmonics?: true
    Max angular momentum: 2

  ==> Pre-Iterations <==

   -------------------------------------------------------
    Irrep   Nso     Nmo     Nalpha   Nbeta   Ndocc  Nsocc
   -------------------------------------------------------
     A        311     311       0       0       0       0
   -------------------------------------------------------
    Total     311     311      36      36      36       0
   -------------------------------------------------------

 OEINTS: Wrapper to libmints.
   by Justin Turney

   Calculation information:
      Number of atoms:                  19
      Number of AO shells:             135
      Number of SO shells:             135
      Number of primitives:            313
      Number of atomic orbitals:       331
      Number of basis functions:       311

      Number of irreps:                  1
      Number of functions per irrep: [ 311 ]

      Overlap, kinetic, potential, dipole, and quadrupole integrals
        stored in file 35.

  ==> Integral Setup <==

  ==> DFJK: Density-Fitted J/K Matrices <==

    J tasked:                  Yes
    K tasked:                  Yes
    wK tasked:                  No
    OpenMP threads:              4
    Integrals threads:           4
    Memory (MB):              5006
    Algorithm:                Core
    Integral Cache:           SAVE
    Schwarz Cutoff:          0E+00
    Fitting Condition:       1E-12

   => Auxiliary Basis Set <=

  Basis Set: aug-cc-pvdz-jkfit
    Number of shells: 388
    Number of basis function: 1148
    Number of Cartesian functions: 1325
    Spherical Harmonics?: true
    Max angular momentum: 3

  Minimum eigenvalue in the overlap matrix is 1.8599217581E-06.
  Using Symmetric Orthogonalization.
  SCF Guess: Core (One-Electron) Hamiltonian.

  Guess energy:  -358.54036736260025

  ==> Iterations <==

                        Total Energy        Delta E     RMS |[F,P]|

   @RHF iter   1:  -308.39422553972497   -3.08394e+02   3.08441e-02 
   @RHF iter   2:   -89.52368670941871    2.18871e+02   6.05524e-02 DIIS
   @RHF iter   3:  -313.52663992292753   -2.24003e+02   2.78460e-02 DIIS
   @RHF iter   4:  -356.38216865234369   -4.28555e+01   2.83279e-02 DIIS
   @RHF iter   5:  -414.30368731197575   -5.79215e+01   1.77547e-02 DIIS
   @RHF iter   6:  -420.51658758036353   -6.21290e+00   1.38010e-02 DIIS
   @RHF iter   7:  -436.49452868150456   -1.59779e+01   3.92256e-03 DIIS
   @RHF iter   8:  -437.18491064597504   -6.90382e-01   2.48552e-03 DIIS
   @RHF iter   9:  -437.52936077879099   -3.44450e-01   5.02629e-04 DIIS
   @RHF iter  10:  -437.55390647111687   -2.45457e-02   1.86598e-04 DIIS
   @RHF iter  11:  -437.55658276363681   -2.67629e-03   6.02909e-05 DIIS
   @RHF iter  12:  -437.55712389797441   -5.41134e-04   2.89885e-05 DIIS
   @RHF iter  13:  -437.55720032318175   -7.64252e-05   1.46170e-05 DIIS
   @RHF iter  14:  -437.55721966859699   -1.93454e-05   5.22315e-06 DIIS
   @RHF iter  15:  -437.55722205608265   -2.38749e-06   1.11308e-06 DIIS
   @RHF iter  16:  -437.55722220142354   -1.45341e-07   4.38867e-07 DIIS
   @RHF iter  17:  -437.55722223600810   -3.45846e-08   2.50884e-07 DIIS
   @RHF iter  18:  -437.55722224969884   -1.36907e-08   1.02799e-07 DIIS
   @RHF iter  19:  -437.55722225260354   -2.90470e-09   4.13505e-08 DIIS
   @RHF iter  20:  -437.55722225311149   -5.07953e-10   2.03072e-08 DIIS
   @RHF iter  21:  -437.55722225319562   -8.41283e-11   7.18649e-09 DIIS

  ==> Post-Iterations <==

	Orbital Energies (a.u.)
	-----------------------

	Doubly Occupied:                                                      

	   1A    -20.613718     2A    -15.587952     3A    -11.263344  
	   4A    -11.255802     5A    -11.225816     6A    -11.224665  
	   7A    -11.223402     8A    -11.217888     9A    -11.216097  
	  10A    -11.208872    11A     -1.394858    12A     -1.285472  
	  13A     -1.120751    14A     -1.046301    15A     -0.987786  
	  16A     -0.964525    17A     -0.833162    18A     -0.796205  
	  19A     -0.778691    20A     -0.755022    21A     -0.720380  
	  22A     -0.653557    23A     -0.639102    24A     -0.632810  
	  25A     -0.587462    26A     -0.579352    27A     -0.568413  
	  28A     -0.561359    29A     -0.547717    30A     -0.538398  
	  31A     -0.497593    32A     -0.470532    33A     -0.452478  
	  34A     -0.373137    35A     -0.287798    36A     -0.269044  

	Virtual:                                                              

	  37A      0.018681    38A      0.041582    39A      0.045099  
	  40A      0.048293    41A      0.052860    42A      0.057150  
	  43A      0.069456    44A      0.078484    45A      0.084818  
	  46A      0.102122    47A      0.123346    48A      0.125729  
	  49A      0.132371    50A      0.137441    51A      0.141794  
	  52A      0.143436    53A      0.149317    54A      0.150844  
	  55A      0.152760    56A      0.155846    57A      0.158858  
	  58A      0.166680    59A      0.170180    60A      0.171260  
	  61A      0.175939    62A      0.187538    63A      0.188460  
	  64A      0.190434    65A      0.203103    66A      0.203621  
	  67A      0.205720    68A      0.213462    69A      0.218438  
	  70A      0.223734    71A      0.226933    72A      0.242182  
	  73A      0.246322    74A      0.254898    75A      0.256299  
	  76A      0.276839    77A      0.279020    78A      0.285841  
	  79A      0.306257    80A      0.311150    81A      0.317221  
	  82A      0.327995    83A      0.334675    84A      0.336019  
	  85A      0.340627    86A      0.348596    87A      0.352729  
	  88A      0.355653    89A      0.367022    90A      0.372514  
	  91A      0.377019    92A      0.382423    93A      0.385020  
	  94A      0.390982    95A      0.399920    96A      0.411702  
	  97A      0.414055    98A      0.419981    99A      0.427812  
	 100A      0.434919   101A      0.439497   102A      0.443328  
	 103A      0.453702   104A      0.454666   105A      0.457270  
	 106A      0.465223   107A      0.487873   108A      0.498190  
	 109A      0.501257   110A      0.519203   111A      0.524344  
	 112A      0.539849   113A      0.544516   114A      0.552983  
	 115A      0.562201   116A      0.563480   117A      0.570240  
	 118A      0.571515   119A      0.586993   120A      0.594143  
	 121A      0.610173   122A      0.619236   123A      0.621566  
	 124A      0.624366   125A      0.646122   126A      0.653210  
	 127A      0.659667   128A      0.662435   129A      0.676167  
	 130A      0.679966   131A      0.688643   132A      0.693394  
	 133A      0.695971   134A      0.699921   135A      0.701010  
	 136A      0.705087   137A      0.714839   138A      0.725237  
	 139A      0.725943   140A      0.729904   141A      0.732691  
	 142A      0.744888   143A      0.752084   144A      0.763317  
	 145A      0.789037   146A      0.789467   147A      0.791613  
	 148A      0.819051   149A      0.826819   150A      0.841267  
	 151A      0.849813   152A      0.855429   153A      0.870178  
	 154A      0.871877   155A      0.885800   156A      0.893835  
	 157A      0.894475   158A      0.900963   159A      0.911555  
	 160A      0.929889   161A      0.941196   162A      0.954415  
	 163A      0.956781   164A      0.959823   165A      0.979497  
	 166A      0.985194   167A      0.985237   168A      0.988358  
	 169A      1.009101   170A      1.028999   171A      1.029985  
	 172A      1.037608   173A      1.054656   174A      1.058541  
	 175A      1.067158   176A      1.079625   177A      1.106592  
	 178A      1.114940   179A      1.127676   180A      1.156267  
	 181A      1.157565   182A      1.167615   183A      1.191203  
	 184A      1.201207   185A      1.207441   186A      1.220929  
	 187A      1.243339   188A      1.247808   189A      1.275457  
	 190A      1.300972   191A      1.333852   192A      1.336325  
	 193A      1.339547   194A      1.367783   195A      1.390389  
	 196A      1.417683   197A      1.435199   198A      1.475115  
	 199A      1.507167   200A      1.507492   201A      1.529143  
	 202A      1.544552   203A      1.557099   204A      1.564130  
	 205A      1.575637   206A      1.606584   207A      1.612217  
	 208A      1.617226   209A      1.631786   210A      1.648820  
	 211A      1.652348   212A      1.656605   213A      1.671052  
	 214A      1.686618   215A      1.715613   216A      1.726184  
	 217A      1.737738   218A      1.746987   219A      1.751659  
	 220A      1.763416   221A      1.767801   222A      1.779146  
	 223A      1.806902   224A      1.821374   225A      1.850592  
	 226A      1.866689   227A      1.896299   228A      1.904425  
	 229A      1.920469   230A      1.948854   231A      1.960687  
	 232A      1.962026   233A      1.974839   234A      1.979052  
	 235A      1.994710   236A      1.999051   237A      2.013958  
	 238A      2.023255   239A      2.044843   240A      2.057789  
	 241A      2.077717   242A      2.082466   243A      2.111586  
	 244A      2.121548   245A      2.143732   246A      2.149754  
	 247A      2.155473   248A      2.157901   249A      2.158942  
	 250A      2.179858   251A      2.218379   252A      2.225695  
	 253A      2.245145   254A      2.247283   255A      2.264055  
	 256A      2.275266   257A      2.296919   258A      2.317819  
	 259A      2.324742   260A      2.353330   261A      2.365408  
	 262A      2.390968   263A      2.396077   264A      2.399988  
	 265A      2.413272   266A      2.431231   267A      2.451981  
	 268A      2.471457   269A      2.515707   270A      2.530874  
	 271A      2.577837   272A      2.632245   273A      2.647828  
	 274A      2.663664   275A      2.674286   276A      2.710795  
	 277A      2.739448   278A      2.779392   279A      2.811660  
	 280A      2.819158   281A      2.847852   282A      2.882199  
	 283A      2.883893   284A      2.929171   285A      2.934264  
	 286A      2.955851   287A      2.969990   288A      2.980193  
	 289A      3.019749   290A      3.042857   291A      3.095564  
	 292A      3.121866   293A      3.160898   294A      3.197973  
	 295A      3.233764   296A      3.275384   297A      3.389053  
	 298A      3.430237   299A      3.489995   300A      3.522504  
	 301A      3.563253   302A      3.667785   303A      3.748433  
	 304A      3.790271   305A      3.820804   306A      3.875682  
	 307A      4.027666   308A      4.105709   309A      4.240001  
	 310A      4.318963   311A      4.698101  

	Final Occupation by Irrep:
	          A 
	DOCC [    36 ]

  Energy converged.

  @RHF Final Energy:  -437.55722225319562

   => Energetics <=

    Nuclear Repulsion Energy =            482.2823997852473212
    One-Electron Energy =               -1550.9203236158343771
    Two-Electron Energy =                 631.0807015773900730
    DFT Exchange-Correlation Energy =       0.0000000000000000
    Empirical Dispersion Energy =           0.0000000000000000
    Total Energy =                       -437.5572222531970965



Properties will be evaluated at   0.000000,   0.000000,   0.000000 Bohr
  ==> Properties <==


Properties computed using the SCF density density matrix
  Nuclear Dipole Moment: (a.u.)
     X:    -2.2525      Y:    -2.8307      Z:    -1.9502

  Electronic Dipole Moment: (a.u.)
     X:     1.4852      Y:     1.2427      Z:     0.9815

  Dipole Moment: (a.u.)
     X:    -0.7673      Y:    -1.5880      Z:    -0.9687     Total:     2.0122

  Dipole Moment: (Debye)
     X:    -1.9502      Y:    -4.0363      Z:    -2.4621     Total:     5.1144


  Saving occupied orbitals to File 180.

  Saving SAPT 2-DIMER file.

*** tstop() called on node61.bme.utexas.edu at Wed Sep  3 12:44:14 2014
Module time:
	user time   =     232.06 seconds =       3.87 minutes
	system time =       2.22 seconds =       0.04 minutes
	total time  =         63 seconds =       1.05 minutes
Total time:
	user time   =     232.06 seconds =       3.87 minutes
	system time =       2.22 seconds =       0.04 minutes
	total time  =         63 seconds =       1.05 minutes

  //>>>>>>>>>>>>>>>>>>>>>>>>>>>>>>>>>>>//
  //            Monomer A HF           //
  //<<<<<<<<<<<<<<<<<<<<<<<<<<<<<<<<<<<//


  No DF_BASIS_SCF auxiliary basis selected, defaulting to aug-cc-pvdz-jkfit


*** tstart() called on node61.bme.utexas.edu
*** at Wed Sep  3 12:44:14 2014


         ---------------------------------------------------------
                                   SCF
            by Justin Turney, Rob Parrish, and Andy Simmonett
                              RHF Reference
                        4 Threads,   7000 MiB Core
         ---------------------------------------------------------

  ==> Geometry <==

    Molecular point group: c1
    Full point group: C1

    Geometry (in Angstrom), charge = 0, multiplicity = 1:

       Center              X                  Y                   Z       
    ------------   -----------------  -----------------  -----------------
           N          0.318668074199    -1.208688688381    -0.509226722892
           C          0.693901074199     1.945606311619     1.124509277108
           C         -0.581458925801     2.482021311619     1.064182277108
           C         -1.642488925801     1.781808311619     0.454623277108
           C         -1.447620925801     0.529643311619    -0.107103722892
           C         -0.160033925801    -0.011391688381    -0.045943722892
           C          0.925382074199     0.677679311619     0.564336277108
           C          2.068967074199    -0.165549688381     0.441692277108
           C          1.656120074199    -1.301799688381    -0.216935722892
           H          1.499688074199     2.493755311619     1.595424277108
           H         -0.771965925801     3.457095311619     1.491817277108
           H         -2.626287925801     2.230328311619     0.425035277108
           H         -2.261663925801    -0.008289688381    -0.575115722892
           H          3.068337074199     0.031668311619     0.790271277108
           H         -0.225906925801    -1.911791688381    -0.989814722892
           H          2.216618074199    -2.176318688381    -0.502083722892
           O(Gh)     -1.262998175801    -3.207299088381    -1.883924322892
           H(Gh)     -1.814799175801    -3.885903088381    -1.489481322892
           H(Gh)     -1.479272175801    -3.237393088381    -2.818212322892

  Running in c1 symmetry.

  Nuclear repulsion =  401.019874047637472

  Charge       = 0
  Multiplicity = 1
  Electrons    = 62
  Nalpha       = 31
  Nbeta        = 31

  ==> Algorithm <==

  SCF Algorithm Type is DF.
  DIIS enabled.
  MOM disabled.
  Fractional occupation disabled.
  Guess Type is CORE.
  Energy threshold   = 1.00e-08
  Density threshold  = 1.00e-08
  Integral threshold = 0.00e+00

  ==> Primary Basis <==

  Basis Set: AUG-CC-PVDZ
    Number of shells: 135
    Number of basis function: 311
    Number of Cartesian functions: 331
    Spherical Harmonics?: true
    Max angular momentum: 2

  ==> Pre-Iterations <==

   -------------------------------------------------------
    Irrep   Nso     Nmo     Nalpha   Nbeta   Ndocc  Nsocc
   -------------------------------------------------------
     A        311     311       0       0       0       0
   -------------------------------------------------------
    Total     311     311      31      31      31       0
   -------------------------------------------------------

 OEINTS: Wrapper to libmints.
   by Justin Turney

   Calculation information:
      Number of atoms:                  19
      Number of AO shells:             135
      Number of SO shells:             135
      Number of primitives:            313
      Number of atomic orbitals:       331
      Number of basis functions:       311

      Number of irreps:                  1
      Number of functions per irrep: [ 311 ]

      Overlap, kinetic, potential, dipole, and quadrupole integrals
        stored in file 35.

  ==> Integral Setup <==

  ==> DFJK: Density-Fitted J/K Matrices <==

    J tasked:                  Yes
    K tasked:                  Yes
    wK tasked:                  No
    OpenMP threads:              4
    Integrals threads:           4
    Memory (MB):              5006
    Algorithm:                Core
    Integral Cache:           LOAD
    Schwarz Cutoff:          0E+00
    Fitting Condition:       1E-12

   => Auxiliary Basis Set <=

  Basis Set: aug-cc-pvdz-jkfit
    Number of shells: 388
    Number of basis function: 1148
    Number of Cartesian functions: 1325
    Spherical Harmonics?: true
    Max angular momentum: 3

  Minimum eigenvalue in the overlap matrix is 1.8599217582E-06.
  Using Symmetric Orthogonalization.
  SCF Guess: Core (One-Electron) Hamiltonian.

  Guess energy:  -289.52421265823182

  ==> Iterations <==

                        Total Energy        Delta E     RMS |[F,P]|

   @RHF iter   1:  -284.28662862155841   -2.84287e+02   2.55744e-02 
   @RHF iter   2:  -237.68882942132927    4.65978e+01   2.69454e-02 DIIS
   @RHF iter   3:  -277.98315894837697   -4.02943e+01   2.77891e-02 DIIS
   @RHF iter   4:  -333.10703539630015   -5.51239e+01   1.93331e-02 DIIS
   @RHF iter   5:  -341.65077646431928   -8.54374e+00   1.60014e-02 DIIS
   @RHF iter   6:  -361.27158179998287   -1.96208e+01   1.82123e-03 DIIS
   @RHF iter   7:  -361.45474288178832   -1.83161e-01   9.32737e-04 DIIS
   @RHF iter   8:  -361.50418075374910   -4.94379e-02   2.24567e-04 DIIS
   @RHF iter   9:  -361.50916975232110   -4.98900e-03   8.75839e-05 DIIS
   @RHF iter  10:  -361.50973295481617   -5.63202e-04   3.94549e-05 DIIS
   @RHF iter  11:  -361.50986170771171   -1.28753e-04   1.83999e-05 DIIS
   @RHF iter  12:  -361.50989529690003   -3.35892e-05   8.11867e-06 DIIS
   @RHF iter  13:  -361.50990021584505   -4.91895e-06   2.47971e-06 DIIS
   @RHF iter  14:  -361.50990115047466   -9.34630e-07   7.79640e-07 DIIS
   @RHF iter  15:  -361.50990126086140   -1.10387e-07   4.62265e-07 DIIS
   @RHF iter  16:  -361.50990131541198   -5.45506e-08   1.86362e-07 DIIS
   @RHF iter  17:  -361.50990132732079   -1.19088e-08   6.71008e-08 DIIS
   @RHF iter  18:  -361.50990132869822   -1.37743e-09   2.82241e-08 DIIS
   @RHF iter  19:  -361.50990132884976   -1.51545e-10   9.52009e-09 DIIS

  ==> Post-Iterations <==

	Orbital Energies (a.u.)
	-----------------------

	Doubly Occupied:                                                      

	   1A    -15.613296     2A    -11.277948     3A    -11.270372  
	   4A    -11.237270     5A    -11.235299     6A    -11.234017  
	   7A    -11.230683     8A    -11.226422     9A    -11.223002  
	  10A     -1.304275    11A     -1.132837    12A     -1.060320  
	  13A     -1.000615    14A     -0.977377    15A     -0.846021  
	  16A     -0.809312    17A     -0.792549    18A     -0.730934  
	  19A     -0.664671    20A     -0.649767    21A     -0.604370  
	  22A     -0.597709    23A     -0.585714    24A     -0.575308  
	  25A     -0.551298    26A     -0.508694    27A     -0.482903  
	  28A     -0.465122    29A     -0.386053    30A     -0.301092  
	  31A     -0.281777  

	Virtual:                                                              

	  32A      0.022983    33A      0.038035    34A      0.041094  
	  35A      0.051333    36A      0.053654    37A      0.055081  
	  38A      0.069766    39A      0.074842    40A      0.079410  
	  41A      0.095648    42A      0.112275    43A      0.115519  
	  44A      0.125314    45A      0.130306    46A      0.132624  
	  47A      0.136135    48A      0.138898    49A      0.143149  
	  50A      0.144968    51A      0.149227    52A      0.153567  
	  53A      0.160938    54A      0.163359    55A      0.164606  
	  56A      0.171595    57A      0.176418    58A      0.180282  
	  59A      0.186061    60A      0.191685    61A      0.193284  
	  62A      0.199639    63A      0.207312    64A      0.211566  
	  65A      0.215446    66A      0.216042    67A      0.223157  
	  68A      0.243361    69A      0.245220    70A      0.248172  
	  71A      0.264320    72A      0.280510    73A      0.291102  
	  74A      0.292109    75A      0.302731    76A      0.309281  
	  77A      0.321565    78A      0.325338    79A      0.329993  
	  80A      0.337073    81A      0.345875    82A      0.348132  
	  83A      0.363456    84A      0.370613    85A      0.374987  
	  86A      0.377645    87A      0.382321    88A      0.382710  
	  89A      0.401602    90A      0.405014    91A      0.409470  
	  92A      0.415930    93A      0.420034    94A      0.424920  
	  95A      0.425000    96A      0.431860    97A      0.431920  
	  98A      0.448452    99A      0.454043   100A      0.455161  
	 101A      0.462500   102A      0.467837   103A      0.480790  
	 104A      0.492212   105A      0.498841   106A      0.507551  
	 107A      0.512762   108A      0.533201   109A      0.539087  
	 110A      0.553610   111A      0.558648   112A      0.562492  
	 113A      0.569860   114A      0.583709   115A      0.584664  
	 116A      0.590376   117A      0.597741   118A      0.609223  
	 119A      0.610811   120A      0.626257   121A      0.641942  
	 122A      0.643557   123A      0.645753   124A      0.656757  
	 125A      0.670460   126A      0.674912   127A      0.680540  
	 128A      0.687025   129A      0.690240   130A      0.690452  
	 131A      0.695025   132A      0.696575   133A      0.714531  
	 134A      0.721392   135A      0.723809   136A      0.728405  
	 137A      0.731127   138A      0.736811   139A      0.753468  
	 140A      0.777920   141A      0.783136   142A      0.790158  
	 143A      0.792098   144A      0.813338   145A      0.827473  
	 146A      0.842654   147A      0.844724   148A      0.858229  
	 149A      0.861907   150A      0.877656   151A      0.882819  
	 152A      0.886451   153A      0.897451   154A      0.913648  
	 155A      0.913732   156A      0.936688   157A      0.945285  
	 158A      0.946449   159A      0.950697   160A      0.963309  
	 161A      0.966991   162A      0.975004   163A      0.993230  
	 164A      1.017535   165A      1.027977   166A      1.034556  
	 167A      1.041602   168A      1.044873   169A      1.059743  
	 170A      1.086339   171A      1.101092   172A      1.113948  
	 173A      1.122151   174A      1.139738   175A      1.146000  
	 176A      1.149420   177A      1.180781   178A      1.186289  
	 179A      1.199429   180A      1.209799   181A      1.212055  
	 182A      1.233816   183A      1.249996   184A      1.281179  
	 185A      1.306597   186A      1.307875   187A      1.311697  
	 188A      1.332356   189A      1.345856   190A      1.372243  
	 191A      1.382252   192A      1.399203   193A      1.425557  
	 194A      1.459283   195A      1.478803   196A      1.509850  
	 197A      1.516041   198A      1.525457   199A      1.535786  
	 200A      1.555378   201A      1.567513   202A      1.586222  
	 203A      1.599587   204A      1.608174   205A      1.618182  
	 206A      1.635688   207A      1.636838   208A      1.648101  
	 209A      1.658227   210A      1.679556   211A      1.711707  
	 212A      1.713548   213A      1.726367   214A      1.729952  
	 215A      1.740462   216A      1.749041   217A      1.756400  
	 218A      1.770051   219A      1.794866   220A      1.805381  
	 221A      1.839498   222A      1.859566   223A      1.886146  
	 224A      1.892965   225A      1.913972   226A      1.946852  
	 227A      1.955451   228A      1.957280   229A      1.967347  
	 230A      1.983829   231A      2.001320   232A      2.030007  
	 233A      2.042060   234A      2.044848   235A      2.049259  
	 236A      2.074092   237A      2.099787   238A      2.106356  
	 239A      2.127735   240A      2.135532   241A      2.146059  
	 242A      2.147779   243A      2.166643   244A      2.200609  
	 245A      2.209103   246A      2.235697   247A      2.236981  
	 248A      2.248538   249A      2.263311   250A      2.279685  
	 251A      2.287544   252A      2.310727   253A      2.329449  
	 254A      2.344060   255A      2.357729   256A      2.376230  
	 257A      2.382328   258A      2.387206   259A      2.417258  
	 260A      2.419569   261A      2.421558   262A      2.484916  
	 263A      2.497930   264A      2.509902   265A      2.525517  
	 266A      2.571904   267A      2.580603   268A      2.622034  
	 269A      2.651385   270A      2.662453   271A      2.721156  
	 272A      2.739413   273A      2.764556   274A      2.807119  
	 275A      2.851116   276A      2.867791   277A      2.883237  
	 278A      2.907877   279A      2.920134   280A      2.948916  
	 281A      2.967262   282A      2.992696   283A      3.028836  
	 284A      3.054678   285A      3.107499   286A      3.144489  
	 287A      3.166859   288A      3.219032   289A      3.257363  
	 290A      3.373956   291A      3.409914   292A      3.468230  
	 293A      3.486561   294A      3.552216   295A      3.687887  
	 296A      3.750623   297A      3.827090   298A      4.027824  
	 299A      4.031962   300A      4.106454   301A      4.222189  
	 302A      4.687977   303A      4.932054   304A      5.026145  
	 305A      5.091311   306A      5.321728   307A      5.381534  
	 308A      5.703105   309A      6.780171   310A      7.027647  
	 311A     33.555253  

	Final Occupation by Irrep:
	          A 
	DOCC [    31 ]

  Energy converged.

  @RHF Final Energy:  -361.50990132884976

   => Energetics <=

    Nuclear Repulsion Energy =            401.0198740476374724
    One-Electron Energy =               -1283.3454974834723998
    Two-Electron Energy =                 520.8157221069855041
    DFT Exchange-Correlation Energy =       0.0000000000000000
    Empirical Dispersion Energy =           0.0000000000000000
    Total Energy =                       -361.5099013288494234



Properties will be evaluated at   0.000000,   0.000000,   0.000000 Bohr
  ==> Properties <==


Properties computed using the SCF density density matrix
  Nuclear Dipole Moment: (a.u.)
     X:    23.0662      Y:    59.1177      Z:    34.6710

  Electronic Dipole Moment: (a.u.)
     X:   -23.1657      Y:   -59.8622      Z:   -35.0594

  Dipole Moment: (a.u.)
     X:    -0.0995      Y:    -0.7445      Z:    -0.3884     Total:     0.8456

  Dipole Moment: (Debye)
     X:    -0.2529      Y:    -1.8923      Z:    -0.9872     Total:     2.1492


  Saving occupied orbitals to File 180.

  Saving SAPT 2-MONOMER_A file.

*** tstop() called on node61.bme.utexas.edu at Wed Sep  3 12:44:59 2014
Module time:
	user time   =     172.91 seconds =       2.88 minutes
	system time =       1.30 seconds =       0.02 minutes
	total time  =         45 seconds =       0.75 minutes
Total time:
	user time   =     404.99 seconds =       6.75 minutes
	system time =       3.52 seconds =       0.06 minutes
	total time  =        108 seconds =       1.80 minutes

  //>>>>>>>>>>>>>>>>>>>>>>>>>>>>>>>>>>>//
  //            Monomer B HF           //
  //<<<<<<<<<<<<<<<<<<<<<<<<<<<<<<<<<<<//


  No DF_BASIS_SCF auxiliary basis selected, defaulting to aug-cc-pvdz-jkfit


*** tstart() called on node61.bme.utexas.edu
*** at Wed Sep  3 12:44:59 2014


         ---------------------------------------------------------
                                   SCF
            by Justin Turney, Rob Parrish, and Andy Simmonett
                              RHF Reference
                        4 Threads,   7000 MiB Core
         ---------------------------------------------------------

  ==> Geometry <==

    Molecular point group: c1
    Full point group: C1

    Geometry (in Angstrom), charge = 0, multiplicity = 1:

       Center              X                  Y                   Z       
    ------------   -----------------  -----------------  -----------------
           N(Gh)      0.318668074199    -1.208688688381    -0.509226722892
           C(Gh)      0.693901074199     1.945606311619     1.124509277108
           C(Gh)     -0.581458925801     2.482021311619     1.064182277108
           C(Gh)     -1.642488925801     1.781808311619     0.454623277108
           C(Gh)     -1.447620925801     0.529643311619    -0.107103722892
           C(Gh)     -0.160033925801    -0.011391688381    -0.045943722892
           C(Gh)      0.925382074199     0.677679311619     0.564336277108
           C(Gh)      2.068967074199    -0.165549688381     0.441692277108
           C(Gh)      1.656120074199    -1.301799688381    -0.216935722892
           H(Gh)      1.499688074199     2.493755311619     1.595424277108
           H(Gh)     -0.771965925801     3.457095311619     1.491817277108
           H(Gh)     -2.626287925801     2.230328311619     0.425035277108
           H(Gh)     -2.261663925801    -0.008289688381    -0.575115722892
           H(Gh)      3.068337074199     0.031668311619     0.790271277108
           H(Gh)     -0.225906925801    -1.911791688381    -0.989814722892
           H(Gh)      2.216618074199    -2.176318688381    -0.502083722892
           O         -1.262998175801    -3.207299088381    -1.883924322892
           H         -1.814799175801    -3.885903088381    -1.489481322892
           H         -1.479272175801    -3.237393088381    -2.818212322892

  Running in c1 symmetry.

  Nuclear repulsion =    9.173565664457584

  Charge       = 0
  Multiplicity = 1
  Electrons    = 10
  Nalpha       = 5
  Nbeta        = 5

  ==> Algorithm <==

  SCF Algorithm Type is DF.
  DIIS enabled.
  MOM disabled.
  Fractional occupation disabled.
  Guess Type is CORE.
  Energy threshold   = 1.00e-08
  Density threshold  = 1.00e-08
  Integral threshold = 0.00e+00

  ==> Primary Basis <==

  Basis Set: AUG-CC-PVDZ
    Number of shells: 135
    Number of basis function: 311
    Number of Cartesian functions: 331
    Spherical Harmonics?: true
    Max angular momentum: 2

  ==> Pre-Iterations <==

   -------------------------------------------------------
    Irrep   Nso     Nmo     Nalpha   Nbeta   Ndocc  Nsocc
   -------------------------------------------------------
     A        311     311       0       0       0       0
   -------------------------------------------------------
    Total     311     311       5       5       5       0
   -------------------------------------------------------

 OEINTS: Wrapper to libmints.
   by Justin Turney

   Calculation information:
      Number of atoms:                  19
      Number of AO shells:             135
      Number of SO shells:             135
      Number of primitives:            313
      Number of atomic orbitals:       331
      Number of basis functions:       311

      Number of irreps:                  1
      Number of functions per irrep: [ 311 ]

      Overlap, kinetic, potential, dipole, and quadrupole integrals
        stored in file 35.

  ==> Integral Setup <==

  ==> DFJK: Density-Fitted J/K Matrices <==

    J tasked:                  Yes
    K tasked:                  Yes
    wK tasked:                  No
    OpenMP threads:              4
    Integrals threads:           4
    Memory (MB):              5006
    Algorithm:                Core
    Integral Cache:           LOAD
    Schwarz Cutoff:          0E+00
    Fitting Condition:       1E-12

   => Auxiliary Basis Set <=

  Basis Set: aug-cc-pvdz-jkfit
    Number of shells: 388
    Number of basis function: 1148
    Number of Cartesian functions: 1325
    Spherical Harmonics?: true
    Max angular momentum: 3

  Minimum eigenvalue in the overlap matrix is 1.8599217582E-06.
  Using Symmetric Orthogonalization.
  SCF Guess: Core (One-Electron) Hamiltonian.

  Guess energy:   -58.68268106690567

  ==> Iterations <==

                        Total Energy        Delta E     RMS |[F,P]|

   @RHF iter   1:   -68.34652177104331   -6.83465e+01   1.11200e-02 
   @RHF iter   2:   -64.81353235237880    3.53299e+00   8.38366e-03 DIIS
   @RHF iter   3:   -74.99335773008231   -1.01798e+01   5.23758e-03 DIIS
   @RHF iter   4:   -75.82630427023560   -8.32947e-01   2.28119e-03 DIIS
   @RHF iter   5:   -76.04034109705142   -2.14037e-01   1.94483e-04 DIIS
   @RHF iter   6:   -76.04153408083108   -1.19298e-03   8.89677e-05 DIIS
   @RHF iter   7:   -76.04179659774277   -2.62517e-04   1.00516e-05 DIIS
   @RHF iter   8:   -76.04180152212908   -4.92439e-06   1.69299e-06 DIIS
   @RHF iter   9:   -76.04180175400529   -2.31876e-07   3.80320e-07 DIIS
   @RHF iter  10:   -76.04180176248992   -8.48463e-09   7.46195e-08 DIIS
   @RHF iter  11:   -76.04180176282794   -3.38019e-10   5.96368e-09 DIIS

  ==> Post-Iterations <==

	Orbital Energies (a.u.)
	-----------------------

	Doubly Occupied:                                                      

	   1A    -20.577855     2A     -1.355508     3A     -0.717683  
	   4A     -0.585251     5A     -0.508993  

	Virtual:                                                              

	   6A      0.023035     7A      0.031898     8A      0.036283  
	   9A      0.049138    10A      0.055249    11A      0.055760  
	  12A      0.065941    13A      0.078191    14A      0.083252  
	  15A      0.083717    16A      0.095544    17A      0.103093  
	  18A      0.109349    19A      0.119610    20A      0.124494  
	  21A      0.127751    22A      0.139088    23A      0.144769  
	  24A      0.149294    25A      0.149987    26A      0.154493  
	  27A      0.159761    28A      0.160544    29A      0.166667  
	  30A      0.180498    31A      0.185626    32A      0.191773  
	  33A      0.193685    34A      0.195559    35A      0.199248  
	  36A      0.202142    37A      0.215814    38A      0.220357  
	  39A      0.225216    40A      0.230497    41A      0.232400  
	  42A      0.248274    43A      0.254072    44A      0.257954  
	  45A      0.265056    46A      0.271065    47A      0.276943  
	  48A      0.289485    49A      0.304890    50A      0.308626  
	  51A      0.320021    52A      0.333888    53A      0.338357  
	  54A      0.347689    55A      0.352249    56A      0.369328  
	  57A      0.380939    58A      0.387454    59A      0.392175  
	  60A      0.394220    61A      0.394864    62A      0.404000  
	  63A      0.411272    64A      0.417686    65A      0.437404  
	  66A      0.441973    67A      0.447576    68A      0.453729  
	  69A      0.462533    70A      0.470200    71A      0.471265  
	  72A      0.481101    73A      0.488482    74A      0.497312  
	  75A      0.498793    76A      0.508477    77A      0.515260  
	  78A      0.518097    79A      0.521634    80A      0.533556  
	  81A      0.546098    82A      0.551852    83A      0.555696  
	  84A      0.557676    85A      0.561034    86A      0.573309  
	  87A      0.576488    88A      0.583816    89A      0.587545  
	  90A      0.595160    91A      0.614356    92A      0.618745  
	  93A      0.638778    94A      0.640586    95A      0.641477  
	  96A      0.648257    97A      0.653654    98A      0.665974  
	  99A      0.668672   100A      0.682808   101A      0.700329  
	 102A      0.710087   103A      0.725654   104A      0.732800  
	 105A      0.741752   106A      0.747935   107A      0.770072  
	 108A      0.776736   109A      0.783048   110A      0.803419  
	 111A      0.818948   112A      0.835055   113A      0.838890  
	 114A      0.849626   115A      0.853481   116A      0.859901  
	 117A      0.862217   118A      0.870686   119A      0.876660  
	 120A      0.884853   121A      0.896358   122A      0.899749  
	 123A      0.905548   124A      0.906963   125A      0.927161  
	 126A      0.935238   127A      0.935883   128A      0.954145  
	 129A      0.981176   130A      0.995315   131A      1.003094  
	 132A      1.005934   133A      1.022385   134A      1.023224  
	 135A      1.040770   136A      1.049924   137A      1.055965  
	 138A      1.060397   139A      1.075485   140A      1.089310  
	 141A      1.105768   142A      1.135281   143A      1.149740  
	 144A      1.150381   145A      1.156431   146A      1.174019  
	 147A      1.194267   148A      1.211564   149A      1.226351  
	 150A      1.234418   151A      1.240202   152A      1.252569  
	 153A      1.274730   154A      1.276924   155A      1.297040  
	 156A      1.312611   157A      1.345968   158A      1.350473  
	 159A      1.361304   160A      1.373381   161A      1.402139  
	 162A      1.419907   163A      1.431797   164A      1.443494  
	 165A      1.453119   166A      1.487310   167A      1.500116  
	 168A      1.503983   169A      1.540413   170A      1.562847  
	 171A      1.606149   172A      1.620837   173A      1.626613  
	 174A      1.686912   175A      1.703805   176A      1.732922  
	 177A      1.776862   178A      1.792323   179A      1.841994  
	 180A      2.021640   181A      2.037764   182A      2.075786  
	 183A      2.087816   184A      2.117687   185A      2.139863  
	 186A      2.162207   187A      2.165084   188A      2.180871  
	 189A      2.184213   190A      2.186801   191A      2.203507  
	 192A      2.211355   193A      2.233682   194A      2.234107  
	 195A      2.245122   196A      2.265693   197A      2.267188  
	 198A      2.277672   199A      2.300169   200A      2.304582  
	 201A      2.320262   202A      2.335497   203A      2.339005  
	 204A      2.345321   205A      2.349679   206A      2.387156  
	 207A      2.409398   208A      2.415401   209A      2.477075  
	 210A      2.487854   211A      2.494843   212A      2.512893  
	 213A      2.536790   214A      2.538706   215A      2.549691  
	 216A      2.564350   217A      2.575891   218A      2.601508  
	 219A      2.612246   220A      2.633650   221A      2.664682  
	 222A      2.665448   223A      2.676467   224A      2.692247  
	 225A      2.702076   226A      2.726723   227A      2.738221  
	 228A      2.750645   229A      2.767332   230A      2.798455  
	 231A      2.821955   232A      2.829325   233A      2.839479  
	 234A      2.872160   235A      2.879277   236A      2.880725  
	 237A      2.913821   238A      2.916738   239A      2.927789  
	 240A      2.950295   241A      2.997886   242A      3.001942  
	 243A      3.029071   244A      3.087951   245A      3.101052  
	 246A      3.141874   247A      3.169695   248A      3.212142  
	 249A      3.277064   250A      3.277918   251A      3.327029  
	 252A      3.347107   253A      3.396262   254A      3.423916  
	 255A      3.437536   256A      3.462662   257A      3.480517  
	 258A      3.486337   259A      3.519933   260A      3.564219  
	 261A      3.592378   262A      3.600747   263A      3.634602  
	 264A      3.701761   265A      3.704589   266A      3.713870  
	 267A      3.790990   268A      3.835313   269A      3.854357  
	 270A      3.857740   271A      3.859531   272A      3.878127  
	 273A      3.883965   274A      3.976907   275A      4.003020  
	 276A      4.075658   277A      4.091308   278A      4.119599  
	 279A      4.163424   280A      4.266655   281A      4.360678  
	 282A      4.453660   283A      4.524637   284A      4.579791  
	 285A      4.665596   286A      4.773310   287A      4.850753  
	 288A      4.889762   289A      4.936645   290A      5.093103  
	 291A      5.207641   292A      5.311092   293A      5.406826  
	 294A      5.461879   295A      5.484237   296A      5.560456  
	 297A      5.627487   298A      5.709751   299A      5.745265  
	 300A      5.883087   301A      6.215932   302A      6.429024  
	 303A     18.029955   304A     18.368910   305A     18.547699  
	 306A     18.586570   307A     19.040472   308A     19.158380  
	 309A     19.626897   310A     20.636797   311A     25.503572  

	Final Occupation by Irrep:
	          A 
	DOCC [     5 ]

  Energy converged.

  @RHF Final Energy:   -76.04180176282794

   => Energetics <=

    Nuclear Repulsion Energy =              9.1735656644575840
    One-Electron Energy =                -122.9401497827377057
    Two-Electron Energy =                  37.7247823554523904
    DFT Exchange-Correlation Energy =       0.0000000000000000
    Empirical Dispersion Energy =           0.0000000000000000
    Total Energy =                        -76.0418017628277312



Properties will be evaluated at   0.000000,   0.000000,   0.000000 Bohr
  ==> Properties <==


Properties computed using the SCF density density matrix
  Nuclear Dipole Moment: (a.u.)
     X:   -25.3187      Y:   -61.9484      Z:   -36.6212

  Electronic Dipole Moment: (a.u.)
     X:    24.8065      Y:    61.4765      Z:    36.2615

  Dipole Moment: (a.u.)
     X:    -0.5121      Y:    -0.4719      Z:    -0.3596     Total:     0.7838

  Dipole Moment: (Debye)
     X:    -1.3018      Y:    -1.1994      Z:    -0.9141     Total:     1.9922


  Saving occupied orbitals to File 180.

  Saving SAPT 2-MONOMER_B file.

*** tstop() called on node61.bme.utexas.edu at Wed Sep  3 12:45:22 2014
Module time:
	user time   =      84.42 seconds =       1.41 minutes
	system time =       0.98 seconds =       0.02 minutes
	total time  =         23 seconds =       0.38 minutes
Total time:
	user time   =     489.43 seconds =       8.16 minutes
	system time =       4.50 seconds =       0.07 minutes
	total time  =        131 seconds =       2.18 minutes
  No DF_BASIS_SAPT auxiliary basis selected, defaulting to aug-cc-pvdz-ri

  //>>>>>>>>>>>>>>>>>>>>>>>>>>>>>>>>>>>//
  //               SAPT2+              //
  //<<<<<<<<<<<<<<<<<<<<<<<<<<<<<<<<<<<//


*** tstart() called on node61.bme.utexas.edu
*** at Wed Sep  3 12:45:22 2014

        SAPT2+  
    Ed Hohenstein
     6 June 2009

      Orbital Information
  --------------------------
    NSO        =       311
    NMO        =       311
    NRI        =       927
    NOCC A     =        31
    NOCC B     =         5
    FOCC A     =         9
    FOCC B     =         1
    NVIR A     =       280
    NVIR B     =       306

    Estimated memory usage: 2854.0 MB

    Elst10,r            =    -0.014769005985 H
    Exch10 (S^2)        =     0.013733753440 H
    Exch10              =     0.013857870948 H
    Ind20,r (A<-B)      =    -0.002183260326 H
    Ind20,r (B<-A)      =    -0.003196699974 H
    Ind20,r             =    -0.005379960300 H
    Exch-Ind20,r (A<-B) =     0.001370288087 H
    Exch-Ind20,r (B<-A) =     0.001394686609 H
    Exch-Ind20,r        =     0.002764974696 H
    Disp20              =    -0.005140949749 H
    Exch-Disp20         =     0.000807290829 H
    Elst12,r            =     0.000090013438 H
    Exch11              =    -0.000145833247 H
    Exch12              =     0.002294697570 H
    Ind22               =    -0.000850463258 H
    Disp21              =     0.000416051350 H
    Disp22 (SDQ)        =    -0.000136738244 H

    (i =   1 of   4)       1334 seconds
    (i =   2 of   4)       2668 seconds
    (i =   3 of   4)       3997 seconds
    (i =   4 of   4)       5328 seconds

    Disp220 (T)         =    -0.000454075765 H

    (i =   1 of  22)        117 seconds
    (i =   2 of  22)        234 seconds
    (i =   3 of  22)        350 seconds
    (i =   4 of  22)        467 seconds
    (i =   5 of  22)        584 seconds
    (i =   6 of  22)        700 seconds
    (i =   7 of  22)        817 seconds
    (i =   8 of  22)        934 seconds
    (i =   9 of  22)       1051 seconds
    (i =  10 of  22)       1167 seconds
    (i =  11 of  22)       1284 seconds
    (i =  12 of  22)       1401 seconds
    (i =  13 of  22)       1517 seconds
    (i =  14 of  22)       1634 seconds
    (i =  15 of  22)       1751 seconds
    (i =  16 of  22)       1868 seconds
    (i =  17 of  22)       1984 seconds
    (i =  18 of  22)       2101 seconds
    (i =  19 of  22)       2218 seconds
    (i =  20 of  22)       2334 seconds
    (i =  21 of  22)       2451 seconds
    (i =  22 of  22)       2568 seconds

    Disp202 (T)         =    -0.000395448242 H

    Disp22 (T)          =    -0.000849524007 H

    SAPT Results  
  -----------------------------------------------------------------------
    Electrostatics         -14.67899255 mH      -9.21120727 kcal mol^-1
      Elst10,r             -14.76900598 mH      -9.26769156 kcal mol^-1
      Elst12,r               0.09001344 mH       0.05648429 kcal mol^-1

    Exchange                16.00673527 mH      10.04437845 kcal mol^-1
      Exch10                13.85787095 mH       8.69594567 kcal mol^-1
      Exch10(S^2)           13.73375344 mH       8.61806075 kcal mol^-1
      Exch11(S^2)           -0.14583325 mH      -0.09151175 kcal mol^-1
      Exch12(S^2)            2.29469757 mH       1.43994452 kcal mol^-1

    Induction               -5.02140298 mH      -3.15097808 kcal mol^-1
      Ind20,r               -5.37996030 mH      -3.37597620 kcal mol^-1
      Ind22                 -0.85046326 mH      -0.53367377 kcal mol^-1
      Exch-Ind20,r           2.76497470 mH       1.73504789 kcal mol^-1
      Exch-Ind22             0.43708675 mH       0.27427609 kcal mol^-1
      delta HF,r (2)        -1.99304088 mH      -1.25065208 kcal mol^-1

    Dispersion              -4.90386982 mH      -3.07722490 kcal mol^-1
      Disp20                -5.14094975 mH      -3.22599481 kcal mol^-1
      Disp21                 0.41605135 mH       0.26107617 kcal mol^-1
      Disp22 (SDQ)          -0.13673824 mH      -0.08580455 kcal mol^-1
      Disp22 (T)            -0.84952401 mH      -0.53308438 kcal mol^-1
      Exch-Disp20            0.80729083 mH       0.50658266 kcal mol^-1

    Total HF                -5.51916152 mH      -3.46332628 kcal mol^-1
    Total SAPT0             -9.85282044 mH      -6.18273843 kcal mol^-1
    Total SAPT2             -8.02731918 mH      -5.03721904 kcal mol^-1
    Total SAPT2+            -8.59753008 mH      -5.39503180 kcal mol^-1

*** tstop() called on node61.bme.utexas.edu at Wed Sep  3 15:22:08 2014
Module time:
	user time   =   33722.97 seconds =     562.05 minutes
	system time =     111.22 seconds =       1.85 minutes
	total time  =       9406 seconds =     156.77 minutes
Total time:
	user time   =   34212.42 seconds =     570.21 minutes
	system time =     115.72 seconds =       1.93 minutes
	total time  =       9537 seconds =     158.95 minutes

*** PSI4 exiting successfully. Buy a developer a beer!
