
    -----------------------------------------------------------------------
          Psi4: An Open-Source Ab Initio Electronic Structure Package
                               Psi4 1.4a2.dev224 

                         Git: Rev {master} e453b16 


    R. M. Parrish, L. A. Burns, D. G. A. Smith, A. C. Simmonett,
    A. E. DePrince III, E. G. Hohenstein, U. Bozkaya, A. Yu. Sokolov,
    R. Di Remigio, R. M. Richard, J. F. Gonthier, A. M. James,
    H. R. McAlexander, A. Kumar, M. Saitow, X. Wang, B. P. Pritchard,
    P. Verma, H. F. Schaefer III, K. Patkowski, R. A. King, E. F. Valeev,
    F. A. Evangelista, J. M. Turney, T. D. Crawford, and C. D. Sherrill,
    J. Chem. Theory Comput. 13(7) pp 3185--3197 (2017).
    (doi: 10.1021/acs.jctc.7b00174)


                         Additional Contributions by
    P. Kraus, H. Kruse, M. H. Lechner, M. C. Schieber, R. A. Shaw,
    A. Alenaizan, R. Galvelis, Z. L. Glick, S. Lehtola, and J. P. Misiewicz

    -----------------------------------------------------------------------


    Psi4 started on: Thursday, 23 April 2020 10:37AM

    Process ID: 109218
    Host:       node86.bme.utexas.edu
    PSIDATADIR: /home/liuchw/anaconda3/envs/psi4env/share/psi4
    Memory:     500.0 MiB
    Threads:    8
    
  ==> Input File <==

--------------------------------------------------------------------------
#Generated by lconvert.py for sapt job

memory 20 GB

molecule  {
0 1
  C       1.952940   -0.000020    0.000020
  H       2.317650   -0.471620    0.907560
  H       2.317720   -0.550420   -0.861990
  H       2.320030    1.020920   -0.045480
  H       0.867410    0.001600   -0.000090
--
0 1
  O      -4.267870   -0.000840   -0.000130
  H      -4.863480    0.751030    0.000360
  H      -4.859020   -0.756220    0.000360
units angstrom
no_reorient
symmetry c1
}

set {
scf_type DF
basis aug-cc-pvdz
freeze_core True
guess SAD
}
energy('sapt2+')
--------------------------------------------------------------------------

  Memory set to  18.626 GiB by Python driver.

Scratch directory: /scratch/liuchw/

  //>>>>>>>>>>>>>>>>>>>>>>>>>>>>>>>>>>>//
  //              Dimer HF             //
  //<<<<<<<<<<<<<<<<<<<<<<<<<<<<<<<<<<<//


*** tstart() called on node86.bme.utexas.edu
*** at Thu Apr 23 10:37:51 2020

   => Loading Basis Set <=

    Name: AUG-CC-PVDZ
    Role: ORBITAL
    Keyword: BASIS
    atoms 1        entry C          line   182 file /home/liuchw/anaconda3/envs/psi4env/share/psi4/basis/aug-cc-pvdz.gbs 
    atoms 2-5, 7-8 entry H          line    40 file /home/liuchw/anaconda3/envs/psi4env/share/psi4/basis/aug-cc-pvdz.gbs 
    atoms 6        entry O          line   254 file /home/liuchw/anaconda3/envs/psi4env/share/psi4/basis/aug-cc-pvdz.gbs 


         ---------------------------------------------------------
                                   SCF
               by Justin Turney, Rob Parrish, Andy Simmonett
                          and Daniel G. A. Smith
                              RHF Reference
                        8 Threads,  19073 MiB Core
         ---------------------------------------------------------

  ==> Geometry <==

    Molecular point group: c1
    Full point group: C1

    Geometry (in Angstrom), charge = 0, multiplicity = 1:

       Center              X                  Y                   Z               Mass       
    ------------   -----------------  -----------------  -----------------  -----------------
         C            3.326057825646     0.000521174354     0.000052715742    12.000000000000
         H            3.690767825646    -0.471078825646     0.907592715742     1.007825032230
         H            3.690837825646    -0.549878825646    -0.861957284258     1.007825032230
         H            3.693147825646     1.021461174354    -0.045447284258     1.007825032230
         H            2.240527825646     0.002141174354    -0.000057284258     1.007825032230
         O           -2.894752174354    -0.000298825646    -0.000097284258    15.994914619570
         H           -3.490362174354     0.751571174354     0.000392715742     1.007825032230
         H           -3.485902174354    -0.755678825646     0.000392715742     1.007825032230

  Running in c1 symmetry.

  Rotational constants: A =      3.91513  B =      0.04971  C =      0.04954 [cm^-1]
  Rotational constants: A = 117372.58835  B =   1490.13018  C =   1485.12201 [MHz]
  Nuclear repulsion =   31.023689980617434

  Charge       = 0
  Multiplicity = 1
  Electrons    = 20
  Nalpha       = 10
  Nbeta        = 10

  ==> Algorithm <==

  SCF Algorithm Type is DF.
  DIIS enabled.
  MOM disabled.
  Fractional occupation disabled.
  Guess Type is SAD.
  Energy threshold   = 1.00e-08
  Density threshold  = 1.00e-08
  Integral threshold = 0.00e+00

  ==> Primary Basis <==

  Basis Set: AUG-CC-PVDZ
    Blend: AUG-CC-PVDZ
    Number of shells: 48
    Number of basis function: 100
    Number of Cartesian functions: 104
    Spherical Harmonics?: true
    Max angular momentum: 2

   => Loading Basis Set <=

    Name: (AUG-CC-PVDZ AUX)
    Role: JKFIT
    Keyword: DF_BASIS_SCF
    atoms 1        entry C          line   154 file /home/liuchw/anaconda3/envs/psi4env/share/psi4/basis/aug-cc-pvdz-jkfit.gbs 
    atoms 2-5, 7-8 entry H          line    70 file /home/liuchw/anaconda3/envs/psi4env/share/psi4/basis/aug-cc-pvdz-jkfit.gbs 
    atoms 6        entry O          line   270 file /home/liuchw/anaconda3/envs/psi4env/share/psi4/basis/aug-cc-pvdz-jkfit.gbs 

  ==> Pre-Iterations <==

   -------------------------------------------------------
    Irrep   Nso     Nmo     Nalpha   Nbeta   Ndocc  Nsocc
   -------------------------------------------------------
     A        100     100       0       0       0       0
   -------------------------------------------------------
    Total     100     100      10      10      10       0
   -------------------------------------------------------

  ==> Integral Setup <==

  ==> DiskDFJK: Density-Fitted J/K Matrices <==

    J tasked:                  Yes
    K tasked:                  Yes
    wK tasked:                  No
    OpenMP threads:              8
    Integrals threads:           8
    Memory [MiB]:            14305
    Algorithm:                Core
    Integral Cache:           SAVE
    Schwarz Cutoff:          1E-12
    Fitting Condition:       1E-10

   => Auxiliary Basis Set <=

  Basis Set: (AUG-CC-PVDZ AUX)
    Blend: AUG-CC-PVDZ-JKFIT
    Number of shells: 128
    Number of basis function: 364
    Number of Cartesian functions: 412
    Spherical Harmonics?: true
    Max angular momentum: 3

  Minimum eigenvalue in the overlap matrix is 7.8423157242E-04.
  Using Symmetric Orthogonalization.

  SCF Guess: Superposition of Atomic Densities via on-the-fly atomic UHF.

  ==> Iterations <==

                           Total Energy        Delta E     RMS |[F,P]|

   @DF-RHF iter SAD:  -115.09396750165573   -1.15094e+02   0.00000e+00 
   @DF-RHF iter   1:  -116.08162607887324   -9.87659e-01   5.76451e-03 DIIS
   @DF-RHF iter   2:  -116.19845404431079   -1.16828e-01   3.27974e-03 DIIS
   @DF-RHF iter   3:  -116.23939184327085   -4.09378e-02   4.17673e-04 DIIS
   @DF-RHF iter   4:  -116.24070653270174   -1.31469e-03   1.52068e-04 DIIS
   @DF-RHF iter   5:  -116.24088692137542   -1.80389e-04   2.38427e-05 DIIS
   @DF-RHF iter   6:  -116.24089301047546   -6.08910e-06   4.25324e-06 DIIS
   @DF-RHF iter   7:  -116.24089327703469   -2.66559e-07   1.18404e-06 DIIS
   @DF-RHF iter   8:  -116.24089329869277   -2.16581e-08   2.26177e-07 DIIS
   @DF-RHF iter   9:  -116.24089329945389   -7.61119e-10   2.72600e-08 DIIS
   @DF-RHF iter  10:  -116.24089329946285   -8.96705e-12   7.18709e-09 DIIS
  Energy and wave function converged.


  ==> Post-Iterations <==

    Orbital Energies [Eh]
    ---------------------

    Doubly Occupied:                                                      

       1A    -20.578297     2A    -11.208144     3A     -1.356600  
       4A     -0.939460     5A     -0.716639     6A     -0.587453  
       7A     -0.539510     8A     -0.538986     9A     -0.538872  
      10A     -0.509827  

    Virtual:                                                              

      11A      0.033593    12A      0.044571    13A      0.056698  
      14A      0.066895    15A      0.068504    16A      0.084909  
      17A      0.150443    18A      0.151052    19A      0.157408  
      20A      0.183169    21A      0.197921    22A      0.202079  
      23A      0.231508    24A      0.252590    25A      0.288324  
      26A      0.305972    27A      0.306480    28A      0.311757  
      29A      0.312202    30A      0.313492    31A      0.338053  
      32A      0.386014    33A      0.417366    34A      0.427856  
      35A      0.436577    36A      0.446257    37A      0.451266  
      38A      0.456177    39A      0.523913    40A      0.528215  
      41A      0.530651    42A      0.546506    43A      0.575474  
      44A      0.613177    45A      0.613297    46A      0.619068  
      47A      0.652121    48A      0.655759    49A      0.673716  
      50A      0.677149    51A      0.687175    52A      0.740306  
      53A      0.740677    54A      0.811472    55A      0.938831  
      56A      0.993975    57A      0.994021    58A      0.999213  
      59A      1.102852    60A      1.129402    61A      1.148498  
      62A      1.160397    63A      1.305182    64A      1.350042  
      65A      1.350061    66A      1.357403    67A      1.466262  
      68A      1.481367    69A      1.587799    70A      1.747296  
      71A      1.747426    72A      1.898749    73A      1.898780  
      74A      1.899431    75A      1.995941    76A      2.006276  
      77A      2.008364    78A      2.111580    79A      2.223044  
      80A      2.223489    81A      2.223823    82A      2.298320  
      83A      2.298449    84A      2.308058    85A      2.358355  
      86A      2.480453    87A      2.626592    88A      2.646957  
      89A      2.647297    90A      2.714160    91A      2.848777  
      92A      2.942316    93A      2.942369    94A      2.944195  
      95A      2.980747    96A      3.674422    97A      3.702484  
      98A      3.709544    99A      4.019572   100A      4.307876  

    Final Occupation by Irrep:
              A 
    DOCC [    10 ]

  @DF-RHF Final Energy:  -116.24089329946285

   => Energetics <=

    Nuclear Repulsion Energy =             31.0236899806174335
    One-Electron Energy =                -219.5015905520277784
    Two-Electron Energy =                  72.2370072719474905
    Total Energy =                       -116.2408932994628543

Computation Completed


Properties will be evaluated at   0.000000,   0.000000,   0.000000 [a0]

Properties computed using the SCF density matrix

  Nuclear Dipole Moment: [e a0]
     X:     5.9287      Y:    -0.0014      Z:     0.0009

  Electronic Dipole Moment: [e a0]
     X:    -6.7379      Y:    -0.0009      Z:    -0.0002

  Dipole Moment: [e a0]
     X:    -0.8092      Y:    -0.0023      Z:     0.0007     Total:     0.8092

  Dipole Moment: [D]
     X:    -2.0568      Y:    -0.0059      Z:     0.0017     Total:     2.0568


*** tstop() called on node86.bme.utexas.edu at Thu Apr 23 10:37:54 2020
Module time:
	user time   =      12.52 seconds =       0.21 minutes
	system time =       0.46 seconds =       0.01 minutes
	total time  =          3 seconds =       0.05 minutes
Total time:
	user time   =      12.52 seconds =       0.21 minutes
	system time =       0.46 seconds =       0.01 minutes
	total time  =          3 seconds =       0.05 minutes

  //>>>>>>>>>>>>>>>>>>>>>>>>>>>>>>>>>>>//
  //            Monomer A HF           //
  //<<<<<<<<<<<<<<<<<<<<<<<<<<<<<<<<<<<//


*** tstart() called on node86.bme.utexas.edu
*** at Thu Apr 23 10:37:54 2020

   => Loading Basis Set <=

    Name: AUG-CC-PVDZ
    Role: ORBITAL
    Keyword: BASIS
    atoms 1        entry C          line   182 file /home/liuchw/anaconda3/envs/psi4env/share/psi4/basis/aug-cc-pvdz.gbs 
    atoms 2-5, 7-8 entry H          line    40 file /home/liuchw/anaconda3/envs/psi4env/share/psi4/basis/aug-cc-pvdz.gbs 
    atoms 6        entry O          line   254 file /home/liuchw/anaconda3/envs/psi4env/share/psi4/basis/aug-cc-pvdz.gbs 


         ---------------------------------------------------------
                                   SCF
               by Justin Turney, Rob Parrish, Andy Simmonett
                          and Daniel G. A. Smith
                              RHF Reference
                        8 Threads,  19073 MiB Core
         ---------------------------------------------------------

  ==> Geometry <==

    Molecular point group: c1
    Full point group: C1

    Geometry (in Angstrom), charge = 0, multiplicity = 1:

       Center              X                  Y                   Z               Mass       
    ------------   -----------------  -----------------  -----------------  -----------------
         C            3.326057825646     0.000521174354     0.000052715742    12.000000000000
         H            3.690767825646    -0.471078825646     0.907592715742     1.007825032230
         H            3.690837825646    -0.549878825646    -0.861957284258     1.007825032230
         H            3.693147825646     1.021461174354    -0.045447284258     1.007825032230
         H            2.240527825646     0.002141174354    -0.000057284258     1.007825032230
      Gh(O)          -2.894752174354    -0.000298825646    -0.000097284258    15.994914619570
      Gh(H)          -3.490362174354     0.751571174354     0.000392715742     1.007825032230
      Gh(H)          -3.485902174354    -0.755678825646     0.000392715742     1.007825032230

  Running in c1 symmetry.

  Rotational constants: A =      3.91513  B =      0.04971  C =      0.04954 [cm^-1]
  Rotational constants: A = 117372.58835  B =   1490.13018  C =   1485.12201 [MHz]
  Nuclear repulsion =   13.487669099021458

  Charge       = 0
  Multiplicity = 1
  Electrons    = 10
  Nalpha       = 5
  Nbeta        = 5

  ==> Algorithm <==

  SCF Algorithm Type is DF.
  DIIS enabled.
  MOM disabled.
  Fractional occupation disabled.
  Guess Type is SAD.
  Energy threshold   = 1.00e-08
  Density threshold  = 1.00e-08
  Integral threshold = 0.00e+00

  ==> Primary Basis <==

  Basis Set: AUG-CC-PVDZ
    Blend: AUG-CC-PVDZ
    Number of shells: 48
    Number of basis function: 100
    Number of Cartesian functions: 104
    Spherical Harmonics?: true
    Max angular momentum: 2

   => Loading Basis Set <=

    Name: (AUG-CC-PVDZ AUX)
    Role: JKFIT
    Keyword: DF_BASIS_SCF
    atoms 1        entry C          line   154 file /home/liuchw/anaconda3/envs/psi4env/share/psi4/basis/aug-cc-pvdz-jkfit.gbs 
    atoms 2-5, 7-8 entry H          line    70 file /home/liuchw/anaconda3/envs/psi4env/share/psi4/basis/aug-cc-pvdz-jkfit.gbs 
    atoms 6        entry O          line   270 file /home/liuchw/anaconda3/envs/psi4env/share/psi4/basis/aug-cc-pvdz-jkfit.gbs 

  ==> Pre-Iterations <==

   -------------------------------------------------------
    Irrep   Nso     Nmo     Nalpha   Nbeta   Ndocc  Nsocc
   -------------------------------------------------------
     A        100     100       0       0       0       0
   -------------------------------------------------------
    Total     100     100       5       5       5       0
   -------------------------------------------------------

  ==> Integral Setup <==

  ==> DiskDFJK: Density-Fitted J/K Matrices <==

    J tasked:                  Yes
    K tasked:                  Yes
    wK tasked:                  No
    OpenMP threads:              8
    Integrals threads:           8
    Memory [MiB]:            14305
    Algorithm:                Core
    Integral Cache:           LOAD
    Schwarz Cutoff:          1E-12
    Fitting Condition:       1E-10

   => Auxiliary Basis Set <=

  Basis Set: (AUG-CC-PVDZ AUX)
    Blend: AUG-CC-PVDZ-JKFIT
    Number of shells: 128
    Number of basis function: 364
    Number of Cartesian functions: 412
    Spherical Harmonics?: true
    Max angular momentum: 3

  Minimum eigenvalue in the overlap matrix is 7.8423157242E-04.
  Using Symmetric Orthogonalization.

  SCF Guess: Superposition of Atomic Densities via on-the-fly atomic UHF.

  ==> Iterations <==

                           Total Energy        Delta E     RMS |[F,P]|

   @DF-RHF iter SAD:   -39.62904779098405   -3.96290e+01   0.00000e+00 
   @DF-RHF iter   1:   -40.12449235849373   -4.95445e-01   3.56549e-03 DIIS
   @DF-RHF iter   2:   -40.18815170852039   -6.36594e-02   1.41803e-03 DIIS
   @DF-RHF iter   3:   -40.19888288944999   -1.07312e-02   2.28334e-04 DIIS
   @DF-RHF iter   4:   -40.19958733360147   -7.04444e-04   2.68058e-05 DIIS
   @DF-RHF iter   5:   -40.19959614323842   -8.80964e-06   2.12607e-06 DIIS
   @DF-RHF iter   6:   -40.19959621038769   -6.71493e-08   1.96689e-07 DIIS
   @DF-RHF iter   7:   -40.19959621079784   -4.10154e-10   1.39624e-08 DIIS
   @DF-RHF iter   8:   -40.19959621079946   -1.62004e-12   8.75083e-10 DIIS
  Energy and wave function converged.


  ==> Post-Iterations <==

    Orbital Energies [Eh]
    ---------------------

    Doubly Occupied:                                                      

       1A    -11.213815     2A     -0.945085     3A     -0.545608  
       4A     -0.544404     5A     -0.544278  

    Virtual:                                                              

       6A      0.029884     7A      0.042763     8A      0.058809  
       9A      0.063515    10A      0.067759    11A      0.075072  
      12A      0.142032    13A      0.145987    14A      0.148102  
      15A      0.157757    16A      0.164598    17A      0.175940  
      18A      0.204941    19A      0.213829    20A      0.301143  
      21A      0.301252    22A      0.304481    23A      0.306054  
      24A      0.306447    25A      0.368854    26A      0.389689  
      27A      0.419509    28A      0.431010    29A      0.434425  
      30A      0.441341    31A      0.442545    32A      0.452787  
      33A      0.460243    34A      0.481486    35A      0.519749  
      36A      0.523618    37A      0.524839    38A      0.551139  
      39A      0.572769    40A      0.607815    41A      0.607980  
      42A      0.608243    43A      0.621079    44A      0.668528  
      45A      0.669494    46A      0.678268    47A      0.734743  
      48A      0.735422    49A      0.856466    50A      0.890549  
      51A      0.988491    52A      0.988530    53A      0.993011  
      54A      1.102286    55A      1.135772    56A      1.172002  
      57A      1.263027    58A      1.279069    59A      1.314130  
      60A      1.338388    61A      1.346057    62A      1.346386  
      63A      1.347812    64A      1.403427    65A      1.741694  
      66A      1.741986    67A      1.892844    68A      1.893196  
      69A      1.894330    70A      1.990522    71A      2.020656  
      72A      2.217022    73A      2.217992    74A      2.218313  
      75A      2.257269    76A      2.292663    77A      2.292785  
      78A      2.302542    79A      2.373480    80A      2.463292  
      81A      2.556145    82A      2.641345    83A      2.641650  
      84A      2.704589    85A      2.843201    86A      2.936862  
      87A      2.936919    88A      2.938232    89A      3.370291  
      90A      3.912266    91A      4.010345    92A      4.892070  
      93A      4.942879    94A      4.963534    95A      5.082785  
      96A      5.388806    97A      5.589179    98A      6.600361  
      99A      7.051062   100A     33.548840  

    Final Occupation by Irrep:
              A 
    DOCC [     5 ]

  @DF-RHF Final Energy:   -40.19959621079946

   => Energetics <=

    Nuclear Repulsion Energy =             13.4876690990214581
    One-Electron Energy =                 -79.7881520504095505
    Two-Electron Energy =                  26.1008867405886278
    Total Energy =                        -40.1995962107994629

Computation Completed


Properties will be evaluated at   0.000000,   0.000000,   0.000000 [a0]

Properties computed using the SCF density matrix

  Nuclear Dipole Moment: [e a0]
     X:    62.8743      Y:     0.0109      Z:     0.0008

  Electronic Dipole Moment: [e a0]
     X:   -62.8731      Y:    -0.0109      Z:    -0.0009

  Dipole Moment: [e a0]
     X:     0.0012      Y:     0.0000      Z:    -0.0000     Total:     0.0012

  Dipole Moment: [D]
     X:     0.0030      Y:     0.0001      Z:    -0.0000     Total:     0.0030


*** tstop() called on node86.bme.utexas.edu at Thu Apr 23 10:37:56 2020
Module time:
	user time   =       7.04 seconds =       0.12 minutes
	system time =       0.23 seconds =       0.00 minutes
	total time  =          2 seconds =       0.03 minutes
Total time:
	user time   =      19.61 seconds =       0.33 minutes
	system time =       0.69 seconds =       0.01 minutes
	total time  =          5 seconds =       0.08 minutes

  //>>>>>>>>>>>>>>>>>>>>>>>>>>>>>>>>>>>//
  //            Monomer B HF           //
  //<<<<<<<<<<<<<<<<<<<<<<<<<<<<<<<<<<<//


*** tstart() called on node86.bme.utexas.edu
*** at Thu Apr 23 10:37:56 2020

   => Loading Basis Set <=

    Name: AUG-CC-PVDZ
    Role: ORBITAL
    Keyword: BASIS
    atoms 1        entry C          line   182 file /home/liuchw/anaconda3/envs/psi4env/share/psi4/basis/aug-cc-pvdz.gbs 
    atoms 2-5, 7-8 entry H          line    40 file /home/liuchw/anaconda3/envs/psi4env/share/psi4/basis/aug-cc-pvdz.gbs 
    atoms 6        entry O          line   254 file /home/liuchw/anaconda3/envs/psi4env/share/psi4/basis/aug-cc-pvdz.gbs 


         ---------------------------------------------------------
                                   SCF
               by Justin Turney, Rob Parrish, Andy Simmonett
                          and Daniel G. A. Smith
                              RHF Reference
                        8 Threads,  19073 MiB Core
         ---------------------------------------------------------

  ==> Geometry <==

    Molecular point group: c1
    Full point group: C1

    Geometry (in Angstrom), charge = 0, multiplicity = 1:

       Center              X                  Y                   Z               Mass       
    ------------   -----------------  -----------------  -----------------  -----------------
      Gh(C)           3.326057825646     0.000521174354     0.000052715742    12.000000000000
      Gh(H)           3.690767825646    -0.471078825646     0.907592715742     1.007825032230
      Gh(H)           3.690837825646    -0.549878825646    -0.861957284258     1.007825032230
      Gh(H)           3.693147825646     1.021461174354    -0.045447284258     1.007825032230
      Gh(H)           2.240527825646     0.002141174354    -0.000057284258     1.007825032230
         O           -2.894752174354    -0.000298825646    -0.000097284258    15.994914619570
         H           -3.490362174354     0.751571174354     0.000392715742     1.007825032230
         H           -3.485902174354    -0.755678825646     0.000392715742     1.007825032230

  Running in c1 symmetry.

  Rotational constants: A =      3.91513  B =      0.04971  C =      0.04954 [cm^-1]
  Rotational constants: A = 117372.58835  B =   1490.13018  C =   1485.12201 [MHz]
  Nuclear repulsion =    9.178090551937389

  Charge       = 0
  Multiplicity = 1
  Electrons    = 10
  Nalpha       = 5
  Nbeta        = 5

  ==> Algorithm <==

  SCF Algorithm Type is DF.
  DIIS enabled.
  MOM disabled.
  Fractional occupation disabled.
  Guess Type is SAD.
  Energy threshold   = 1.00e-08
  Density threshold  = 1.00e-08
  Integral threshold = 0.00e+00

  ==> Primary Basis <==

  Basis Set: AUG-CC-PVDZ
    Blend: AUG-CC-PVDZ
    Number of shells: 48
    Number of basis function: 100
    Number of Cartesian functions: 104
    Spherical Harmonics?: true
    Max angular momentum: 2

   => Loading Basis Set <=

    Name: (AUG-CC-PVDZ AUX)
    Role: JKFIT
    Keyword: DF_BASIS_SCF
    atoms 1        entry C          line   154 file /home/liuchw/anaconda3/envs/psi4env/share/psi4/basis/aug-cc-pvdz-jkfit.gbs 
    atoms 2-5, 7-8 entry H          line    70 file /home/liuchw/anaconda3/envs/psi4env/share/psi4/basis/aug-cc-pvdz-jkfit.gbs 
    atoms 6        entry O          line   270 file /home/liuchw/anaconda3/envs/psi4env/share/psi4/basis/aug-cc-pvdz-jkfit.gbs 

  ==> Pre-Iterations <==

   -------------------------------------------------------
    Irrep   Nso     Nmo     Nalpha   Nbeta   Ndocc  Nsocc
   -------------------------------------------------------
     A        100     100       0       0       0       0
   -------------------------------------------------------
    Total     100     100       5       5       5       0
   -------------------------------------------------------

  ==> Integral Setup <==

  ==> DiskDFJK: Density-Fitted J/K Matrices <==

    J tasked:                  Yes
    K tasked:                  Yes
    wK tasked:                  No
    OpenMP threads:              8
    Integrals threads:           8
    Memory [MiB]:            14305
    Algorithm:                Core
    Integral Cache:           LOAD
    Schwarz Cutoff:          1E-12
    Fitting Condition:       1E-10

   => Auxiliary Basis Set <=

  Basis Set: (AUG-CC-PVDZ AUX)
    Blend: AUG-CC-PVDZ-JKFIT
    Number of shells: 128
    Number of basis function: 364
    Number of Cartesian functions: 412
    Spherical Harmonics?: true
    Max angular momentum: 3

  Minimum eigenvalue in the overlap matrix is 7.8423157242E-04.
  Using Symmetric Orthogonalization.

  SCF Guess: Superposition of Atomic Densities via on-the-fly atomic UHF.

  ==> Iterations <==

                           Total Energy        Delta E     RMS |[F,P]|

   @DF-RHF iter SAD:   -75.46480664580872   -7.54648e+01   0.00000e+00 
   @DF-RHF iter   1:   -75.95696823347416   -4.92162e-01   4.53135e-03 DIIS
   @DF-RHF iter   2:   -76.01020203083590   -5.32338e-02   2.95921e-03 DIIS
   @DF-RHF iter   3:   -76.04084226322910   -3.06402e-02   2.12365e-04 DIIS
   @DF-RHF iter   4:   -76.04121865126058   -3.76388e-04   4.76342e-05 DIIS
   @DF-RHF iter   5:   -76.04123990772932   -2.12565e-05   1.07648e-05 DIIS
   @DF-RHF iter   6:   -76.04124159061963   -1.68289e-06   2.16233e-06 DIIS
   @DF-RHF iter   7:   -76.04124166230113   -7.16815e-08   3.57380e-07 DIIS
   @DF-RHF iter   8:   -76.04124166411083   -1.80970e-09   5.50172e-08 DIIS
   @DF-RHF iter   9:   -76.04124166414849   -3.76588e-11   1.43106e-08 DIIS
   @DF-RHF iter  10:   -76.04124166415100   -2.51532e-12   1.97784e-09 DIIS
  Energy and wave function converged.


  ==> Post-Iterations <==

    Orbital Energies [Eh]
    ---------------------

    Doubly Occupied:                                                      

       1A    -20.578020     2A     -1.356321     3A     -0.716361  
       4A     -0.587139     5A     -0.509541  

    Virtual:                                                              

       6A      0.030056     7A      0.038674     8A      0.056003  
       9A      0.062772    10A      0.065223    11A      0.077906  
      12A      0.126607    13A      0.142533    14A      0.142680  
      15A      0.156292    16A      0.197270    17A      0.201085  
      18A      0.231513    19A      0.252002    20A      0.286634  
      21A      0.309039    22A      0.310113    23A      0.312645  
      24A      0.331926    25A      0.339853    26A      0.348470  
      27A      0.349237    28A      0.386208    29A      0.415650  
      30A      0.433314    31A      0.446528    32A      0.446850  
      33A      0.465116    34A      0.521799    35A      0.536036  
      36A      0.556497    37A      0.559189    38A      0.562839  
      39A      0.645099    40A      0.657934    41A      0.675545  
      42A      0.676097    43A      0.698046    44A      0.726518  
      45A      0.727261    46A      0.727524    47A      0.776798  
      48A      0.793501    49A      0.796960    50A      0.798103  
      51A      0.813500    52A      0.856531    53A      0.859198  
      54A      0.939902    55A      1.103603    56A      1.148768  
      57A      1.150078    58A      1.305520    59A      1.466166  
      60A      1.481597    61A      1.587425    62A      1.793875  
      63A      1.793889    64A      1.803242    65A      1.876612  
      66A      2.005883    67A      2.008628    68A      2.111736  
      69A      2.207842    70A      2.207975    71A      2.253761  
      72A      2.253862    73A      2.254070    74A      2.324183  
      75A      2.324566    76A      2.326788    77A      2.358618  
      78A      2.480731    79A      2.624859    80A      2.675724  
      81A      2.676923    82A      2.678556    83A      2.687783  
      84A      2.715859    85A      2.980786    86A      3.084145  
      87A      3.084355    88A      3.157869    89A      3.158219  
      90A      3.161242    91A      3.579540    92A      3.674766  
      93A      3.702765    94A      3.710100    95A      4.019860  
      96A      4.308190    97A      5.110581    98A      5.111115  
      99A      5.117592   100A     18.452272  

    Final Occupation by Irrep:
              A 
    DOCC [     5 ]

  @DF-RHF Final Energy:   -76.04124166415100

   => Energetics <=

    Nuclear Repulsion Energy =              9.1780905519373892
    One-Electron Energy =                -122.9438996684344545
    Two-Electron Energy =                  37.7245674523460650
    Total Energy =                        -76.0412416641510021

Computation Completed


Properties will be evaluated at   0.000000,   0.000000,   0.000000 [a0]

Properties computed using the SCF density matrix

  Nuclear Dipole Moment: [e a0]
     X:   -56.9455      Y:    -0.0123      Z:     0.0000

  Electronic Dipole Moment: [e a0]
     X:    56.1522      Y:     0.0099      Z:     0.0006

  Dipole Moment: [e a0]
     X:    -0.7934      Y:    -0.0023      Z:     0.0007     Total:     0.7934

  Dipole Moment: [D]
     X:    -2.0165      Y:    -0.0060      Z:     0.0017     Total:     2.0165


*** tstop() called on node86.bme.utexas.edu at Thu Apr 23 10:37:57 2020
Module time:
	user time   =       7.16 seconds =       0.12 minutes
	system time =       0.23 seconds =       0.00 minutes
	total time  =          1 seconds =       0.02 minutes
Total time:
	user time   =      26.82 seconds =       0.45 minutes
	system time =       0.92 seconds =       0.02 minutes
	total time  =          6 seconds =       0.10 minutes
  Constructing Basis Sets for SAPT...

   => Loading Basis Set <=

    Name: (AUG-CC-PVDZ AUX)
    Role: RIFIT
    Keyword: DF_BASIS_SAPT
    atoms 1        entry C          line   112 file /home/liuchw/anaconda3/envs/psi4env/share/psi4/basis/aug-cc-pvdz-ri.gbs 
    atoms 2-5, 7-8 entry H          line    30 file /home/liuchw/anaconda3/envs/psi4env/share/psi4/basis/aug-cc-pvdz-ri.gbs 
    atoms 6        entry O          line   204 file /home/liuchw/anaconda3/envs/psi4env/share/psi4/basis/aug-cc-pvdz-ri.gbs 


  //>>>>>>>>>>>>>>>>>>>>>>>>>>>>>>>>>>>//
  //               SAPT2+              //
  //<<<<<<<<<<<<<<<<<<<<<<<<<<<<<<<<<<<//


*** tstart() called on node86.bme.utexas.edu
*** at Thu Apr 23 10:37:57 2020

        SAPT2+  
    Ed Hohenstein
     6 June 2009

      Orbital Information
  --------------------------
    NSO        =       100
    NMO        =       100
    NRI        =       282
    NOCC A     =         5
    NOCC B     =         5
    FOCC A     =         1
    FOCC B     =         1
    NVIR A     =        95
    NVIR B     =        95

    Estimated memory usage: 25.8 MB

    Natural Orbital Cutoff:   1.000E-06
    Disp(T3) Truncation:            Yes
    CCD (vv|vv) Truncation:         Yes
    MBPT T2 Truncation:             Yes

    Monomer A: 45 virtual orbitals dropped
    Monomer B: 61 virtual orbitals dropped

    Elst10,r            =    -0.000045761938 [Eh]
    Exch10 (S^2)        =     0.000000152085 [Eh]
    Exch10              =     0.000000152085 [Eh]
    Ind20,r (A<-B)      =    -0.000009518702 [Eh]
    Ind20,r (B<-A)      =    -0.000000020133 [Eh]
    Ind20,r             =    -0.000009538835 [Eh]
    Exch-Ind20,r (A<-B) =     0.000000005695 [Eh]
    Exch-Ind20,r (B<-A) =     0.000000001728 [Eh]
    Exch-Ind20,r        =     0.000000007422 [Eh]
    Disp20              =    -0.000029767942 [Eh]
    Disp20 (NO)         =    -0.000029323981 [Eh]
    Exch-Disp20         =     0.000000020210 [Eh]
    Elst12,r            =     0.000002439101 [Eh]
    Exch11              =    -0.000000012940 [Eh]
    Exch12              =     0.000000069114 [Eh]
    Ind22               =     0.000000948749 [Eh]
    Disp21              =     0.000001343203 [Eh]
    Disp22 (SDQ)        =     0.000000180427 [Eh]

    (i =   1 of   4)          0 seconds
    (i =   2 of   4)          0 seconds
    (i =   3 of   4)          0 seconds
    (i =   4 of   4)          0 seconds

    Disp220 (T)         =    -0.000001668949 [Eh]

    (i =   1 of   4)          0 seconds
    (i =   2 of   4)          0 seconds
    (i =   3 of   4)          0 seconds
    (i =   4 of   4)          0 seconds

    Disp202 (T)         =    -0.000002571358 [Eh]

    Disp22 (T)          =    -0.000004240307 [Eh]

    Est. Disp220 (T)    =    -0.000001694217 [Eh]
    Est. Disp202 (T)    =    -0.000002610287 [Eh]

    Est. Disp22 (T)     =    -0.000004304504 [Eh]

    SAPT Results 
  --------------------------------------------------------------------------------------------------------
    Electrostatics                 -0.04332284 [mEh]      -0.02718549 [kcal/mol]      -0.11374409 [kJ/mol]
      Elst10,r                     -0.04576194 [mEh]      -0.02871605 [kcal/mol]      -0.12014795 [kJ/mol]
      Elst12,r                      0.00243910 [mEh]       0.00153056 [kcal/mol]       0.00640386 [kJ/mol]

    Exchange                        0.00020826 [mEh]       0.00013068 [kcal/mol]       0.00054679 [kJ/mol]
      Exch10                        0.00015209 [mEh]       0.00009543 [kcal/mol]       0.00039930 [kJ/mol]
      Exch10(S^2)                   0.00015209 [mEh]       0.00009543 [kcal/mol]       0.00039930 [kJ/mol]
      Exch11(S^2)                  -0.00001294 [mEh]      -0.00000812 [kcal/mol]      -0.00003397 [kJ/mol]
      Exch12(S^2)                   0.00006911 [mEh]       0.00004337 [kcal/mol]       0.00018146 [kJ/mol]

    Induction                      -0.00886665 [mEh]      -0.00556391 [kcal/mol]      -0.02327938 [kJ/mol]
      Ind20,r                      -0.00953884 [mEh]      -0.00598571 [kcal/mol]      -0.02504421 [kJ/mol]
      Ind22                         0.00094875 [mEh]       0.00059535 [kcal/mol]       0.00249094 [kJ/mol]
      Exch-Ind20,r                  0.00000742 [mEh]       0.00000466 [kcal/mol]       0.00001949 [kJ/mol]
      Exch-Ind22                   -0.00000074 [mEh]      -0.00000046 [kcal/mol]      -0.00000194 [kJ/mol]
      delta HF,r (2)               -0.00028325 [mEh]      -0.00017774 [kcal/mol]      -0.00074366 [kJ/mol]

    Dispersion                     -0.03252861 [mEh]      -0.02041201 [kcal/mol]      -0.08540384 [kJ/mol]
      Disp20                       -0.02976794 [mEh]      -0.01867967 [kcal/mol]      -0.07815572 [kJ/mol]
      Disp21                        0.00134320 [mEh]       0.00084287 [kcal/mol]       0.00352658 [kJ/mol]
      Disp22 (SDQ)                  0.00018043 [mEh]       0.00011322 [kcal/mol]       0.00047371 [kJ/mol]
      Disp22 (T)                   -0.00424031 [mEh]      -0.00266083 [kcal/mol]      -0.01113292 [kJ/mol]
      Est. Disp22 (T)              -0.00430450 [mEh]      -0.00270112 [kcal/mol]      -0.01130147 [kJ/mol]
      Exch-Disp20                   0.00002021 [mEh]       0.00001268 [kcal/mol]       0.00005306 [kJ/mol]

  Total HF                         -0.05542451 [mEh]      -0.03477941 [kcal/mol]      -0.14551704 [kJ/mol]
  Total SAPT0                      -0.08517224 [mEh]      -0.05344639 [kcal/mol]      -0.22361970 [kJ/mol]
  Total SAPT2                      -0.08172896 [mEh]      -0.05128569 [kcal/mol]      -0.21457935 [kJ/mol]
  Total SAPT2+                     -0.08450983 [mEh]      -0.05303072 [kcal/mol]      -0.22188053 [kJ/mol]

  Special recipe for scaled SAPT0 (see Manual):
    Electrostatics sSAPT0          -0.04576194 [mEh]      -0.02871605 [kcal/mol]      -0.12014795 [kJ/mol]
    Exchange sSAPT0                 0.00015209 [mEh]       0.00009543 [kcal/mol]       0.00039930 [kJ/mol]
    Induction sSAPT0               -0.00981466 [mEh]      -0.00615879 [kcal/mol]      -0.02576838 [kJ/mol]
    Dispersion sSAPT0              -0.02974773 [mEh]      -0.01866698 [kcal/mol]      -0.07810266 [kJ/mol]
  Total sSAPT0                     -0.08517224 [mEh]      -0.05344639 [kcal/mol]      -0.22361970 [kJ/mol]
  --------------------------------------------------------------------------------------------------------

*** tstop() called on node86.bme.utexas.edu at Thu Apr 23 10:37:59 2020
Module time:
	user time   =      15.22 seconds =       0.25 minutes
	system time =       0.79 seconds =       0.01 minutes
	total time  =          2 seconds =       0.03 minutes
Total time:
	user time   =      42.59 seconds =       0.71 minutes
	system time =       1.73 seconds =       0.03 minutes
	total time  =          8 seconds =       0.13 minutes

    Psi4 stopped on: Thursday, 23 April 2020 10:37AM
    Psi4 wall time for execution: 0:00:08.56

*** Psi4 exiting successfully. Buy a developer a beer!
