
    -----------------------------------------------------------------------
          Psi4: An Open-Source Ab Initio Electronic Structure Package
                               Psi4 1.4a2.dev224 

                         Git: Rev {master} e453b16 


    R. M. Parrish, L. A. Burns, D. G. A. Smith, A. C. Simmonett,
    A. E. DePrince III, E. G. Hohenstein, U. Bozkaya, A. Yu. Sokolov,
    R. Di Remigio, R. M. Richard, J. F. Gonthier, A. M. James,
    H. R. McAlexander, A. Kumar, M. Saitow, X. Wang, B. P. Pritchard,
    P. Verma, H. F. Schaefer III, K. Patkowski, R. A. King, E. F. Valeev,
    F. A. Evangelista, J. M. Turney, T. D. Crawford, and C. D. Sherrill,
    J. Chem. Theory Comput. 13(7) pp 3185--3197 (2017).
    (doi: 10.1021/acs.jctc.7b00174)


                         Additional Contributions by
    P. Kraus, H. Kruse, M. H. Lechner, M. C. Schieber, R. A. Shaw,
    A. Alenaizan, R. Galvelis, Z. L. Glick, S. Lehtola, and J. P. Misiewicz

    -----------------------------------------------------------------------


    Psi4 started on: Friday, 24 April 2020 12:49AM

    Process ID: 43645
    Host:       node99.bme.utexas.edu
    PSIDATADIR: /home/liuchw/anaconda3/envs/psi4env/share/psi4
    Memory:     500.0 MiB
    Threads:    8
    
  ==> Input File <==

--------------------------------------------------------------------------
#Generated by lconvert.py for sapt job

memory 20 GB

molecule  {
0 1
  C       1.952940   -0.000020    0.000020
  H       2.317650   -0.471620    0.907560
  H       2.317720   -0.550420   -0.861990
  H       2.320030    1.020920   -0.045480
  H       0.867410    0.001600   -0.000090
--
0 1
  O      -1.835370    0.000310   -0.000110
  H      -2.430990    0.752180    0.000380
  H      -2.426520   -0.755070    0.000380
units angstrom
no_reorient
symmetry c1
}

set {
scf_type DF
basis aug-cc-pvdz
freeze_core True
guess SAD
}
energy('sapt2+')
--------------------------------------------------------------------------

  Memory set to  18.626 GiB by Python driver.

Scratch directory: /scratch/liuchw/

  //>>>>>>>>>>>>>>>>>>>>>>>>>>>>>>>>>>>//
  //              Dimer HF             //
  //<<<<<<<<<<<<<<<<<<<<<<<<<<<<<<<<<<<//


*** tstart() called on node99.bme.utexas.edu
*** at Fri Apr 24 00:49:59 2020

   => Loading Basis Set <=

    Name: AUG-CC-PVDZ
    Role: ORBITAL
    Keyword: BASIS
    atoms 1        entry C          line   182 file /home/liuchw/anaconda3/envs/psi4env/share/psi4/basis/aug-cc-pvdz.gbs 
    atoms 2-5, 7-8 entry H          line    40 file /home/liuchw/anaconda3/envs/psi4env/share/psi4/basis/aug-cc-pvdz.gbs 
    atoms 6        entry O          line   254 file /home/liuchw/anaconda3/envs/psi4env/share/psi4/basis/aug-cc-pvdz.gbs 


         ---------------------------------------------------------
                                   SCF
               by Justin Turney, Rob Parrish, Andy Simmonett
                          and Daniel G. A. Smith
                              RHF Reference
                        8 Threads,  19073 MiB Core
         ---------------------------------------------------------

  ==> Geometry <==

    Molecular point group: c1
    Full point group: C1

    Geometry (in Angstrom), charge = 0, multiplicity = 1:

       Center              X                  Y                   Z               Mass       
    ------------   -----------------  -----------------  -----------------  -----------------
         C            2.039092826626    -0.000087257338     0.000042134322    12.000000000000
         H            2.403802826626    -0.471687257338     0.907582134322     1.007825032230
         H            2.403872826626    -0.550487257338    -0.861967865678     1.007825032230
         H            2.406182826626     1.020852742662    -0.045457865678     1.007825032230
         H            0.953562826626     0.001532742662    -0.000067865678     1.007825032230
         O           -1.749217173374     0.000242742662    -0.000087865678    15.994914619570
         H           -2.344837173374     0.752112742662     0.000402134322     1.007825032230
         H           -2.340367173374    -0.755137257338     0.000402134322     1.007825032230

  Running in c1 symmetry.

  Rotational constants: A =      3.91513  B =      0.12980  C =      0.12866 [cm^-1]
  Rotational constants: A = 117372.60156  B =   3891.22361  C =   3857.25660 [MHz]
  Nuclear repulsion =   36.293743873879869

  Charge       = 0
  Multiplicity = 1
  Electrons    = 20
  Nalpha       = 10
  Nbeta        = 10

  ==> Algorithm <==

  SCF Algorithm Type is DF.
  DIIS enabled.
  MOM disabled.
  Fractional occupation disabled.
  Guess Type is SAD.
  Energy threshold   = 1.00e-08
  Density threshold  = 1.00e-08
  Integral threshold = 0.00e+00

  ==> Primary Basis <==

  Basis Set: AUG-CC-PVDZ
    Blend: AUG-CC-PVDZ
    Number of shells: 48
    Number of basis function: 100
    Number of Cartesian functions: 104
    Spherical Harmonics?: true
    Max angular momentum: 2

   => Loading Basis Set <=

    Name: (AUG-CC-PVDZ AUX)
    Role: JKFIT
    Keyword: DF_BASIS_SCF
    atoms 1        entry C          line   154 file /home/liuchw/anaconda3/envs/psi4env/share/psi4/basis/aug-cc-pvdz-jkfit.gbs 
    atoms 2-5, 7-8 entry H          line    70 file /home/liuchw/anaconda3/envs/psi4env/share/psi4/basis/aug-cc-pvdz-jkfit.gbs 
    atoms 6        entry O          line   270 file /home/liuchw/anaconda3/envs/psi4env/share/psi4/basis/aug-cc-pvdz-jkfit.gbs 

  ==> Pre-Iterations <==

   -------------------------------------------------------
    Irrep   Nso     Nmo     Nalpha   Nbeta   Ndocc  Nsocc
   -------------------------------------------------------
     A        100     100       0       0       0       0
   -------------------------------------------------------
    Total     100     100      10      10      10       0
   -------------------------------------------------------

  ==> Integral Setup <==

  ==> DiskDFJK: Density-Fitted J/K Matrices <==

    J tasked:                  Yes
    K tasked:                  Yes
    wK tasked:                  No
    OpenMP threads:              8
    Integrals threads:           8
    Memory [MiB]:            14305
    Algorithm:                Core
    Integral Cache:           SAVE
    Schwarz Cutoff:          1E-12
    Fitting Condition:       1E-10

   => Auxiliary Basis Set <=

  Basis Set: (AUG-CC-PVDZ AUX)
    Blend: AUG-CC-PVDZ-JKFIT
    Number of shells: 128
    Number of basis function: 364
    Number of Cartesian functions: 412
    Spherical Harmonics?: true
    Max angular momentum: 3

  Minimum eigenvalue in the overlap matrix is 5.4406563524E-04.
  Using Symmetric Orthogonalization.

  SCF Guess: Superposition of Atomic Densities via on-the-fly atomic UHF.

  ==> Iterations <==

                           Total Energy        Delta E     RMS |[F,P]|

   @DF-RHF iter SAD:  -115.11011925325128   -1.15110e+02   0.00000e+00 
   @DF-RHF iter   1:  -116.08362467179596   -9.73505e-01   5.72803e-03 DIIS
   @DF-RHF iter   2:  -116.19992040679946   -1.16296e-01   3.22715e-03 DIIS
   @DF-RHF iter   3:  -116.23960298936508   -3.96826e-02   4.19891e-04 DIIS
   @DF-RHF iter   4:  -116.24092292451292   -1.31994e-03   1.52806e-04 DIIS
   @DF-RHF iter   5:  -116.24110450577265   -1.81581e-04   2.40320e-05 DIIS
   @DF-RHF iter   6:  -116.24111074398638   -6.23821e-06   4.20153e-06 DIIS
   @DF-RHF iter   7:  -116.24111100543755   -2.61451e-07   1.14816e-06 DIIS
   @DF-RHF iter   8:  -116.24111102574662   -2.03091e-08   2.30816e-07 DIIS
   @DF-RHF iter   9:  -116.24111102654028   -7.93662e-10   2.97408e-08 DIIS
   @DF-RHF iter  10:  -116.24111102655097   -1.06866e-11   7.64536e-09 DIIS
  Energy and wave function converged.


  ==> Post-Iterations <==

    Orbital Energies [Eh]
    ---------------------

    Doubly Occupied:                                                      

       1A    -20.580512     2A    -11.197330     3A     -1.359215  
       4A     -0.929526     5A     -0.719132     6A     -0.592647  
       7A     -0.529763     8A     -0.529733     9A     -0.525756  
      10A     -0.512358  

    Virtual:                                                              

      11A      0.031494    12A      0.050308    13A      0.054831  
      14A      0.069103    15A      0.074688    16A      0.090859  
      17A      0.156735    18A      0.158490    19A      0.164909  
      20A      0.186309    21A      0.203690    22A      0.207443  
      23A      0.230172    24A      0.275827    25A      0.284803  
      26A      0.312849    27A      0.313135    28A      0.322612  
      29A      0.329979    30A      0.366860    31A      0.384477  
      32A      0.395154    33A      0.439626    34A      0.454841  
      35A      0.457116    36A      0.460747    37A      0.461170  
      38A      0.533966    39A      0.545862    40A      0.557795  
      41A      0.571303    42A      0.589492    43A      0.590957  
      44A      0.628812    45A      0.632524    46A      0.647891  
      47A      0.654155    48A      0.686561    49A      0.691720  
      50A      0.700773    51A      0.766273    52A      0.773820  
      53A      0.791625    54A      0.831316    55A      0.949235  
      56A      0.996758    57A      1.008576    58A      1.053733  
      59A      1.136967    60A      1.145331    61A      1.146133  
      62A      1.281556    63A      1.340659    64A      1.365725  
      65A      1.365759    66A      1.407712    67A      1.489584  
      68A      1.530182    69A      1.740653    70A      1.769705  
      71A      1.770357    72A      1.907393    73A      1.927515  
      74A      1.940409    75A      2.006737    76A      2.026488  
      77A      2.048999    78A      2.139581    79A      2.235506  
      80A      2.236012    81A      2.309774    82A      2.315385  
      83A      2.315846    84A      2.386441    85A      2.445164  
      86A      2.494729    87A      2.638541    88A      2.659571  
      89A      2.659950    90A      2.737806    91A      2.874269  
      92A      2.955120    93A      2.965731    94A      2.980072  
      95A      3.036324    96A      3.688951    97A      3.700005  
      98A      3.789518    99A      4.049953   100A      4.330611  

    Final Occupation by Irrep:
              A 
    DOCC [    10 ]

  @DF-RHF Final Energy:  -116.24111102655097

   => Energetics <=

    Nuclear Repulsion Energy =             36.2937438738798690
    One-Electron Energy =                -230.1177660108955934
    Two-Electron Energy =                  77.5829111104647637
    Total Energy =                       -116.2411110265509677

Computation Completed


Properties will be evaluated at   0.000000,   0.000000,   0.000000 [a0]

Properties computed using the SCF density matrix

  Nuclear Dipole Moment: [e a0]
     X:     3.2561      Y:    -0.0026      Z:     0.0008

  Electronic Dipole Moment: [e a0]
     X:    -4.1396      Y:     0.0003      Z:    -0.0002

  Dipole Moment: [e a0]
     X:    -0.8835      Y:    -0.0024      Z:     0.0007     Total:     0.8835

  Dipole Moment: [D]
     X:    -2.2457      Y:    -0.0060      Z:     0.0017     Total:     2.2457


*** tstop() called on node99.bme.utexas.edu at Fri Apr 24 00:50:01 2020
Module time:
	user time   =      11.52 seconds =       0.19 minutes
	system time =       0.78 seconds =       0.01 minutes
	total time  =          2 seconds =       0.03 minutes
Total time:
	user time   =      11.52 seconds =       0.19 minutes
	system time =       0.78 seconds =       0.01 minutes
	total time  =          2 seconds =       0.03 minutes

  //>>>>>>>>>>>>>>>>>>>>>>>>>>>>>>>>>>>//
  //            Monomer A HF           //
  //<<<<<<<<<<<<<<<<<<<<<<<<<<<<<<<<<<<//


*** tstart() called on node99.bme.utexas.edu
*** at Fri Apr 24 00:50:01 2020

   => Loading Basis Set <=

    Name: AUG-CC-PVDZ
    Role: ORBITAL
    Keyword: BASIS
    atoms 1        entry C          line   182 file /home/liuchw/anaconda3/envs/psi4env/share/psi4/basis/aug-cc-pvdz.gbs 
    atoms 2-5, 7-8 entry H          line    40 file /home/liuchw/anaconda3/envs/psi4env/share/psi4/basis/aug-cc-pvdz.gbs 
    atoms 6        entry O          line   254 file /home/liuchw/anaconda3/envs/psi4env/share/psi4/basis/aug-cc-pvdz.gbs 


         ---------------------------------------------------------
                                   SCF
               by Justin Turney, Rob Parrish, Andy Simmonett
                          and Daniel G. A. Smith
                              RHF Reference
                        8 Threads,  19073 MiB Core
         ---------------------------------------------------------

  ==> Geometry <==

    Molecular point group: c1
    Full point group: C1

    Geometry (in Angstrom), charge = 0, multiplicity = 1:

       Center              X                  Y                   Z               Mass       
    ------------   -----------------  -----------------  -----------------  -----------------
         C            2.039092826626    -0.000087257338     0.000042134322    12.000000000000
         H            2.403802826626    -0.471687257338     0.907582134322     1.007825032230
         H            2.403872826626    -0.550487257338    -0.861967865678     1.007825032230
         H            2.406182826626     1.020852742662    -0.045457865678     1.007825032230
         H            0.953562826626     0.001532742662    -0.000067865678     1.007825032230
      Gh(O)          -1.749217173374     0.000242742662    -0.000087865678    15.994914619570
      Gh(H)          -2.344837173374     0.752112742662     0.000402134322     1.007825032230
      Gh(H)          -2.340367173374    -0.755137257338     0.000402134322     1.007825032230

  Running in c1 symmetry.

  Rotational constants: A =      3.91513  B =      0.12980  C =      0.12866 [cm^-1]
  Rotational constants: A = 117372.60156  B =   3891.22361  C =   3857.25660 [MHz]
  Nuclear repulsion =   13.487669099021460

  Charge       = 0
  Multiplicity = 1
  Electrons    = 10
  Nalpha       = 5
  Nbeta        = 5

  ==> Algorithm <==

  SCF Algorithm Type is DF.
  DIIS enabled.
  MOM disabled.
  Fractional occupation disabled.
  Guess Type is SAD.
  Energy threshold   = 1.00e-08
  Density threshold  = 1.00e-08
  Integral threshold = 0.00e+00

  ==> Primary Basis <==

  Basis Set: AUG-CC-PVDZ
    Blend: AUG-CC-PVDZ
    Number of shells: 48
    Number of basis function: 100
    Number of Cartesian functions: 104
    Spherical Harmonics?: true
    Max angular momentum: 2

   => Loading Basis Set <=

    Name: (AUG-CC-PVDZ AUX)
    Role: JKFIT
    Keyword: DF_BASIS_SCF
    atoms 1        entry C          line   154 file /home/liuchw/anaconda3/envs/psi4env/share/psi4/basis/aug-cc-pvdz-jkfit.gbs 
    atoms 2-5, 7-8 entry H          line    70 file /home/liuchw/anaconda3/envs/psi4env/share/psi4/basis/aug-cc-pvdz-jkfit.gbs 
    atoms 6        entry O          line   270 file /home/liuchw/anaconda3/envs/psi4env/share/psi4/basis/aug-cc-pvdz-jkfit.gbs 

  ==> Pre-Iterations <==

   -------------------------------------------------------
    Irrep   Nso     Nmo     Nalpha   Nbeta   Ndocc  Nsocc
   -------------------------------------------------------
     A        100     100       0       0       0       0
   -------------------------------------------------------
    Total     100     100       5       5       5       0
   -------------------------------------------------------

  ==> Integral Setup <==

  ==> DiskDFJK: Density-Fitted J/K Matrices <==

    J tasked:                  Yes
    K tasked:                  Yes
    wK tasked:                  No
    OpenMP threads:              8
    Integrals threads:           8
    Memory [MiB]:            14305
    Algorithm:                Core
    Integral Cache:           LOAD
    Schwarz Cutoff:          1E-12
    Fitting Condition:       1E-10

   => Auxiliary Basis Set <=

  Basis Set: (AUG-CC-PVDZ AUX)
    Blend: AUG-CC-PVDZ-JKFIT
    Number of shells: 128
    Number of basis function: 364
    Number of Cartesian functions: 412
    Spherical Harmonics?: true
    Max angular momentum: 3

  Minimum eigenvalue in the overlap matrix is 5.4406563524E-04.
  Using Symmetric Orthogonalization.

  SCF Guess: Superposition of Atomic Densities via on-the-fly atomic UHF.

  ==> Iterations <==

                           Total Energy        Delta E     RMS |[F,P]|

   @DF-RHF iter SAD:   -39.62904771593500   -3.96290e+01   0.00000e+00 
   @DF-RHF iter   1:   -40.12455950335166   -4.95512e-01   3.56667e-03 DIIS
   @DF-RHF iter   2:   -40.18821263806143   -6.36531e-02   1.41874e-03 DIIS
   @DF-RHF iter   3:   -40.19894628207949   -1.07336e-02   2.28325e-04 DIIS
   @DF-RHF iter   4:   -40.19965078774298   -7.04506e-04   2.68484e-05 DIIS
   @DF-RHF iter   5:   -40.19965960603834   -8.81830e-06   2.12445e-06 DIIS
   @DF-RHF iter   6:   -40.19965967323832   -6.72000e-08   1.99578e-07 DIIS
   @DF-RHF iter   7:   -40.19965967367244   -4.34113e-10   1.41321e-08 DIIS
   @DF-RHF iter   8:   -40.19965967367435   -1.91136e-12   8.09756e-10 DIIS
  Energy and wave function converged.


  ==> Post-Iterations <==

    Orbital Energies [Eh]
    ---------------------

    Doubly Occupied:                                                      

       1A    -11.213766     2A     -0.945090     3A     -0.545611  
       4A     -0.544389     5A     -0.544263  

    Virtual:                                                              

       6A      0.031080     7A      0.048843     8A      0.056066  
       9A      0.063276    10A      0.074165    11A      0.083357  
      12A      0.137821    13A      0.147513    14A      0.150507  
      15A      0.169320    16A      0.176223    17A      0.189532  
      18A      0.208788    19A      0.227551    20A      0.301911  
      21A      0.301965    22A      0.313243    23A      0.318074  
      24A      0.358109    25A      0.402460    26A      0.414475  
      27A      0.423919    28A      0.431136    29A      0.445402  
      30A      0.446851    31A      0.467820    32A      0.473631  
      33A      0.476316    34A      0.523637    35A      0.550306  
      36A      0.553120    37A      0.555927    38A      0.563727  
      39A      0.581148    40A      0.605364    41A      0.613669  
      42A      0.635578    43A      0.660064    44A      0.667656  
      45A      0.688523    46A      0.739189    47A      0.745082  
      48A      0.782982    49A      0.933851    50A      0.934489  
      51A      0.990036    52A      0.998071    53A      1.060919  
      54A      1.116814    55A      1.208122    56A      1.216823  
      57A      1.285817    58A      1.296940    59A      1.328264  
      60A      1.337536    61A      1.358775    62A      1.361084  
      63A      1.389960    64A      1.536046    65A      1.753915  
      66A      1.754643    67A      1.894339    68A      1.915105  
      69A      1.918980    70A      2.021887    71A      2.036708  
      72A      2.220398    73A      2.220562    74A      2.273187  
      75A      2.286184    76A      2.296504    77A      2.336035  
      78A      2.371662    79A      2.373781    80A      2.487337  
      81A      2.584059    82A      2.643963    83A      2.648323  
      84A      2.785587    85A      2.858036    86A      2.941002  
      87A      2.944775    88A      2.982618    89A      3.446453  
      90A      3.947690    91A      4.047290    92A      4.911003  
      93A      4.962433    94A      5.066239    95A      5.127854  
      96A      5.403881    97A      5.600148    98A      6.624206  
      99A      7.052564   100A     33.555499  

    Final Occupation by Irrep:
              A 
    DOCC [     5 ]

  @DF-RHF Final Energy:   -40.19965967367435

   => Energetics <=

    Nuclear Repulsion Energy =             13.4876690990214598
    One-Electron Energy =                 -79.7884188385185666
    Two-Electron Energy =                  26.1010900658227598
    Total Energy =                        -40.1996596736743470

Computation Completed


Properties will be evaluated at   0.000000,   0.000000,   0.000000 [a0]

Properties computed using the SCF density matrix

  Nuclear Dipole Moment: [e a0]
     X:    38.5542      Y:    -0.0006      Z:     0.0006

  Electronic Dipole Moment: [e a0]
     X:   -38.5529      Y:     0.0006      Z:    -0.0006

  Dipole Moment: [e a0]
     X:     0.0013      Y:     0.0000      Z:    -0.0000     Total:     0.0013

  Dipole Moment: [D]
     X:     0.0033      Y:     0.0001      Z:    -0.0000     Total:     0.0033


*** tstop() called on node99.bme.utexas.edu at Fri Apr 24 00:50:03 2020
Module time:
	user time   =       7.36 seconds =       0.12 minutes
	system time =       0.49 seconds =       0.01 minutes
	total time  =          2 seconds =       0.03 minutes
Total time:
	user time   =      18.95 seconds =       0.32 minutes
	system time =       1.28 seconds =       0.02 minutes
	total time  =          4 seconds =       0.07 minutes

  //>>>>>>>>>>>>>>>>>>>>>>>>>>>>>>>>>>>//
  //            Monomer B HF           //
  //<<<<<<<<<<<<<<<<<<<<<<<<<<<<<<<<<<<//


*** tstart() called on node99.bme.utexas.edu
*** at Fri Apr 24 00:50:03 2020

   => Loading Basis Set <=

    Name: AUG-CC-PVDZ
    Role: ORBITAL
    Keyword: BASIS
    atoms 1        entry C          line   182 file /home/liuchw/anaconda3/envs/psi4env/share/psi4/basis/aug-cc-pvdz.gbs 
    atoms 2-5, 7-8 entry H          line    40 file /home/liuchw/anaconda3/envs/psi4env/share/psi4/basis/aug-cc-pvdz.gbs 
    atoms 6        entry O          line   254 file /home/liuchw/anaconda3/envs/psi4env/share/psi4/basis/aug-cc-pvdz.gbs 


         ---------------------------------------------------------
                                   SCF
               by Justin Turney, Rob Parrish, Andy Simmonett
                          and Daniel G. A. Smith
                              RHF Reference
                        8 Threads,  19073 MiB Core
         ---------------------------------------------------------

  ==> Geometry <==

    Molecular point group: c1
    Full point group: C1

    Geometry (in Angstrom), charge = 0, multiplicity = 1:

       Center              X                  Y                   Z               Mass       
    ------------   -----------------  -----------------  -----------------  -----------------
      Gh(C)           2.039092826626    -0.000087257338     0.000042134322    12.000000000000
      Gh(H)           2.403802826626    -0.471687257338     0.907582134322     1.007825032230
      Gh(H)           2.403872826626    -0.550487257338    -0.861967865678     1.007825032230
      Gh(H)           2.406182826626     1.020852742662    -0.045457865678     1.007825032230
      Gh(H)           0.953562826626     0.001532742662    -0.000067865678     1.007825032230
         O           -1.749217173374     0.000242742662    -0.000087865678    15.994914619570
         H           -2.344837173374     0.752112742662     0.000402134322     1.007825032230
         H           -2.340367173374    -0.755137257338     0.000402134322     1.007825032230

  Running in c1 symmetry.

  Rotational constants: A =      3.91513  B =      0.12980  C =      0.12866 [cm^-1]
  Rotational constants: A = 117372.60156  B =   3891.22361  C =   3857.25660 [MHz]
  Nuclear repulsion =    9.178061973849276

  Charge       = 0
  Multiplicity = 1
  Electrons    = 10
  Nalpha       = 5
  Nbeta        = 5

  ==> Algorithm <==

  SCF Algorithm Type is DF.
  DIIS enabled.
  MOM disabled.
  Fractional occupation disabled.
  Guess Type is SAD.
  Energy threshold   = 1.00e-08
  Density threshold  = 1.00e-08
  Integral threshold = 0.00e+00

  ==> Primary Basis <==

  Basis Set: AUG-CC-PVDZ
    Blend: AUG-CC-PVDZ
    Number of shells: 48
    Number of basis function: 100
    Number of Cartesian functions: 104
    Spherical Harmonics?: true
    Max angular momentum: 2

   => Loading Basis Set <=

    Name: (AUG-CC-PVDZ AUX)
    Role: JKFIT
    Keyword: DF_BASIS_SCF
    atoms 1        entry C          line   154 file /home/liuchw/anaconda3/envs/psi4env/share/psi4/basis/aug-cc-pvdz-jkfit.gbs 
    atoms 2-5, 7-8 entry H          line    70 file /home/liuchw/anaconda3/envs/psi4env/share/psi4/basis/aug-cc-pvdz-jkfit.gbs 
    atoms 6        entry O          line   270 file /home/liuchw/anaconda3/envs/psi4env/share/psi4/basis/aug-cc-pvdz-jkfit.gbs 

  ==> Pre-Iterations <==

   -------------------------------------------------------
    Irrep   Nso     Nmo     Nalpha   Nbeta   Ndocc  Nsocc
   -------------------------------------------------------
     A        100     100       0       0       0       0
   -------------------------------------------------------
    Total     100     100       5       5       5       0
   -------------------------------------------------------

  ==> Integral Setup <==

  ==> DiskDFJK: Density-Fitted J/K Matrices <==

    J tasked:                  Yes
    K tasked:                  Yes
    wK tasked:                  No
    OpenMP threads:              8
    Integrals threads:           8
    Memory [MiB]:            14305
    Algorithm:                Core
    Integral Cache:           LOAD
    Schwarz Cutoff:          1E-12
    Fitting Condition:       1E-10

   => Auxiliary Basis Set <=

  Basis Set: (AUG-CC-PVDZ AUX)
    Blend: AUG-CC-PVDZ-JKFIT
    Number of shells: 128
    Number of basis function: 364
    Number of Cartesian functions: 412
    Spherical Harmonics?: true
    Max angular momentum: 3

  Minimum eigenvalue in the overlap matrix is 5.4406563524E-04.
  Using Symmetric Orthogonalization.

  SCF Guess: Superposition of Atomic Densities via on-the-fly atomic UHF.

  ==> Iterations <==

                           Total Energy        Delta E     RMS |[F,P]|

   @DF-RHF iter SAD:   -75.46480343332884   -7.54648e+01   0.00000e+00 
   @DF-RHF iter   1:   -75.95704364072360   -4.92240e-01   4.53289e-03 DIIS
   @DF-RHF iter   2:   -76.01028810396154   -5.32445e-02   2.96146e-03 DIIS
   @DF-RHF iter   3:   -76.04094741627823   -3.06593e-02   2.12331e-04 DIIS
   @DF-RHF iter   4:   -76.04132381686216   -3.76401e-04   4.76550e-05 DIIS
   @DF-RHF iter   5:   -76.04134510027205   -2.12834e-05   1.07639e-05 DIIS
   @DF-RHF iter   6:   -76.04134678398862   -1.68372e-06   2.16656e-06 DIIS
   @DF-RHF iter   7:   -76.04134685624277   -7.22542e-08   3.58477e-07 DIIS
   @DF-RHF iter   8:   -76.04134685806375   -1.82098e-09   5.55045e-08 DIIS
   @DF-RHF iter   9:   -76.04134685810200   -3.82556e-11   1.43760e-08 DIIS
   @DF-RHF iter  10:   -76.04134685810455   -2.54374e-12   1.98893e-09 DIIS
  Energy and wave function converged.


  ==> Post-Iterations <==

    Orbital Energies [Eh]
    ---------------------

    Doubly Occupied:                                                      

       1A    -20.578006     2A     -1.356340     3A     -0.716388  
       4A     -0.587109     5A     -0.509517  

    Virtual:                                                              

       6A      0.029491     7A      0.043949     8A      0.053912  
       9A      0.064924    10A      0.072212    11A      0.086338  
      12A      0.130628    13A      0.148620    14A      0.148687  
      15A      0.168907    16A      0.196560    17A      0.207449  
      18A      0.232957    19A      0.262061    20A      0.292046  
      21A      0.316990    22A      0.318977    23A      0.324656  
      24A      0.341714    25A      0.362302    26A      0.386202  
      27A      0.394497    28A      0.407329    29A      0.448313  
      30A      0.455025    31A      0.470379    32A      0.473811  
      33A      0.517389    34A      0.553626    35A      0.561285  
      36A      0.598022    37A      0.605455    38A      0.627664  
      39A      0.652704    40A      0.655310    41A      0.681920  
      42A      0.687713    43A      0.734464    44A      0.742947  
      45A      0.753725    46A      0.766040    47A      0.804115  
      48A      0.807282    49A      0.807743    50A      0.842908  
      51A      0.881507    52A      0.883531    53A      0.902875  
      54A      0.966162    55A      1.148779    56A      1.151676  
      57A      1.263256    58A      1.330848    59A      1.494680  
      60A      1.543458    61A      1.680169    62A      1.802901  
      63A      1.803243    64A      1.867077    65A      1.969221  
      66A      2.009071    67A      2.013744    68A      2.128183  
      69A      2.226069    70A      2.226454    71A      2.259991  
      72A      2.293580    73A      2.296844    74A      2.335227  
      75A      2.335899    76A      2.398157    77A      2.447382  
      78A      2.498169    79A      2.640828    80A      2.694696  
      81A      2.698178    82A      2.733141    83A      2.753491  
      84A      2.796465    85A      3.006499    86A      3.097891  
      87A      3.100114    88A      3.168056    89A      3.175328  
      90A      3.237246    91A      3.594874    92A      3.692304  
      93A      3.702827    94A      3.801245    95A      4.054881  
      96A      4.333920    97A      5.121546    98A      5.122127  
      99A      5.145469   100A     18.462288  

    Final Occupation by Irrep:
              A 
    DOCC [     5 ]

  @DF-RHF Final Energy:   -76.04134685810455

   => Energetics <=

    Nuclear Repulsion Energy =              9.1780619738492764
    One-Electron Energy =                -122.9440996983505272
    Two-Electron Energy =                  37.7246908663966991
    Total Energy =                        -76.0413468581045464

Computation Completed


Properties will be evaluated at   0.000000,   0.000000,   0.000000 [a0]

Properties computed using the SCF density matrix

  Nuclear Dipole Moment: [e a0]
     X:   -35.2981      Y:    -0.0020      Z:     0.0002

  Electronic Dipole Moment: [e a0]
     X:    34.5045      Y:    -0.0003      Z:     0.0005

  Dipole Moment: [e a0]
     X:    -0.7936      Y:    -0.0023      Z:     0.0007     Total:     0.7936

  Dipole Moment: [D]
     X:    -2.0172      Y:    -0.0059      Z:     0.0017     Total:     2.0172


*** tstop() called on node99.bme.utexas.edu at Fri Apr 24 00:50:04 2020
Module time:
	user time   =       7.40 seconds =       0.12 minutes
	system time =       0.51 seconds =       0.01 minutes
	total time  =          1 seconds =       0.02 minutes
Total time:
	user time   =      26.38 seconds =       0.44 minutes
	system time =       1.79 seconds =       0.03 minutes
	total time  =          5 seconds =       0.08 minutes
  Constructing Basis Sets for SAPT...

   => Loading Basis Set <=

    Name: (AUG-CC-PVDZ AUX)
    Role: RIFIT
    Keyword: DF_BASIS_SAPT
    atoms 1        entry C          line   112 file /home/liuchw/anaconda3/envs/psi4env/share/psi4/basis/aug-cc-pvdz-ri.gbs 
    atoms 2-5, 7-8 entry H          line    30 file /home/liuchw/anaconda3/envs/psi4env/share/psi4/basis/aug-cc-pvdz-ri.gbs 
    atoms 6        entry O          line   204 file /home/liuchw/anaconda3/envs/psi4env/share/psi4/basis/aug-cc-pvdz-ri.gbs 


  //>>>>>>>>>>>>>>>>>>>>>>>>>>>>>>>>>>>//
  //               SAPT2+              //
  //<<<<<<<<<<<<<<<<<<<<<<<<<<<<<<<<<<<//


*** tstart() called on node99.bme.utexas.edu
*** at Fri Apr 24 00:50:04 2020

        SAPT2+  
    Ed Hohenstein
     6 June 2009

      Orbital Information
  --------------------------
    NSO        =       100
    NMO        =       100
    NRI        =       282
    NOCC A     =         5
    NOCC B     =         5
    FOCC A     =         1
    FOCC B     =         1
    NVIR A     =        95
    NVIR B     =        95

    Estimated memory usage: 25.8 MB

    Natural Orbital Cutoff:   1.000E-06
    Disp(T3) Truncation:            Yes
    CCD (vv|vv) Truncation:         Yes
    MBPT T2 Truncation:             Yes

    Monomer A: 44 virtual orbitals dropped
    Monomer B: 58 virtual orbitals dropped

    Elst10,r            =    -0.000921554701 [Eh]
    Exch10 (S^2)        =     0.001164249786 [Eh]
    Exch10              =     0.001165447123 [Eh]
    Ind20,r (A<-B)      =    -0.000339976964 [Eh]
    Ind20,r (B<-A)      =    -0.000052740802 [Eh]
    Ind20,r             =    -0.000392717766 [Eh]
    Exch-Ind20,r (A<-B) =     0.000112269800 [Eh]
    Exch-Ind20,r (B<-A) =     0.000026685166 [Eh]
    Exch-Ind20,r        =     0.000138954966 [Eh]
    Disp20              =    -0.000996599451 [Eh]
    Disp20 (NO)         =    -0.000892310225 [Eh]
    Exch-Disp20         =     0.000094520490 [Eh]
    Elst12,r            =    -0.000035971323 [Eh]
    Exch11              =    -0.000020963461 [Eh]
    Exch12              =     0.000210762320 [Eh]
    Ind22               =    -0.000010417525 [Eh]
    Disp21              =     0.000005652195 [Eh]
    Disp22 (SDQ)        =    -0.000004662752 [Eh]

    (i =   1 of   4)          0 seconds
    (i =   2 of   4)          0 seconds
    (i =   3 of   4)          0 seconds
    (i =   4 of   4)          0 seconds

    Disp220 (T)         =    -0.000048956672 [Eh]

    (i =   1 of   4)          0 seconds
    (i =   2 of   4)          0 seconds
    (i =   3 of   4)          0 seconds
    (i =   4 of   4)          0 seconds

    Disp202 (T)         =    -0.000074150417 [Eh]

    Disp22 (T)          =    -0.000123107089 [Eh]

    Est. Disp220 (T)    =    -0.000054678508 [Eh]
    Est. Disp202 (T)    =    -0.000082816786 [Eh]

    Est. Disp22 (T)     =    -0.000137495295 [Eh]

    SAPT Results 
  --------------------------------------------------------------------------------------------------------
    Electrostatics                 -0.95752602 [mEh]      -0.60085665 [kcal/mol]      -2.51398423 [kJ/mol]
      Elst10,r                     -0.92155470 [mEh]      -0.57828431 [kcal/mol]      -2.41954153 [kJ/mol]
      Elst12,r                     -0.03597132 [mEh]      -0.02257235 [kcal/mol]      -0.09444270 [kJ/mol]

    Exchange                        1.35524598 [mEh]       0.85042969 [kcal/mol]       3.55819784 [kJ/mol]
      Exch10                        1.16544712 [mEh]       0.73132911 [kcal/mol]       3.05988100 [kJ/mol]
      Exch10(S^2)                   1.16424979 [mEh]       0.73057777 [kcal/mol]       3.05673739 [kJ/mol]
      Exch11(S^2)                  -0.02096346 [mEh]      -0.01315477 [kcal/mol]      -0.05503956 [kJ/mol]
      Exch12(S^2)                   0.21076232 [mEh]       0.13225535 [kcal/mol]       0.55335639 [kJ/mol]

    Induction                      -0.35511870 [mEh]      -0.22284035 [kcal/mol]      -0.93236401 [kJ/mol]
      Ind20,r                      -0.39271777 [mEh]      -0.24643412 [kcal/mol]      -1.03108035 [kJ/mol]
      Ind22                        -0.01041752 [mEh]      -0.00653710 [kcal/mol]      -0.02735121 [kJ/mol]
      Exch-Ind20,r                  0.13895497 [mEh]       0.08719556 [kcal/mol]       0.36482621 [kJ/mol]
      Exch-Ind22                    0.00368602 [mEh]       0.00231301 [kcal/mol]       0.00967765 [kJ/mol]
      delta HF,r (2)               -0.09462439 [mEh]      -0.05937770 [kcal/mol]      -0.24843631 [kJ/mol]

    Dispersion                     -1.03858481 [mEh]      -0.65172181 [kcal/mol]      -2.72680405 [kJ/mol]
      Disp20                       -0.99659945 [mEh]      -0.62537560 [kcal/mol]      -2.61657150 [kJ/mol]
      Disp21                        0.00565220 [mEh]       0.00354681 [kcal/mol]       0.01483984 [kJ/mol]
      Disp22 (SDQ)                 -0.00466275 [mEh]      -0.00292592 [kcal/mol]      -0.01224205 [kJ/mol]
      Disp22 (T)                   -0.12310709 [mEh]      -0.07725086 [kcal/mol]      -0.32321762 [kJ/mol]
      Est. Disp22 (T)              -0.13749529 [mEh]      -0.08627960 [kcal/mol]      -0.36099385 [kJ/mol]
      Exch-Disp20                   0.09452049 [mEh]       0.05931250 [kcal/mol]       0.24816351 [kJ/mol]

  Total HF                         -0.10449477 [mEh]      -0.06557146 [kcal/mol]      -0.27435099 [kJ/mol]
  Total SAPT0                      -1.00657373 [mEh]      -0.63163455 [kcal/mol]      -2.64275897 [kJ/mol]
  Total SAPT2                      -0.85947770 [mEh]      -0.53933040 [kcal/mol]      -2.25655839 [kJ/mol]
  Total SAPT2+                     -0.99598355 [mEh]      -0.62498911 [kcal/mol]      -2.61495445 [kJ/mol]

  Special recipe for scaled SAPT0 (see Manual):
    Electrostatics sSAPT0          -0.92155470 [mEh]      -0.57828431 [kcal/mol]      -2.41954153 [kJ/mol]
    Exchange sSAPT0                 1.16544712 [mEh]       0.73132911 [kcal/mol]       3.05988100 [kJ/mol]
    Induction sSAPT0               -0.34795804 [mEh]      -0.21834697 [kcal/mol]      -0.91356371 [kJ/mol]
    Dispersion sSAPT0              -0.90178704 [mEh]      -0.56587991 [kcal/mol]      -2.36764155 [kJ/mol]
  Total sSAPT0                     -1.00585266 [mEh]      -0.63118207 [kcal/mol]      -2.64086579 [kJ/mol]
  --------------------------------------------------------------------------------------------------------

*** tstop() called on node99.bme.utexas.edu at Fri Apr 24 00:50:06 2020
Module time:
	user time   =      15.73 seconds =       0.26 minutes
	system time =       1.40 seconds =       0.02 minutes
	total time  =          2 seconds =       0.03 minutes
Total time:
	user time   =      42.61 seconds =       0.71 minutes
	system time =       3.22 seconds =       0.05 minutes
	total time  =          7 seconds =       0.12 minutes

    Psi4 stopped on: Friday, 24 April 2020 12:50AM
    Psi4 wall time for execution: 0:00:07.09

*** Psi4 exiting successfully. Buy a developer a beer!
