
    -----------------------------------------------------------------------
          Psi4: An Open-Source Ab Initio Electronic Structure Package
                               Psi4 1.4a2.dev224 

                         Git: Rev {master} e453b16 


    R. M. Parrish, L. A. Burns, D. G. A. Smith, A. C. Simmonett,
    A. E. DePrince III, E. G. Hohenstein, U. Bozkaya, A. Yu. Sokolov,
    R. Di Remigio, R. M. Richard, J. F. Gonthier, A. M. James,
    H. R. McAlexander, A. Kumar, M. Saitow, X. Wang, B. P. Pritchard,
    P. Verma, H. F. Schaefer III, K. Patkowski, R. A. King, E. F. Valeev,
    F. A. Evangelista, J. M. Turney, T. D. Crawford, and C. D. Sherrill,
    J. Chem. Theory Comput. 13(7) pp 3185--3197 (2017).
    (doi: 10.1021/acs.jctc.7b00174)


                         Additional Contributions by
    P. Kraus, H. Kruse, M. H. Lechner, M. C. Schieber, R. A. Shaw,
    A. Alenaizan, R. Galvelis, Z. L. Glick, S. Lehtola, and J. P. Misiewicz

    -----------------------------------------------------------------------


    Psi4 started on: Thursday, 23 April 2020 05:15PM

    Process ID: 9490
    Host:       genome.bme.utexas.edu
    PSIDATADIR: /home/liuchw/anaconda3/envs/psi4env/share/psi4
    Memory:     500.0 MiB
    Threads:    8
    
  ==> Input File <==

--------------------------------------------------------------------------
#Generated by lconvert.py for sapt job

memory 20 GB

molecule  {
0 1
  C       1.291260   -0.666910   -0.014690
  H       1.586310   -1.228550    0.860100
  H       1.000950   -1.228630   -0.891020
  C       1.291170    0.666930   -0.014690
  H       1.000800    1.228600   -0.891030
  H       1.586160    1.228620    0.860080
--
0 1
  O      -4.566180    0.000030    0.051290
  H      -3.626100    0.000120    0.254660
  H      -4.984230    0.000020    0.914090
units angstrom
no_reorient
symmetry c1
}

set {
scf_type DF
basis aug-cc-pvdz
freeze_core True
guess SAD
}
energy('sapt2+')
--------------------------------------------------------------------------

  Memory set to  18.626 GiB by Python driver.

Scratch directory: /scratch/liuchw/

  //>>>>>>>>>>>>>>>>>>>>>>>>>>>>>>>>>>>//
  //              Dimer HF             //
  //<<<<<<<<<<<<<<<<<<<<<<<<<<<<<<<<<<<//


*** tstart() called on genome.bme.utexas.edu
*** at Thu Apr 23 17:15:51 2020

   => Loading Basis Set <=

    Name: AUG-CC-PVDZ
    Role: ORBITAL
    Keyword: BASIS
    atoms 1, 4          entry C          line   182 file /home/liuchw/anaconda3/envs/psi4env/share/psi4/basis/aug-cc-pvdz.gbs 
    atoms 2-3, 5-6, 8-9 entry H          line    40 file /home/liuchw/anaconda3/envs/psi4env/share/psi4/basis/aug-cc-pvdz.gbs 
    atoms 7             entry O          line   254 file /home/liuchw/anaconda3/envs/psi4env/share/psi4/basis/aug-cc-pvdz.gbs 


         ---------------------------------------------------------
                                   SCF
               by Justin Turney, Rob Parrish, Andy Simmonett
                          and Daniel G. A. Smith
                              RHF Reference
                        8 Threads,  19073 MiB Core
         ---------------------------------------------------------

  ==> Geometry <==

    Molecular point group: c1
    Full point group: C1

    Geometry (in Angstrom), charge = 0, multiplicity = 1:

       Center              X                  Y                   Z               Mass       
    ------------   -----------------  -----------------  -----------------  -----------------
         C            2.279697307958    -0.666929574706    -0.049079583240    12.000000000000
         H            2.574747307958    -1.228569574706     0.825710416760     1.007825032230
         H            1.989387307958    -1.228649574706    -0.925409583240     1.007825032230
         C            2.279607307958     0.666910425294    -0.049079583240    12.000000000000
         H            1.989237307958     1.228580425294    -0.925419583240     1.007825032230
         H            2.574597307958     1.228600425294     0.825690416760     1.007825032230
         O           -3.577742692042     0.000010425294     0.016900416760    15.994914619570
         H           -2.637662692042     0.000100425294     0.220270416760     1.007825032230
         H           -3.995792692042     0.000000425294     0.879700416760     1.007825032230

  Running in c1 symmetry.

  Rotational constants: A =      0.81789  B =      0.04461  C =      0.04314 [cm^-1]
  Rotational constants: A =  24519.68681  B =   1337.35211  C =   1293.17833 [MHz]
  Nuclear repulsion =   57.004141319302093

  Charge       = 0
  Multiplicity = 1
  Electrons    = 26
  Nalpha       = 13
  Nbeta        = 13

  ==> Algorithm <==

  SCF Algorithm Type is DF.
  DIIS enabled.
  MOM disabled.
  Fractional occupation disabled.
  Guess Type is SAD.
  Energy threshold   = 1.00e-08
  Density threshold  = 1.00e-08
  Integral threshold = 0.00e+00

  ==> Primary Basis <==

  Basis Set: AUG-CC-PVDZ
    Blend: AUG-CC-PVDZ
    Number of shells: 57
    Number of basis function: 123
    Number of Cartesian functions: 129
    Spherical Harmonics?: true
    Max angular momentum: 2

   => Loading Basis Set <=

    Name: (AUG-CC-PVDZ AUX)
    Role: JKFIT
    Keyword: DF_BASIS_SCF
    atoms 1, 4          entry C          line   154 file /home/liuchw/anaconda3/envs/psi4env/share/psi4/basis/aug-cc-pvdz-jkfit.gbs 
    atoms 2-3, 5-6, 8-9 entry H          line    70 file /home/liuchw/anaconda3/envs/psi4env/share/psi4/basis/aug-cc-pvdz-jkfit.gbs 
    atoms 7             entry O          line   270 file /home/liuchw/anaconda3/envs/psi4env/share/psi4/basis/aug-cc-pvdz-jkfit.gbs 

  ==> Pre-Iterations <==

   -------------------------------------------------------
    Irrep   Nso     Nmo     Nalpha   Nbeta   Ndocc  Nsocc
   -------------------------------------------------------
     A        123     123       0       0       0       0
   -------------------------------------------------------
    Total     123     123      13      13      13       0
   -------------------------------------------------------

  ==> Integral Setup <==

  ==> DiskDFJK: Density-Fitted J/K Matrices <==

    J tasked:                  Yes
    K tasked:                  Yes
    wK tasked:                  No
    OpenMP threads:              8
    Integrals threads:           8
    Memory [MiB]:            14305
    Algorithm:                Core
    Integral Cache:           SAVE
    Schwarz Cutoff:          1E-12
    Fitting Condition:       1E-10

   => Auxiliary Basis Set <=

  Basis Set: (AUG-CC-PVDZ AUX)
    Blend: AUG-CC-PVDZ-JKFIT
    Number of shells: 156
    Number of basis function: 450
    Number of Cartesian functions: 513
    Spherical Harmonics?: true
    Max angular momentum: 3

  Minimum eigenvalue in the overlap matrix is 1.0709665918E-04.
  Using Symmetric Orthogonalization.

  SCF Guess: Superposition of Atomic Densities via on-the-fly atomic UHF.

  ==> Iterations <==

                           Total Energy        Delta E     RMS |[F,P]|

   @DF-RHF iter SAD:  -152.72219157018210   -1.52722e+02   0.00000e+00 
   @DF-RHF iter   1:  -153.92403594188210   -1.20184e+00   4.64034e-03 DIIS
   @DF-RHF iter   2:  -154.04303634776500   -1.19000e-01   2.65178e-03 DIIS
   @DF-RHF iter   3:  -154.08383580662391   -4.07995e-02   3.26119e-04 DIIS
   @DF-RHF iter   4:  -154.08496724950214   -1.13144e-03   1.15491e-04 DIIS
   @DF-RHF iter   5:  -154.08510007463300   -1.32825e-04   1.72390e-05 DIIS
   @DF-RHF iter   6:  -154.08510494444943   -4.86982e-06   3.80784e-06 DIIS
   @DF-RHF iter   7:  -154.08510526550160   -3.21052e-07   1.00413e-06 DIIS
   @DF-RHF iter   8:  -154.08510528913794   -2.36363e-08   1.69151e-07 DIIS
   @DF-RHF iter   9:  -154.08510528976694   -6.29001e-10   2.43129e-08 DIIS
   @DF-RHF iter  10:  -154.08510528977828   -1.13403e-11   6.27312e-09 DIIS
  Energy and wave function converged.


  ==> Post-Iterations <==

    Orbital Energies [Eh]
    ---------------------

    Doubly Occupied:                                                      

       1A    -20.575992     2A    -11.242963     3A    -11.241297  
       4A     -1.353556     5A     -1.040401     6A     -0.798200  
       7A     -0.713751     8A     -0.648629     9A     -0.590912  
      10A     -0.584725    11A     -0.511909    12A     -0.507343  
      13A     -0.380419  

    Virtual:                                                              

      14A      0.032076    15A      0.046761    16A      0.048656  
      17A      0.050368    18A      0.069862    19A      0.077363  
      20A      0.097582    21A      0.124725    22A      0.144926  
      23A      0.145111    24A      0.163811    25A      0.174044  
      26A      0.185524    27A      0.190996    28A      0.204123  
      29A      0.217381    30A      0.222826    31A      0.227358  
      32A      0.248897    33A      0.258045    34A      0.295560  
      35A      0.298375    36A      0.321632    37A      0.322402  
      38A      0.371638    39A      0.393158    40A      0.403475  
      41A      0.403638    42A      0.408974    43A      0.413150  
      44A      0.436184    45A      0.453605    46A      0.454049  
      47A      0.473644    48A      0.536954    49A      0.538051  
      50A      0.551741    51A      0.552225    52A      0.554630  
      53A      0.598663    54A      0.604946    55A      0.612928  
      56A      0.616261    57A      0.628710    58A      0.642397  
      59A      0.654006    60A      0.658108    61A      0.694183  
      62A      0.712545    63A      0.725670    64A      0.726998  
      65A      0.797676    66A      0.821430    67A      0.843704  
      68A      0.886913    69A      0.887021    70A      0.945963  
      71A      1.000020    72A      1.084025    73A      1.105203  
      74A      1.131049    75A      1.159729    76A      1.184538  
      77A      1.232396    78A      1.283379    79A      1.306045  
      80A      1.446853    81A      1.450026    82A      1.468234  
      83A      1.489658    84A      1.512987    85A      1.523268  
      86A      1.598944    87A      1.625142    88A      1.711655  
      89A      1.766068    90A      1.788032    91A      1.848721  
      92A      1.881578    93A      1.954844    94A      2.010978  
      95A      2.011094    96A      2.016955    97A      2.058706  
      98A      2.101872    99A      2.112907   100A      2.117040  
     101A      2.124469   102A      2.144033   103A      2.174045  
     104A      2.361356   105A      2.383524   106A      2.443916  
     107A      2.471085   108A      2.491268   109A      2.626437  
     110A      2.647883   111A      2.678617   112A      2.719378  
     113A      2.794594   114A      2.819032   115A      2.902911  
     116A      2.985957   117A      3.429266   118A      3.492217  
     119A      3.676750   120A      3.699675   121A      3.710242  
     122A      4.022795   123A      4.308107  

    Final Occupation by Irrep:
              A 
    DOCC [    13 ]

  @DF-RHF Final Energy:  -154.08510528977828

   => Energetics <=

    Nuclear Repulsion Energy =             57.0041413193020929
    One-Electron Energy =                -321.7982998141743565
    Two-Electron Energy =                 110.7090532050939657
    Total Energy =                       -154.0851052897782836

Computation Completed


Properties will be evaluated at   0.000000,   0.000000,   0.000000 [a0]

Properties computed using the SCF density matrix

  Nuclear Dipole Moment: [e a0]
     X:     2.3213      Y:     0.0001      Z:     0.8443

  Electronic Dipole Moment: [e a0]
     X:    -1.9460      Y:    -0.0000      Z:    -0.1432

  Dipole Moment: [e a0]
     X:     0.3753      Y:     0.0001      Z:     0.7011     Total:     0.7952

  Dipole Moment: [D]
     X:     0.9539      Y:     0.0001      Z:     1.7821     Total:     2.0213


*** tstop() called on genome.bme.utexas.edu at Thu Apr 23 17:15:55 2020
Module time:
	user time   =      18.74 seconds =       0.31 minutes
	system time =       0.74 seconds =       0.01 minutes
	total time  =          4 seconds =       0.07 minutes
Total time:
	user time   =      18.74 seconds =       0.31 minutes
	system time =       0.74 seconds =       0.01 minutes
	total time  =          4 seconds =       0.07 minutes

  //>>>>>>>>>>>>>>>>>>>>>>>>>>>>>>>>>>>//
  //            Monomer A HF           //
  //<<<<<<<<<<<<<<<<<<<<<<<<<<<<<<<<<<<//


*** tstart() called on genome.bme.utexas.edu
*** at Thu Apr 23 17:15:55 2020

   => Loading Basis Set <=

    Name: AUG-CC-PVDZ
    Role: ORBITAL
    Keyword: BASIS
    atoms 1, 4          entry C          line   182 file /home/liuchw/anaconda3/envs/psi4env/share/psi4/basis/aug-cc-pvdz.gbs 
    atoms 2-3, 5-6, 8-9 entry H          line    40 file /home/liuchw/anaconda3/envs/psi4env/share/psi4/basis/aug-cc-pvdz.gbs 
    atoms 7             entry O          line   254 file /home/liuchw/anaconda3/envs/psi4env/share/psi4/basis/aug-cc-pvdz.gbs 


         ---------------------------------------------------------
                                   SCF
               by Justin Turney, Rob Parrish, Andy Simmonett
                          and Daniel G. A. Smith
                              RHF Reference
                        8 Threads,  19073 MiB Core
         ---------------------------------------------------------

  ==> Geometry <==

    Molecular point group: c1
    Full point group: C1

    Geometry (in Angstrom), charge = 0, multiplicity = 1:

       Center              X                  Y                   Z               Mass       
    ------------   -----------------  -----------------  -----------------  -----------------
         C            2.279697307958    -0.666929574706    -0.049079583240    12.000000000000
         H            2.574747307958    -1.228569574706     0.825710416760     1.007825032230
         H            1.989387307958    -1.228649574706    -0.925409583240     1.007825032230
         C            2.279607307958     0.666910425294    -0.049079583240    12.000000000000
         H            1.989237307958     1.228580425294    -0.925419583240     1.007825032230
         H            2.574597307958     1.228600425294     0.825690416760     1.007825032230
      Gh(O)          -3.577742692042     0.000010425294     0.016900416760    15.994914619570
      Gh(H)          -2.637662692042     0.000100425294     0.220270416760     1.007825032230
      Gh(H)          -3.995792692042     0.000000425294     0.879700416760     1.007825032230

  Running in c1 symmetry.

  Rotational constants: A =      0.81789  B =      0.04461  C =      0.04314 [cm^-1]
  Rotational constants: A =  24519.68681  B =   1337.35211  C =   1293.17833 [MHz]
  Nuclear repulsion =   33.407005562531893

  Charge       = 0
  Multiplicity = 1
  Electrons    = 16
  Nalpha       = 8
  Nbeta        = 8

  ==> Algorithm <==

  SCF Algorithm Type is DF.
  DIIS enabled.
  MOM disabled.
  Fractional occupation disabled.
  Guess Type is SAD.
  Energy threshold   = 1.00e-08
  Density threshold  = 1.00e-08
  Integral threshold = 0.00e+00

  ==> Primary Basis <==

  Basis Set: AUG-CC-PVDZ
    Blend: AUG-CC-PVDZ
    Number of shells: 57
    Number of basis function: 123
    Number of Cartesian functions: 129
    Spherical Harmonics?: true
    Max angular momentum: 2

   => Loading Basis Set <=

    Name: (AUG-CC-PVDZ AUX)
    Role: JKFIT
    Keyword: DF_BASIS_SCF
    atoms 1, 4          entry C          line   154 file /home/liuchw/anaconda3/envs/psi4env/share/psi4/basis/aug-cc-pvdz-jkfit.gbs 
    atoms 2-3, 5-6, 8-9 entry H          line    70 file /home/liuchw/anaconda3/envs/psi4env/share/psi4/basis/aug-cc-pvdz-jkfit.gbs 
    atoms 7             entry O          line   270 file /home/liuchw/anaconda3/envs/psi4env/share/psi4/basis/aug-cc-pvdz-jkfit.gbs 

  ==> Pre-Iterations <==

   -------------------------------------------------------
    Irrep   Nso     Nmo     Nalpha   Nbeta   Ndocc  Nsocc
   -------------------------------------------------------
     A        123     123       0       0       0       0
   -------------------------------------------------------
    Total     123     123       8       8       8       0
   -------------------------------------------------------

  ==> Integral Setup <==

  ==> DiskDFJK: Density-Fitted J/K Matrices <==

    J tasked:                  Yes
    K tasked:                  Yes
    wK tasked:                  No
    OpenMP threads:              8
    Integrals threads:           8
    Memory [MiB]:            14305
    Algorithm:                Core
    Integral Cache:           LOAD
    Schwarz Cutoff:          1E-12
    Fitting Condition:       1E-10

   => Auxiliary Basis Set <=

  Basis Set: (AUG-CC-PVDZ AUX)
    Blend: AUG-CC-PVDZ-JKFIT
    Number of shells: 156
    Number of basis function: 450
    Number of Cartesian functions: 513
    Spherical Harmonics?: true
    Max angular momentum: 3

  Minimum eigenvalue in the overlap matrix is 1.0709665918E-04.
  Using Symmetric Orthogonalization.

  SCF Guess: Superposition of Atomic Densities via on-the-fly atomic UHF.

  ==> Iterations <==

                           Total Energy        Delta E     RMS |[F,P]|

   @DF-RHF iter SAD:   -77.25788391613051   -7.72579e+01   0.00000e+00 
   @DF-RHF iter   1:   -77.96638388055128   -7.08500e-01   2.83038e-03 DIIS
   @DF-RHF iter   2:   -78.03238925237301   -6.60054e-02   1.12080e-03 DIIS
   @DF-RHF iter   3:   -78.04297135169408   -1.05821e-02   1.78682e-04 DIIS
   @DF-RHF iter   4:   -78.04350050954881   -5.29158e-04   1.67110e-05 DIIS
   @DF-RHF iter   5:   -78.04350567903884   -5.16949e-06   1.83325e-06 DIIS
   @DF-RHF iter   6:   -78.04350574930230   -7.02635e-08   2.27494e-07 DIIS
   @DF-RHF iter   7:   -78.04350575025724   -9.54941e-10   3.46543e-08 DIIS
   @DF-RHF iter   8:   -78.04350575028079   -2.35474e-11   4.88872e-09 DIIS
  Energy and wave function converged.


  ==> Post-Iterations <==

    Orbital Energies [Eh]
    ---------------------

    Doubly Occupied:                                                      

       1A    -11.239117     2A    -11.237451     3A     -1.036483  
       4A     -0.794450     5A     -0.644853     6A     -0.587140  
       7A     -0.508228     8A     -0.376303  

    Virtual:                                                              

       9A      0.032635    10A      0.047328    11A      0.050265  
      12A      0.051419    13A      0.070759    14A      0.078776  
      15A      0.100834    16A      0.126228    17A      0.134937  
      18A      0.145338    19A      0.156019    20A      0.159883  
      21A      0.175779    22A      0.177804    23A      0.183452  
      24A      0.206254    25A      0.213349    26A      0.220773  
      27A      0.223792    28A      0.265220    29A      0.297016  
      30A      0.327764    31A      0.328207    32A      0.371388  
      33A      0.402225    34A      0.403768    35A      0.410233  
      36A      0.411730    37A      0.427421    38A      0.441512  
      39A      0.445242    40A      0.457792    41A      0.462361  
      42A      0.470606    43A      0.491439    44A      0.540943  
      45A      0.544506    46A      0.555281    47A      0.557420  
      48A      0.577027    49A      0.601957    50A      0.605072  
      51A      0.614351    52A      0.620068    53A      0.632403  
      54A      0.636508    55A      0.655240    56A      0.670359  
      57A      0.697181    58A      0.729191    59A      0.730131  
      60A      0.801082    61A      0.847472    62A      0.863913  
      63A      0.888533    64A      0.893414    65A      0.902492  
      66A      1.003824    67A      1.088827    68A      1.110805  
      69A      1.174910    70A      1.187646    71A      1.234019  
      72A      1.260186    73A      1.286740    74A      1.288688  
      75A      1.318600    76A      1.349840    77A      1.393260  
      78A      1.451770    79A      1.454536    80A      1.517143  
      81A      1.528264    82A      1.627142    83A      1.716425  
      84A      1.769598    85A      1.791988    86A      1.852480  
      87A      1.885134    88A      1.958531    89A      2.019982  
      90A      2.021167    91A      2.062482    92A      2.105842  
      93A      2.120435    94A      2.127812    95A      2.147778  
      96A      2.177762    97A      2.264974    98A      2.376170  
      99A      2.387361   100A      2.447687   101A      2.464932  
     102A      2.474782   103A      2.559502   104A      2.636952  
     105A      2.682219   106A      2.705157   107A      2.798292  
     108A      2.822564   109A      2.906355   110A      3.382344  
     111A      3.433010   112A      3.495929   113A      3.917639  
     114A      4.023250   115A      4.893991   116A      4.932016  
     117A      4.970269   118A      5.088766   119A      5.397629  
     120A      5.597720   121A      6.594409   122A      7.049232  
     123A     33.552262  

    Final Occupation by Irrep:
              A 
    DOCC [     8 ]

  @DF-RHF Final Energy:   -78.04350575028079

   => Energetics <=

    Nuclear Repulsion Energy =             33.4070055625318929
    One-Electron Energy =                -170.0529719961724311
    Two-Electron Energy =                  58.6024606833597304
    Total Energy =                        -78.0435057502807865

Computation Completed


Properties will be evaluated at   0.000000,   0.000000,   0.000000 [a0]

Properties computed using the SCF density matrix

  Nuclear Dipole Moment: [e a0]
     X:    68.9444      Y:    -0.0003      Z:    -1.4898

  Electronic Dipole Moment: [e a0]
     X:   -68.9420      Y:     0.0003      Z:     1.4889

  Dipole Moment: [e a0]
     X:     0.0023      Y:     0.0000      Z:    -0.0009     Total:     0.0025

  Dipole Moment: [D]
     X:     0.0059      Y:     0.0000      Z:    -0.0023     Total:     0.0064


*** tstop() called on genome.bme.utexas.edu at Thu Apr 23 17:15:57 2020
Module time:
	user time   =      10.65 seconds =       0.18 minutes
	system time =       0.47 seconds =       0.01 minutes
	total time  =          2 seconds =       0.03 minutes
Total time:
	user time   =      29.47 seconds =       0.49 minutes
	system time =       1.22 seconds =       0.02 minutes
	total time  =          6 seconds =       0.10 minutes

  //>>>>>>>>>>>>>>>>>>>>>>>>>>>>>>>>>>>//
  //            Monomer B HF           //
  //<<<<<<<<<<<<<<<<<<<<<<<<<<<<<<<<<<<//


*** tstart() called on genome.bme.utexas.edu
*** at Thu Apr 23 17:15:57 2020

   => Loading Basis Set <=

    Name: AUG-CC-PVDZ
    Role: ORBITAL
    Keyword: BASIS
    atoms 1, 4          entry C          line   182 file /home/liuchw/anaconda3/envs/psi4env/share/psi4/basis/aug-cc-pvdz.gbs 
    atoms 2-3, 5-6, 8-9 entry H          line    40 file /home/liuchw/anaconda3/envs/psi4env/share/psi4/basis/aug-cc-pvdz.gbs 
    atoms 7             entry O          line   254 file /home/liuchw/anaconda3/envs/psi4env/share/psi4/basis/aug-cc-pvdz.gbs 


         ---------------------------------------------------------
                                   SCF
               by Justin Turney, Rob Parrish, Andy Simmonett
                          and Daniel G. A. Smith
                              RHF Reference
                        8 Threads,  19073 MiB Core
         ---------------------------------------------------------

  ==> Geometry <==

    Molecular point group: c1
    Full point group: C1

    Geometry (in Angstrom), charge = 0, multiplicity = 1:

       Center              X                  Y                   Z               Mass       
    ------------   -----------------  -----------------  -----------------  -----------------
      Gh(C)           2.279697307958    -0.666929574706    -0.049079583240    12.000000000000
      Gh(H)           2.574747307958    -1.228569574706     0.825710416760     1.007825032230
      Gh(H)           1.989387307958    -1.228649574706    -0.925409583240     1.007825032230
      Gh(C)           2.279607307958     0.666910425294    -0.049079583240    12.000000000000
      Gh(H)           1.989237307958     1.228580425294    -0.925419583240     1.007825032230
      Gh(H)           2.574597307958     1.228600425294     0.825690416760     1.007825032230
         O           -3.577742692042     0.000010425294     0.016900416760    15.994914619570
         H           -2.637662692042     0.000100425294     0.220270416760     1.007825032230
         H           -3.995792692042     0.000000425294     0.879700416760     1.007825032230

  Running in c1 symmetry.

  Rotational constants: A =      0.81789  B =      0.04461  C =      0.04314 [cm^-1]
  Rotational constants: A =  24519.68681  B =   1337.35211  C =   1293.17833 [MHz]
  Nuclear repulsion =    9.167530081313878

  Charge       = 0
  Multiplicity = 1
  Electrons    = 10
  Nalpha       = 5
  Nbeta        = 5

  ==> Algorithm <==

  SCF Algorithm Type is DF.
  DIIS enabled.
  MOM disabled.
  Fractional occupation disabled.
  Guess Type is SAD.
  Energy threshold   = 1.00e-08
  Density threshold  = 1.00e-08
  Integral threshold = 0.00e+00

  ==> Primary Basis <==

  Basis Set: AUG-CC-PVDZ
    Blend: AUG-CC-PVDZ
    Number of shells: 57
    Number of basis function: 123
    Number of Cartesian functions: 129
    Spherical Harmonics?: true
    Max angular momentum: 2

   => Loading Basis Set <=

    Name: (AUG-CC-PVDZ AUX)
    Role: JKFIT
    Keyword: DF_BASIS_SCF
    atoms 1, 4          entry C          line   154 file /home/liuchw/anaconda3/envs/psi4env/share/psi4/basis/aug-cc-pvdz-jkfit.gbs 
    atoms 2-3, 5-6, 8-9 entry H          line    70 file /home/liuchw/anaconda3/envs/psi4env/share/psi4/basis/aug-cc-pvdz-jkfit.gbs 
    atoms 7             entry O          line   270 file /home/liuchw/anaconda3/envs/psi4env/share/psi4/basis/aug-cc-pvdz-jkfit.gbs 

  ==> Pre-Iterations <==

   -------------------------------------------------------
    Irrep   Nso     Nmo     Nalpha   Nbeta   Ndocc  Nsocc
   -------------------------------------------------------
     A        123     123       0       0       0       0
   -------------------------------------------------------
    Total     123     123       5       5       5       0
   -------------------------------------------------------

  ==> Integral Setup <==

  ==> DiskDFJK: Density-Fitted J/K Matrices <==

    J tasked:                  Yes
    K tasked:                  Yes
    wK tasked:                  No
    OpenMP threads:              8
    Integrals threads:           8
    Memory [MiB]:            14305
    Algorithm:                Core
    Integral Cache:           LOAD
    Schwarz Cutoff:          1E-12
    Fitting Condition:       1E-10

   => Auxiliary Basis Set <=

  Basis Set: (AUG-CC-PVDZ AUX)
    Blend: AUG-CC-PVDZ-JKFIT
    Number of shells: 156
    Number of basis function: 450
    Number of Cartesian functions: 513
    Spherical Harmonics?: true
    Max angular momentum: 3

  Minimum eigenvalue in the overlap matrix is 1.0709665918E-04.
  Using Symmetric Orthogonalization.

  SCF Guess: Superposition of Atomic Densities via on-the-fly atomic UHF.

  ==> Iterations <==

                           Total Energy        Delta E     RMS |[F,P]|

   @DF-RHF iter SAD:   -75.46344936148695   -7.54634e+01   0.00000e+00 
   @DF-RHF iter   1:   -75.95684184855031   -4.93392e-01   3.68355e-03 DIIS
   @DF-RHF iter   2:   -76.01003794241714   -5.31961e-02   2.40886e-03 DIIS
   @DF-RHF iter   3:   -76.04076234283512   -3.07244e-02   1.72825e-04 DIIS
   @DF-RHF iter   4:   -76.04114031934029   -3.77977e-04   3.88654e-05 DIIS
   @DF-RHF iter   5:   -76.04116178946369   -2.14701e-05   8.79584e-06 DIIS
   @DF-RHF iter   6:   -76.04116349342721   -1.70396e-06   1.76694e-06 DIIS
   @DF-RHF iter   7:   -76.04116356597844   -7.25512e-08   2.91913e-07 DIIS
   @DF-RHF iter   8:   -76.04116356780705   -1.82861e-09   4.50576e-08 DIIS
   @DF-RHF iter   9:   -76.04116356784516   -3.81135e-11   1.17565e-08 DIIS
   @DF-RHF iter  10:   -76.04116356784775   -2.58638e-12   1.62041e-09 DIIS
  Energy and wave function converged.


  ==> Post-Iterations <==

    Orbital Energies [Eh]
    ---------------------

    Doubly Occupied:                                                      

       1A    -20.578170     2A     -1.355707     3A     -0.715927  
       4A     -0.586777     5A     -0.509441  

    Virtual:                                                              

       6A      0.021072     7A      0.041374     8A      0.046248  
       9A      0.048154    10A      0.068772    11A      0.070132  
      12A      0.108654    13A      0.119457    14A      0.123121  
      15A      0.130686    16A      0.134538    17A      0.149837  
      18A      0.174795    19A      0.192235    20A      0.194594  
      21A      0.208047    22A      0.226645    23A      0.239895  
      24A      0.263567    25A      0.302908    26A      0.333110  
      27A      0.340911    28A      0.355086    29A      0.360435  
      30A      0.383584    31A      0.396049    32A      0.402080  
      33A      0.406692    34A      0.422146    35A      0.424797  
      36A      0.429495    37A      0.433798    38A      0.436235  
      39A      0.436331    40A      0.466497    41A      0.530260  
      42A      0.542577    43A      0.544239    44A      0.563891  
      45A      0.570653    46A      0.627503    47A      0.628102  
      48A      0.648435    49A      0.665811    50A      0.680943  
      51A      0.701979    52A      0.715848    53A      0.733958  
      54A      0.765636    55A      0.815759    56A      0.817870  
      57A      0.819375    58A      0.824593    59A      0.865609  
      60A      0.906134    61A      0.922988    62A      0.924630  
      63A      0.931281    64A      0.947692    65A      0.964341  
      66A      1.099957    67A      1.103809    68A      1.131003  
      69A      1.160523    70A      1.171316    71A      1.303984  
      72A      1.466359    73A      1.490461    74A      1.597356  
      75A      1.959866    76A      1.995992    77A      2.008587  
      78A      2.009137    79A      2.038143    80A      2.071484  
      81A      2.110284    82A      2.116586    83A      2.172272  
      84A      2.194298    85A      2.229206    86A      2.257125  
      87A      2.259716    88A      2.306987    89A      2.320709  
      90A      2.359224    91A      2.400058    92A      2.410493  
      93A      2.469025    94A      2.491557    95A      2.500859  
      96A      2.574152    97A      2.590933    98A      2.635007  
      99A      2.705308   100A      2.729539   101A      2.758795  
     102A      2.801098   103A      2.806295   104A      2.914885  
     105A      2.980861   106A      2.986124   107A      3.153282  
     108A      3.261596   109A      3.427661   110A      3.466824  
     111A      3.674656   112A      3.697697   113A      3.708141  
     114A      3.949877   115A      4.004027   116A      4.020704  
     117A      4.228605   118A      4.305977   119A      5.215535  
     120A      5.267308   121A      5.638519   122A     18.134418  
     123A     18.896991  

    Final Occupation by Irrep:
              A 
    DOCC [     5 ]

  @DF-RHF Final Energy:   -76.04116356784775

   => Energetics <=

    Nuclear Repulsion Energy =              9.1675300813138776
    One-Electron Energy =                -122.9253433228848706
    Two-Electron Energy =                  37.7166496737232393
    Total Energy =                        -76.0411635678477609

Computation Completed


Properties will be evaluated at   0.000000,   0.000000,   0.000000 [a0]

Properties computed using the SCF density matrix

  Nuclear Dipole Moment: [e a0]
     X:   -66.6230      Y:     0.0003      Z:     2.3341

  Electronic Dipole Moment: [e a0]
     X:    66.9714      Y:    -0.0003      Z:    -1.6217

  Dipole Moment: [e a0]
     X:     0.3483      Y:     0.0001      Z:     0.7125     Total:     0.7931

  Dipole Moment: [D]
     X:     0.8853      Y:     0.0001      Z:     1.8109     Total:     2.0158


*** tstop() called on genome.bme.utexas.edu at Thu Apr 23 17:15:59 2020
Module time:
	user time   =      11.00 seconds =       0.18 minutes
	system time =       0.46 seconds =       0.01 minutes
	total time  =          2 seconds =       0.03 minutes
Total time:
	user time   =      40.57 seconds =       0.68 minutes
	system time =       1.69 seconds =       0.03 minutes
	total time  =          8 seconds =       0.13 minutes
  Constructing Basis Sets for SAPT...

   => Loading Basis Set <=

    Name: (AUG-CC-PVDZ AUX)
    Role: RIFIT
    Keyword: DF_BASIS_SAPT
    atoms 1, 4          entry C          line   112 file /home/liuchw/anaconda3/envs/psi4env/share/psi4/basis/aug-cc-pvdz-ri.gbs 
    atoms 2-3, 5-6, 8-9 entry H          line    30 file /home/liuchw/anaconda3/envs/psi4env/share/psi4/basis/aug-cc-pvdz-ri.gbs 
    atoms 7             entry O          line   204 file /home/liuchw/anaconda3/envs/psi4env/share/psi4/basis/aug-cc-pvdz-ri.gbs 


  //>>>>>>>>>>>>>>>>>>>>>>>>>>>>>>>>>>>//
  //               SAPT2+              //
  //<<<<<<<<<<<<<<<<<<<<<<<<<<<<<<<<<<<//


*** tstart() called on genome.bme.utexas.edu
*** at Thu Apr 23 17:15:59 2020

        SAPT2+  
    Ed Hohenstein
     6 June 2009

      Orbital Information
  --------------------------
    NSO        =       123
    NMO        =       123
    NRI        =       354
    NOCC A     =         8
    NOCC B     =         5
    FOCC A     =         2
    FOCC B     =         1
    NVIR A     =       115
    NVIR B     =       118

    Estimated memory usage: 60.8 MB

    Natural Orbital Cutoff:   1.000E-06
    Disp(T3) Truncation:            Yes
    CCD (vv|vv) Truncation:         Yes
    MBPT T2 Truncation:             Yes

    Monomer A: 46 virtual orbitals dropped
    Monomer B: 84 virtual orbitals dropped

    Elst10,r            =    -0.000422669864 [Eh]
    Exch10 (S^2)        =     0.000003004602 [Eh]
    Exch10              =     0.000003004617 [Eh]
    Ind20,r (A<-B)      =    -0.000014838941 [Eh]
    Ind20,r (B<-A)      =    -0.000001684393 [Eh]
    Ind20,r             =    -0.000016523334 [Eh]
    Exch-Ind20,r (A<-B) =     0.000000876471 [Eh]
    Exch-Ind20,r (B<-A) =     0.000000007997 [Eh]
    Exch-Ind20,r        =     0.000000884467 [Eh]
    Disp20              =    -0.000079074624 [Eh]
    Disp20 (NO)         =    -0.000076247629 [Eh]
    Exch-Disp20         =     0.000000389214 [Eh]
    Elst12,r            =     0.000072953151 [Eh]
    Exch11              =     0.000000100464 [Eh]
    Exch12              =     0.000000046046 [Eh]
    Ind22               =     0.000001667969 [Eh]
    Disp21              =     0.000006798492 [Eh]
    Disp22 (SDQ)        =     0.000003275299 [Eh]

    (i =   1 of   4)          0 seconds
    (i =   2 of   4)          1 seconds
    (i =   3 of   4)          1 seconds
    (i =   4 of   4)          1 seconds

    Disp220 (T)         =    -0.000005220946 [Eh]

    (i =   1 of   6)          0 seconds
    (i =   2 of   6)          0 seconds
    (i =   3 of   6)          0 seconds
    (i =   4 of   6)          0 seconds
    (i =   5 of   6)          0 seconds
    (i =   6 of   6)          0 seconds

    Disp202 (T)         =    -0.000007493110 [Eh]

    Disp22 (T)          =    -0.000012714056 [Eh]

    Est. Disp220 (T)    =    -0.000005414520 [Eh]
    Est. Disp202 (T)    =    -0.000007770928 [Eh]

    Est. Disp22 (T)     =    -0.000013185449 [Eh]

    SAPT Results 
  --------------------------------------------------------------------------------------------------------
    Electrostatics                 -0.34971671 [mEh]      -0.21945055 [kcal/mol]      -0.91818110 [kJ/mol]
      Elst10,r                     -0.42266986 [mEh]      -0.26522934 [kcal/mol]      -1.10971957 [kJ/mol]
      Elst12,r                      0.07295315 [mEh]       0.04577879 [kcal/mol]       0.19153847 [kJ/mol]

    Exchange                        0.00315113 [mEh]       0.00197736 [kcal/mol]       0.00827328 [kJ/mol]
      Exch10                        0.00300462 [mEh]       0.00188543 [kcal/mol]       0.00788862 [kJ/mol]
      Exch10(S^2)                   0.00300460 [mEh]       0.00188542 [kcal/mol]       0.00788858 [kJ/mol]
      Exch11(S^2)                   0.00010046 [mEh]       0.00006304 [kcal/mol]       0.00026377 [kJ/mol]
      Exch12(S^2)                   0.00004605 [mEh]       0.00002889 [kcal/mol]       0.00012089 [kJ/mol]

    Induction                      -0.01472772 [mEh]      -0.00924178 [kcal/mol]      -0.03866762 [kJ/mol]
      Ind20,r                      -0.01652333 [mEh]      -0.01036855 [kcal/mol]      -0.04338201 [kJ/mol]
      Ind22                         0.00166797 [mEh]       0.00104667 [kcal/mol]       0.00437925 [kJ/mol]
      Exch-Ind20,r                  0.00088447 [mEh]       0.00055501 [kcal/mol]       0.00232217 [kJ/mol]
      Exch-Ind22                   -0.00008928 [mEh]      -0.00005603 [kcal/mol]      -0.00023441 [kJ/mol]
      delta HF,r (2)               -0.00066754 [mEh]      -0.00041889 [kcal/mol]      -0.00175262 [kJ/mol]

    Dispersion                     -0.08179707 [mEh]      -0.05132844 [kcal/mol]      -0.21475817 [kJ/mol]
      Disp20                       -0.07907462 [mEh]      -0.04962008 [kcal/mol]      -0.20761040 [kJ/mol]
      Disp21                        0.00679849 [mEh]       0.00426612 [kcal/mol]       0.01784944 [kJ/mol]
      Disp22 (SDQ)                  0.00327530 [mEh]       0.00205528 [kcal/mol]       0.00859930 [kJ/mol]
      Disp22 (T)                   -0.01271406 [mEh]      -0.00797819 [kcal/mol]      -0.03338075 [kJ/mol]
      Est. Disp22 (T)              -0.01318545 [mEh]      -0.00827399 [kcal/mol]      -0.03461839 [kJ/mol]
      Exch-Disp20                   0.00038921 [mEh]       0.00024424 [kcal/mol]       0.00102188 [kJ/mol]

  Total HF                         -0.43597165 [mEh]      -0.27357634 [kcal/mol]      -1.14464341 [kJ/mol]
  Total SAPT0                      -0.51465706 [mEh]      -0.32295218 [kcal/mol]      -1.35123192 [kJ/mol]
  Total SAPT2                      -0.43997871 [mEh]      -0.27609081 [kcal/mol]      -1.15516395 [kJ/mol]
  Total SAPT2+                     -0.44309037 [mEh]      -0.27804341 [kcal/mol]      -1.16333361 [kJ/mol]

  Special recipe for scaled SAPT0 (see Manual):
    Electrostatics sSAPT0          -0.42266986 [mEh]      -0.26522934 [kcal/mol]      -1.10971957 [kJ/mol]
    Exchange sSAPT0                 0.00300462 [mEh]       0.00188543 [kcal/mol]       0.00788862 [kJ/mol]
    Induction sSAPT0               -0.01630640 [mEh]      -0.01023242 [kcal/mol]      -0.04281245 [kJ/mol]
    Dispersion sSAPT0              -0.07868541 [mEh]      -0.04937584 [kcal/mol]      -0.20658851 [kJ/mol]
  Total sSAPT0                     -0.51465706 [mEh]      -0.32295218 [kcal/mol]      -1.35123192 [kJ/mol]
  --------------------------------------------------------------------------------------------------------

*** tstop() called on genome.bme.utexas.edu at Thu Apr 23 17:16:06 2020
Module time:
	user time   =      55.84 seconds =       0.93 minutes
	system time =       3.63 seconds =       0.06 minutes
	total time  =          7 seconds =       0.12 minutes
Total time:
	user time   =      97.27 seconds =       1.62 minutes
	system time =       5.36 seconds =       0.09 minutes
	total time  =         15 seconds =       0.25 minutes

    Psi4 stopped on: Thursday, 23 April 2020 05:16PM
    Psi4 wall time for execution: 0:00:15.32

*** Psi4 exiting successfully. Buy a developer a beer!
