
    -----------------------------------------------------------------------
          Psi4: An Open-Source Ab Initio Electronic Structure Package
                               Psi4 1.4a2.dev224 

                         Git: Rev {master} e453b16 


    R. M. Parrish, L. A. Burns, D. G. A. Smith, A. C. Simmonett,
    A. E. DePrince III, E. G. Hohenstein, U. Bozkaya, A. Yu. Sokolov,
    R. Di Remigio, R. M. Richard, J. F. Gonthier, A. M. James,
    H. R. McAlexander, A. Kumar, M. Saitow, X. Wang, B. P. Pritchard,
    P. Verma, H. F. Schaefer III, K. Patkowski, R. A. King, E. F. Valeev,
    F. A. Evangelista, J. M. Turney, T. D. Crawford, and C. D. Sherrill,
    J. Chem. Theory Comput. 13(7) pp 3185--3197 (2017).
    (doi: 10.1021/acs.jctc.7b00174)


                         Additional Contributions by
    P. Kraus, H. Kruse, M. H. Lechner, M. C. Schieber, R. A. Shaw,
    A. Alenaizan, R. Galvelis, Z. L. Glick, S. Lehtola, and J. P. Misiewicz

    -----------------------------------------------------------------------


    Psi4 started on: Friday, 24 April 2020 12:50AM

    Process ID: 109869
    Host:       node50.bme.utexas.edu
    PSIDATADIR: /home/liuchw/anaconda3/envs/psi4env/share/psi4
    Memory:     500.0 MiB
    Threads:    8
    
  ==> Input File <==

--------------------------------------------------------------------------
#Generated by lconvert.py for sapt job

memory 20 GB

molecule  {
0 1
  C       1.291260   -0.666910   -0.014690
  H       1.586310   -1.228550    0.860100
  H       1.000950   -1.228630   -0.891020
  C       1.291170    0.666930   -0.014690
  H       1.000800    1.228600   -0.891030
  H       1.586160    1.228620    0.860080
--
0 1
  O      -1.986350   -0.000030   -0.090080
  H      -1.046280    0.000060    0.113300
  H      -2.404410   -0.000040    0.772720
units angstrom
no_reorient
symmetry c1
}

set {
scf_type DF
basis aug-cc-pvdz
freeze_core True
guess SAD
}
energy('sapt2+')
--------------------------------------------------------------------------

  Memory set to  18.626 GiB by Python driver.

Scratch directory: /scratch/liuchw/

  //>>>>>>>>>>>>>>>>>>>>>>>>>>>>>>>>>>>//
  //              Dimer HF             //
  //<<<<<<<<<<<<<<<<<<<<<<<<<<<<<<<<<<<//


*** tstart() called on node50.bme.utexas.edu
*** at Fri Apr 24 00:50:29 2020

   => Loading Basis Set <=

    Name: AUG-CC-PVDZ
    Role: ORBITAL
    Keyword: BASIS
    atoms 1, 4          entry C          line   182 file /home/liuchw/anaconda3/envs/psi4env/share/psi4/basis/aug-cc-pvdz.gbs 
    atoms 2-3, 5-6, 8-9 entry H          line    40 file /home/liuchw/anaconda3/envs/psi4env/share/psi4/basis/aug-cc-pvdz.gbs 
    atoms 7             entry O          line   254 file /home/liuchw/anaconda3/envs/psi4env/share/psi4/basis/aug-cc-pvdz.gbs 


         ---------------------------------------------------------
                                   SCF
               by Justin Turney, Rob Parrish, Andy Simmonett
                          and Daniel G. A. Smith
                              RHF Reference
                        8 Threads,  19073 MiB Core
         ---------------------------------------------------------

  ==> Geometry <==

    Molecular point group: c1
    Full point group: C1

    Geometry (in Angstrom), charge = 0, multiplicity = 1:

       Center              X                  Y                   Z               Mass       
    ------------   -----------------  -----------------  -----------------  -----------------
         C            1.270525000949    -0.666906104025     0.006221032004    12.000000000000
         H            1.565575000949    -1.228546104025     0.881011032004     1.007825032230
         H            0.980215000949    -1.228626104025    -0.870108967996     1.007825032230
         C            1.270435000949     0.666933895975     0.006221032004    12.000000000000
         H            0.980065000949     1.228603895975    -0.870118967996     1.007825032230
         H            1.565425000949     1.228623895975     0.880991032004     1.007825032230
         O           -2.007084999051    -0.000026104025    -0.069168967996    15.994914619570
         H           -1.067014999051     0.000063895975     0.134211032004     1.007825032230
         H           -2.425144999051    -0.000036104025     0.793631032004     1.007825032230

  Running in c1 symmetry.

  Rotational constants: A =      0.81977  B =      0.13938  C =      0.12590 [cm^-1]
  Rotational constants: A =  24576.17639  B =   4178.59828  C =   3774.28612 [MHz]
  Nuclear repulsion =   68.021006882507066

  Charge       = 0
  Multiplicity = 1
  Electrons    = 26
  Nalpha       = 13
  Nbeta        = 13

  ==> Algorithm <==

  SCF Algorithm Type is DF.
  DIIS enabled.
  MOM disabled.
  Fractional occupation disabled.
  Guess Type is SAD.
  Energy threshold   = 1.00e-08
  Density threshold  = 1.00e-08
  Integral threshold = 0.00e+00

  ==> Primary Basis <==

  Basis Set: AUG-CC-PVDZ
    Blend: AUG-CC-PVDZ
    Number of shells: 57
    Number of basis function: 123
    Number of Cartesian functions: 129
    Spherical Harmonics?: true
    Max angular momentum: 2

   => Loading Basis Set <=

    Name: (AUG-CC-PVDZ AUX)
    Role: JKFIT
    Keyword: DF_BASIS_SCF
    atoms 1, 4          entry C          line   154 file /home/liuchw/anaconda3/envs/psi4env/share/psi4/basis/aug-cc-pvdz-jkfit.gbs 
    atoms 2-3, 5-6, 8-9 entry H          line    70 file /home/liuchw/anaconda3/envs/psi4env/share/psi4/basis/aug-cc-pvdz-jkfit.gbs 
    atoms 7             entry O          line   270 file /home/liuchw/anaconda3/envs/psi4env/share/psi4/basis/aug-cc-pvdz-jkfit.gbs 

  ==> Pre-Iterations <==

   -------------------------------------------------------
    Irrep   Nso     Nmo     Nalpha   Nbeta   Ndocc  Nsocc
   -------------------------------------------------------
     A        123     123       0       0       0       0
   -------------------------------------------------------
    Total     123     123      13      13      13       0
   -------------------------------------------------------

  ==> Integral Setup <==

  ==> DiskDFJK: Density-Fitted J/K Matrices <==

    J tasked:                  Yes
    K tasked:                  Yes
    wK tasked:                  No
    OpenMP threads:              8
    Integrals threads:           8
    Memory [MiB]:            14305
    Algorithm:                Core
    Integral Cache:           SAVE
    Schwarz Cutoff:          1E-12
    Fitting Condition:       1E-10

   => Auxiliary Basis Set <=

  Basis Set: (AUG-CC-PVDZ AUX)
    Blend: AUG-CC-PVDZ-JKFIT
    Number of shells: 156
    Number of basis function: 450
    Number of Cartesian functions: 513
    Spherical Harmonics?: true
    Max angular momentum: 3

  Minimum eigenvalue in the overlap matrix is 8.9401788024E-05.
  Using Symmetric Orthogonalization.

  SCF Guess: Superposition of Atomic Densities via on-the-fly atomic UHF.

  ==> Iterations <==

                           Total Energy        Delta E     RMS |[F,P]|

   @DF-RHF iter SAD:  -152.82697081626443   -1.52827e+02   0.00000e+00 
   @DF-RHF iter   1:  -153.93361597164736   -1.10665e+00   4.54088e-03 DIIS
   @DF-RHF iter   2:  -154.04726439296124   -1.13648e-01   2.55709e-03 DIIS
   @DF-RHF iter   3:  -154.08459886481378   -3.73345e-02   3.27336e-04 DIIS
   @DF-RHF iter   4:  -154.08572258392604   -1.12372e-03   1.13560e-04 DIIS
   @DF-RHF iter   5:  -154.08584998572539   -1.27402e-04   1.68826e-05 DIIS
   @DF-RHF iter   6:  -154.08585491801932   -4.93229e-06   3.81004e-06 DIIS
   @DF-RHF iter   7:  -154.08585524468756   -3.26668e-07   1.01419e-06 DIIS
   @DF-RHF iter   8:  -154.08585526937622   -2.46887e-08   1.90538e-07 DIIS
   @DF-RHF iter   9:  -154.08585527018414   -8.07916e-10   3.58079e-08 DIIS
   @DF-RHF iter  10:  -154.08585527020702   -2.28795e-11   8.97188e-09 DIIS
  Energy and wave function converged.


  ==> Post-Iterations <==

    Orbital Energies [Eh]
    ---------------------

    Doubly Occupied:                                                      

       1A    -20.560644     2A    -11.252052     3A    -11.250386  
       4A     -1.340618     5A     -1.051673     6A     -0.807054  
       7A     -0.703200     8A     -0.657092     9A     -0.599821  
      10A     -0.573467    11A     -0.520303    12A     -0.493823  
      13A     -0.392376  

    Virtual:                                                              

      14A      0.034188    15A      0.048867    16A      0.052327  
      17A      0.054477    18A      0.070671    19A      0.096568  
      20A      0.101640    21A      0.122775    22A      0.141122  
      23A      0.143654    24A      0.168717    25A      0.174935  
      26A      0.191216    27A      0.202015    28A      0.202918  
      29A      0.220535    30A      0.236744    31A      0.248190  
      32A      0.257398    33A      0.291183    34A      0.296826  
      35A      0.333889    36A      0.351145    37A      0.375155  
      38A      0.389567    39A      0.399493    40A      0.408729  
      41A      0.420036    42A      0.437738    43A      0.449212  
      44A      0.464510    45A      0.469318    46A      0.495404  
      47A      0.521252    48A      0.536115    49A      0.550244  
      50A      0.563522    51A      0.573457    52A      0.595624  
      53A      0.604877    54A      0.621361    55A      0.629390  
      56A      0.643919    57A      0.673809    58A      0.677215  
      59A      0.692082    60A      0.697150    61A      0.720901  
      62A      0.729268    63A      0.759402    64A      0.783188  
      65A      0.804126    66A      0.837257    67A      0.882493  
      68A      0.925334    69A      0.982687    70A      1.067294  
      71A      1.136161    72A      1.171756    73A      1.172951  
      74A      1.194795    75A      1.210259    76A      1.243889  
      77A      1.263988    78A      1.277696    79A      1.358000  
      80A      1.423868    81A      1.497480    82A      1.523807  
      83A      1.584637    84A      1.613227    85A      1.622159  
      86A      1.653627    87A      1.749814    88A      1.763078  
      89A      1.779205    90A      1.807547    91A      1.892981  
      92A      1.918503    93A      1.971669    94A      2.030208  
      95A      2.045939    96A      2.052601    97A      2.062363  
      98A      2.101643    99A      2.134454   100A      2.149761  
     101A      2.162505   102A      2.240596   103A      2.269200  
     104A      2.377585   105A      2.415472   106A      2.448476  
     107A      2.475173   108A      2.534331   109A      2.652460  
     110A      2.678283   111A      2.761415   112A      2.804917  
     113A      2.819870   114A      2.884428   115A      2.957964  
     116A      3.024925   117A      3.424433   118A      3.484111  
     119A      3.704463   120A      3.750281   121A      3.782253  
     122A      4.123346   123A      4.365843  

    Final Occupation by Irrep:
              A 
    DOCC [    13 ]

  @DF-RHF Final Energy:  -154.08585527020702

   => Energetics <=

    Nuclear Repulsion Energy =             68.0210068825070664
    One-Electron Energy =                -343.8087061850268924
    Two-Electron Energy =                 121.7018440323128488
    Total Energy =                       -154.0858552702069915

Computation Completed


Properties will be evaluated at   0.000000,   0.000000,   0.000000 [a0]

Properties computed using the SCF density matrix

  Nuclear Dipole Moment: [e a0]
     X:     1.4895      Y:     0.0001      Z:     0.8899

  Electronic Dipole Moment: [e a0]
     X:    -0.9739      Y:    -0.0000      Z:    -0.2203

  Dipole Moment: [e a0]
     X:     0.5155      Y:     0.0000      Z:     0.6696     Total:     0.8451

  Dipole Moment: [D]
     X:     1.3104      Y:     0.0001      Z:     1.7019     Total:     2.1479


*** tstop() called on node50.bme.utexas.edu at Fri Apr 24 00:50:31 2020
Module time:
	user time   =      13.16 seconds =       0.22 minutes
	system time =       0.41 seconds =       0.01 minutes
	total time  =          2 seconds =       0.03 minutes
Total time:
	user time   =      13.16 seconds =       0.22 minutes
	system time =       0.41 seconds =       0.01 minutes
	total time  =          2 seconds =       0.03 minutes

  //>>>>>>>>>>>>>>>>>>>>>>>>>>>>>>>>>>>//
  //            Monomer A HF           //
  //<<<<<<<<<<<<<<<<<<<<<<<<<<<<<<<<<<<//


*** tstart() called on node50.bme.utexas.edu
*** at Fri Apr 24 00:50:31 2020

   => Loading Basis Set <=

    Name: AUG-CC-PVDZ
    Role: ORBITAL
    Keyword: BASIS
    atoms 1, 4          entry C          line   182 file /home/liuchw/anaconda3/envs/psi4env/share/psi4/basis/aug-cc-pvdz.gbs 
    atoms 2-3, 5-6, 8-9 entry H          line    40 file /home/liuchw/anaconda3/envs/psi4env/share/psi4/basis/aug-cc-pvdz.gbs 
    atoms 7             entry O          line   254 file /home/liuchw/anaconda3/envs/psi4env/share/psi4/basis/aug-cc-pvdz.gbs 


         ---------------------------------------------------------
                                   SCF
               by Justin Turney, Rob Parrish, Andy Simmonett
                          and Daniel G. A. Smith
                              RHF Reference
                        8 Threads,  19073 MiB Core
         ---------------------------------------------------------

  ==> Geometry <==

    Molecular point group: c1
    Full point group: C1

    Geometry (in Angstrom), charge = 0, multiplicity = 1:

       Center              X                  Y                   Z               Mass       
    ------------   -----------------  -----------------  -----------------  -----------------
         C            1.270525000949    -0.666906104025     0.006221032004    12.000000000000
         H            1.565575000949    -1.228546104025     0.881011032004     1.007825032230
         H            0.980215000949    -1.228626104025    -0.870108967996     1.007825032230
         C            1.270435000949     0.666933895975     0.006221032004    12.000000000000
         H            0.980065000949     1.228603895975    -0.870118967996     1.007825032230
         H            1.565425000949     1.228623895975     0.880991032004     1.007825032230
      Gh(O)          -2.007084999051    -0.000026104025    -0.069168967996    15.994914619570
      Gh(H)          -1.067014999051     0.000063895975     0.134211032004     1.007825032230
      Gh(H)          -2.425144999051    -0.000036104025     0.793631032004     1.007825032230

  Running in c1 symmetry.

  Rotational constants: A =      0.81977  B =      0.13938  C =      0.12590 [cm^-1]
  Rotational constants: A =  24576.17639  B =   4178.59828  C =   3774.28612 [MHz]
  Nuclear repulsion =   33.407005562531893

  Charge       = 0
  Multiplicity = 1
  Electrons    = 16
  Nalpha       = 8
  Nbeta        = 8

  ==> Algorithm <==

  SCF Algorithm Type is DF.
  DIIS enabled.
  MOM disabled.
  Fractional occupation disabled.
  Guess Type is SAD.
  Energy threshold   = 1.00e-08
  Density threshold  = 1.00e-08
  Integral threshold = 0.00e+00

  ==> Primary Basis <==

  Basis Set: AUG-CC-PVDZ
    Blend: AUG-CC-PVDZ
    Number of shells: 57
    Number of basis function: 123
    Number of Cartesian functions: 129
    Spherical Harmonics?: true
    Max angular momentum: 2

   => Loading Basis Set <=

    Name: (AUG-CC-PVDZ AUX)
    Role: JKFIT
    Keyword: DF_BASIS_SCF
    atoms 1, 4          entry C          line   154 file /home/liuchw/anaconda3/envs/psi4env/share/psi4/basis/aug-cc-pvdz-jkfit.gbs 
    atoms 2-3, 5-6, 8-9 entry H          line    70 file /home/liuchw/anaconda3/envs/psi4env/share/psi4/basis/aug-cc-pvdz-jkfit.gbs 
    atoms 7             entry O          line   270 file /home/liuchw/anaconda3/envs/psi4env/share/psi4/basis/aug-cc-pvdz-jkfit.gbs 

  ==> Pre-Iterations <==

   -------------------------------------------------------
    Irrep   Nso     Nmo     Nalpha   Nbeta   Ndocc  Nsocc
   -------------------------------------------------------
     A        123     123       0       0       0       0
   -------------------------------------------------------
    Total     123     123       8       8       8       0
   -------------------------------------------------------

  ==> Integral Setup <==

  ==> DiskDFJK: Density-Fitted J/K Matrices <==

    J tasked:                  Yes
    K tasked:                  Yes
    wK tasked:                  No
    OpenMP threads:              8
    Integrals threads:           8
    Memory [MiB]:            14305
    Algorithm:                Core
    Integral Cache:           LOAD
    Schwarz Cutoff:          1E-12
    Fitting Condition:       1E-10

   => Auxiliary Basis Set <=

  Basis Set: (AUG-CC-PVDZ AUX)
    Blend: AUG-CC-PVDZ-JKFIT
    Number of shells: 156
    Number of basis function: 450
    Number of Cartesian functions: 513
    Spherical Harmonics?: true
    Max angular momentum: 3

  Minimum eigenvalue in the overlap matrix is 8.9401788024E-05.
  Using Symmetric Orthogonalization.

  SCF Guess: Superposition of Atomic Densities via on-the-fly atomic UHF.

  ==> Iterations <==

                           Total Energy        Delta E     RMS |[F,P]|

   @DF-RHF iter SAD:   -77.25788474099193   -7.72579e+01   0.00000e+00 
   @DF-RHF iter   1:   -77.96681853566332   -7.08934e-01   2.83941e-03 DIIS
   @DF-RHF iter   2:   -78.03268984454898   -6.58713e-02   1.12049e-03 DIIS
   @DF-RHF iter   3:   -78.04323067787797   -1.05408e-02   1.78760e-04 DIIS
   @DF-RHF iter   4:   -78.04376056805866   -5.29890e-04   1.69905e-05 DIIS
   @DF-RHF iter   5:   -78.04376588776105   -5.31970e-06   1.83056e-06 DIIS
   @DF-RHF iter   6:   -78.04376595773840   -6.99773e-08   2.30014e-07 DIIS
   @DF-RHF iter   7:   -78.04376595873084   -9.92443e-10   3.52500e-08 DIIS
   @DF-RHF iter   8:   -78.04376595875637   -2.55227e-11   5.06551e-09 DIIS
  Energy and wave function converged.


  ==> Post-Iterations <==

    Orbital Energies [Eh]
    ---------------------

    Doubly Occupied:                                                      

       1A    -11.239158     2A    -11.237492     3A     -1.036292  
       4A     -0.794257     5A     -0.644622     6A     -0.586923  
       7A     -0.508007     8A     -0.376272  

    Virtual:                                                              

       9A      0.035713    10A      0.050329    11A      0.050803  
      12A      0.055079    13A      0.070719    14A      0.092654  
      15A      0.100250    16A      0.126226    17A      0.140416  
      18A      0.145972    19A      0.160635    20A      0.173217  
      21A      0.190569    22A      0.192369    23A      0.198536  
      24A      0.206156    25A      0.211156    26A      0.229856  
      27A      0.233664    28A      0.294538    29A      0.302653  
      30A      0.342989    31A      0.384172    32A      0.394858  
      33A      0.403285    34A      0.410423    35A      0.418214  
      36A      0.446259    37A      0.450000    38A      0.461671  
      39A      0.475369    40A      0.478838    41A      0.486242  
      42A      0.522487    43A      0.527986    44A      0.541425  
      45A      0.553346    46A      0.581261    47A      0.599962  
      48A      0.607234    49A      0.612787    50A      0.634123  
      51A      0.642163    52A      0.664832    53A      0.680413  
      54A      0.698012    55A      0.706099    56A      0.716588  
      57A      0.729420    58A      0.736020    59A      0.803493  
      60A      0.806030    61A      0.850387    62A      0.892754  
      63A      0.939844    64A      0.971664    65A      1.044491  
      66A      1.135331    67A      1.156717    68A      1.199999  
      69A      1.219302    70A      1.235381    71A      1.275914  
      72A      1.286799    73A      1.307751    74A      1.352278  
      75A      1.403954    76A      1.439334    77A      1.480941  
      78A      1.481563    79A      1.526412    80A      1.603935  
      81A      1.639687    82A      1.667694    83A      1.774638  
      84A      1.816891    85A      1.819316    86A      1.900026  
      87A      1.940413    88A      1.986049    89A      2.023474  
      90A      2.068976    91A      2.104195    92A      2.119566  
      93A      2.148197    94A      2.165823    95A      2.167697  
      96A      2.250240    97A      2.366012    98A      2.379672  
      99A      2.427954   100A      2.442683   101A      2.482743  
     102A      2.580651   103A      2.610527   104A      2.695701  
     105A      2.696834   106A      2.748361   107A      2.830008  
     108A      2.835680   109A      2.958691   110A      3.439820  
     111A      3.496800   112A      3.506568   113A      3.957142  
     114A      4.089588   115A      4.914842   116A      4.959861  
     117A      5.017360   118A      5.242124   119A      5.488281  
     120A      5.760121   121A      6.638823   122A      7.090059  
     123A     33.574707  

    Final Occupation by Irrep:
              A 
    DOCC [     8 ]

  @DF-RHF Final Energy:   -78.04376595875637

   => Energetics <=

    Nuclear Repulsion Energy =             33.4070055625318929
    One-Electron Energy =                -170.0554958795158029
    Two-Electron Energy =                  58.6047243582275286
    Total Energy =                        -78.0437659587563672

Computation Completed


Properties will be evaluated at   0.000000,   0.000000,   0.000000 [a0]

Properties computed using the SCF density matrix

  Nuclear Dipole Moment: [e a0]
     X:    38.4314      Y:     0.0004      Z:     0.1822

  Electronic Dipole Moment: [e a0]
     X:   -38.4307      Y:    -0.0004      Z:    -0.1825

  Dipole Moment: [e a0]
     X:     0.0007      Y:     0.0000      Z:    -0.0003     Total:     0.0008

  Dipole Moment: [D]
     X:     0.0019      Y:     0.0000      Z:    -0.0008     Total:     0.0020


*** tstop() called on node50.bme.utexas.edu at Fri Apr 24 00:50:33 2020
Module time:
	user time   =      10.61 seconds =       0.18 minutes
	system time =       0.43 seconds =       0.01 minutes
	total time  =          2 seconds =       0.03 minutes
Total time:
	user time   =      23.82 seconds =       0.40 minutes
	system time =       0.84 seconds =       0.01 minutes
	total time  =          4 seconds =       0.07 minutes

  //>>>>>>>>>>>>>>>>>>>>>>>>>>>>>>>>>>>//
  //            Monomer B HF           //
  //<<<<<<<<<<<<<<<<<<<<<<<<<<<<<<<<<<<//


*** tstart() called on node50.bme.utexas.edu
*** at Fri Apr 24 00:50:33 2020

   => Loading Basis Set <=

    Name: AUG-CC-PVDZ
    Role: ORBITAL
    Keyword: BASIS
    atoms 1, 4          entry C          line   182 file /home/liuchw/anaconda3/envs/psi4env/share/psi4/basis/aug-cc-pvdz.gbs 
    atoms 2-3, 5-6, 8-9 entry H          line    40 file /home/liuchw/anaconda3/envs/psi4env/share/psi4/basis/aug-cc-pvdz.gbs 
    atoms 7             entry O          line   254 file /home/liuchw/anaconda3/envs/psi4env/share/psi4/basis/aug-cc-pvdz.gbs 


         ---------------------------------------------------------
                                   SCF
               by Justin Turney, Rob Parrish, Andy Simmonett
                          and Daniel G. A. Smith
                              RHF Reference
                        8 Threads,  19073 MiB Core
         ---------------------------------------------------------

  ==> Geometry <==

    Molecular point group: c1
    Full point group: C1

    Geometry (in Angstrom), charge = 0, multiplicity = 1:

       Center              X                  Y                   Z               Mass       
    ------------   -----------------  -----------------  -----------------  -----------------
      Gh(C)           1.270525000949    -0.666906104025     0.006221032004    12.000000000000
      Gh(H)           1.565575000949    -1.228546104025     0.881011032004     1.007825032230
      Gh(H)           0.980215000949    -1.228626104025    -0.870108967996     1.007825032230
      Gh(C)           1.270435000949     0.666933895975     0.006221032004    12.000000000000
      Gh(H)           0.980065000949     1.228603895975    -0.870118967996     1.007825032230
      Gh(H)           1.565425000949     1.228623895975     0.880991032004     1.007825032230
         O           -2.007084999051    -0.000026104025    -0.069168967996    15.994914619570
         H           -1.067014999051     0.000063895975     0.134211032004     1.007825032230
         H           -2.425144999051    -0.000036104025     0.793631032004     1.007825032230

  Running in c1 symmetry.

  Rotational constants: A =      0.81977  B =      0.13938  C =      0.12590 [cm^-1]
  Rotational constants: A =  24576.17639  B =   4178.59828  C =   3774.28612 [MHz]
  Nuclear repulsion =    9.167546063746428

  Charge       = 0
  Multiplicity = 1
  Electrons    = 10
  Nalpha       = 5
  Nbeta        = 5

  ==> Algorithm <==

  SCF Algorithm Type is DF.
  DIIS enabled.
  MOM disabled.
  Fractional occupation disabled.
  Guess Type is SAD.
  Energy threshold   = 1.00e-08
  Density threshold  = 1.00e-08
  Integral threshold = 0.00e+00

  ==> Primary Basis <==

  Basis Set: AUG-CC-PVDZ
    Blend: AUG-CC-PVDZ
    Number of shells: 57
    Number of basis function: 123
    Number of Cartesian functions: 129
    Spherical Harmonics?: true
    Max angular momentum: 2

   => Loading Basis Set <=

    Name: (AUG-CC-PVDZ AUX)
    Role: JKFIT
    Keyword: DF_BASIS_SCF
    atoms 1, 4          entry C          line   154 file /home/liuchw/anaconda3/envs/psi4env/share/psi4/basis/aug-cc-pvdz-jkfit.gbs 
    atoms 2-3, 5-6, 8-9 entry H          line    70 file /home/liuchw/anaconda3/envs/psi4env/share/psi4/basis/aug-cc-pvdz-jkfit.gbs 
    atoms 7             entry O          line   270 file /home/liuchw/anaconda3/envs/psi4env/share/psi4/basis/aug-cc-pvdz-jkfit.gbs 

  ==> Pre-Iterations <==

   -------------------------------------------------------
    Irrep   Nso     Nmo     Nalpha   Nbeta   Ndocc  Nsocc
   -------------------------------------------------------
     A        123     123       0       0       0       0
   -------------------------------------------------------
    Total     123     123       5       5       5       0
   -------------------------------------------------------

  ==> Integral Setup <==

  ==> DiskDFJK: Density-Fitted J/K Matrices <==

    J tasked:                  Yes
    K tasked:                  Yes
    wK tasked:                  No
    OpenMP threads:              8
    Integrals threads:           8
    Memory [MiB]:            14305
    Algorithm:                Core
    Integral Cache:           LOAD
    Schwarz Cutoff:          1E-12
    Fitting Condition:       1E-10

   => Auxiliary Basis Set <=

  Basis Set: (AUG-CC-PVDZ AUX)
    Blend: AUG-CC-PVDZ-JKFIT
    Number of shells: 156
    Number of basis function: 450
    Number of Cartesian functions: 513
    Spherical Harmonics?: true
    Max angular momentum: 3

  Minimum eigenvalue in the overlap matrix is 8.9401788024E-05.
  Using Symmetric Orthogonalization.

  SCF Guess: Superposition of Atomic Densities via on-the-fly atomic UHF.

  ==> Iterations <==

                           Total Energy        Delta E     RMS |[F,P]|

   @DF-RHF iter SAD:   -75.46345139328677   -7.54635e+01   0.00000e+00 
   @DF-RHF iter   1:   -75.95692382060507   -4.93472e-01   3.68632e-03 DIIS
   @DF-RHF iter   2:   -76.01014703403919   -5.32232e-02   2.41347e-03 DIIS
   @DF-RHF iter   3:   -76.04089285798381   -3.07458e-02   1.72716e-04 DIIS
   @DF-RHF iter   4:   -76.04127077726910   -3.77919e-04   3.88943e-05 DIIS
   @DF-RHF iter   5:   -76.04129231717518   -2.15399e-05   8.82133e-06 DIIS
   @DF-RHF iter   6:   -76.04129403554502   -1.71837e-06   1.77543e-06 DIIS
   @DF-RHF iter   7:   -76.04129410897883   -7.34338e-08   2.94288e-07 DIIS
   @DF-RHF iter   8:   -76.04129411084152   -1.86269e-09   4.58371e-08 DIIS
   @DF-RHF iter   9:   -76.04129411088111   -3.95914e-11   1.18470e-08 DIIS
   @DF-RHF iter  10:   -76.04129411088374   -2.62901e-12   1.63997e-09 DIIS
  Energy and wave function converged.


  ==> Post-Iterations <==

    Orbital Energies [Eh]
    ---------------------

    Doubly Occupied:                                                      

       1A    -20.578133     2A     -1.355666     3A     -0.715884  
       4A     -0.586682     5A     -0.509366  

    Virtual:                                                              

       6A      0.021158     7A      0.046925     8A      0.047420  
       9A      0.050554    10A      0.071351    11A      0.086793  
      12A      0.107288    13A      0.126523    14A      0.127064  
      15A      0.133078    16A      0.136488    17A      0.149416  
      18A      0.190782    19A      0.191916    20A      0.197140  
      21A      0.229285    22A      0.243261    23A      0.248880  
      24A      0.287089    25A      0.301689    26A      0.338760  
      27A      0.352389    28A      0.377011    29A      0.384390  
      30A      0.388498    31A      0.400729    32A      0.408204  
      33A      0.420471    34A      0.421290    35A      0.444065  
      36A      0.446483    37A      0.455228    38A      0.468178  
      39A      0.517298    40A      0.524001    41A      0.541955  
      42A      0.573905    43A      0.611586    44A      0.615793  
      45A      0.627028    46A      0.658350    47A      0.661370  
      48A      0.662827    49A      0.691441    50A      0.717303  
      51A      0.755102    52A      0.765930    53A      0.795518  
      54A      0.801106    55A      0.819678    56A      0.837243  
      57A      0.880344    58A      0.895819    59A      0.908691  
      60A      0.914147    61A      0.925209    62A      0.939490  
      63A      0.961595    64A      0.976820    65A      1.095666  
      66A      1.099012    67A      1.137126    68A      1.159303  
      69A      1.219392    70A      1.220764    71A      1.382653  
      72A      1.537369    73A      1.626985    74A      1.678639  
      75A      1.976702    76A      2.004040    77A      2.025099  
      78A      2.047385    79A      2.076006    80A      2.082157  
      81A      2.102504    82A      2.170706    83A      2.221879  
      84A      2.253853    85A      2.288127    86A      2.305644  
      87A      2.315987    88A      2.319028    89A      2.358784  
      90A      2.415003    91A      2.460445    92A      2.473953  
      93A      2.503306    94A      2.508005    95A      2.579648  
      96A      2.603244    97A      2.619826    98A      2.746500  
      99A      2.752753   100A      2.759819   101A      2.815757  
     102A      2.824183   103A      2.894706   104A      2.910829  
     105A      2.994673   106A      3.044399   107A      3.260665  
     108A      3.366016   109A      3.485662   110A      3.542526  
     111A      3.690734   112A      3.737922   113A      3.763066  
     114A      3.946960   115A      4.002022   116A      4.120666  
     117A      4.253868   118A      4.380377   119A      5.207468  
     120A      5.286267   121A      5.628368   122A     18.129004  
     123A     18.891563  

    Final Occupation by Irrep:
              A 
    DOCC [     5 ]

  @DF-RHF Final Energy:   -76.04129411088374

   => Energetics <=

    Nuclear Repulsion Energy =              9.1675460637464283
    One-Electron Energy =                -122.9262173745790960
    Two-Electron Energy =                  37.7173771999489205
    Total Energy =                        -76.0412941108837401

Computation Completed


Properties will be evaluated at   0.000000,   0.000000,   0.000000 [a0]

Properties computed using the SCF density matrix

  Nuclear Dipole Moment: [e a0]
     X:   -36.9420      Y:    -0.0003      Z:     0.7077

  Electronic Dipole Moment: [e a0]
     X:    37.2905      Y:     0.0004      Z:     0.0049

  Dipole Moment: [e a0]
     X:     0.3486      Y:     0.0001      Z:     0.7126     Total:     0.7933

  Dipole Moment: [D]
     X:     0.8860      Y:     0.0001      Z:     1.8112     Total:     2.0163


*** tstop() called on node50.bme.utexas.edu at Fri Apr 24 00:50:35 2020
Module time:
	user time   =       7.61 seconds =       0.13 minutes
	system time =       0.26 seconds =       0.00 minutes
	total time  =          2 seconds =       0.03 minutes
Total time:
	user time   =      32.63 seconds =       0.54 minutes
	system time =       1.16 seconds =       0.02 minutes
	total time  =          6 seconds =       0.10 minutes
  Constructing Basis Sets for SAPT...

   => Loading Basis Set <=

    Name: (AUG-CC-PVDZ AUX)
    Role: RIFIT
    Keyword: DF_BASIS_SAPT
    atoms 1, 4          entry C          line   112 file /home/liuchw/anaconda3/envs/psi4env/share/psi4/basis/aug-cc-pvdz-ri.gbs 
    atoms 2-3, 5-6, 8-9 entry H          line    30 file /home/liuchw/anaconda3/envs/psi4env/share/psi4/basis/aug-cc-pvdz-ri.gbs 
    atoms 7             entry O          line   204 file /home/liuchw/anaconda3/envs/psi4env/share/psi4/basis/aug-cc-pvdz-ri.gbs 


  //>>>>>>>>>>>>>>>>>>>>>>>>>>>>>>>>>>>//
  //               SAPT2+              //
  //<<<<<<<<<<<<<<<<<<<<<<<<<<<<<<<<<<<//


*** tstart() called on node50.bme.utexas.edu
*** at Fri Apr 24 00:50:35 2020

        SAPT2+  
    Ed Hohenstein
     6 June 2009

      Orbital Information
  --------------------------
    NSO        =       123
    NMO        =       123
    NRI        =       354
    NOCC A     =         8
    NOCC B     =         5
    FOCC A     =         2
    FOCC B     =         1
    NVIR A     =       115
    NVIR B     =       118

    Estimated memory usage: 60.8 MB

    Natural Orbital Cutoff:   1.000E-06
    Disp(T3) Truncation:            Yes
    CCD (vv|vv) Truncation:         Yes
    MBPT T2 Truncation:             Yes

    Monomer A: 41 virtual orbitals dropped
    Monomer B: 80 virtual orbitals dropped

    Elst10,r            =    -0.007289871592 [Eh]
    Exch10 (S^2)        =     0.008966551248 [Eh]
    Exch10              =     0.009030423782 [Eh]
    Ind20,r (A<-B)      =    -0.004092060263 [Eh]
    Ind20,r (B<-A)      =    -0.000413105668 [Eh]
    Ind20,r             =    -0.004505165931 [Eh]
    Exch-Ind20,r (A<-B) =     0.002771340776 [Eh]
    Exch-Ind20,r (B<-A) =     0.000300807742 [Eh]
    Exch-Ind20,r        =     0.003072148518 [Eh]
    Disp20              =    -0.004058988193 [Eh]
    Disp20 (NO)         =    -0.003599062306 [Eh]
    Exch-Disp20         =     0.000683132204 [Eh]
    Elst12,r            =     0.000810711284 [Eh]
    Exch11              =     0.000291479972 [Eh]
    Exch12              =     0.000122311000 [Eh]
    Ind22               =     0.000030346354 [Eh]
    Disp21              =     0.000232095052 [Eh]
    Disp22 (SDQ)        =     0.000184791501 [Eh]

    (i =   1 of   4)          0 seconds
    (i =   2 of   4)          0 seconds
    (i =   3 of   4)          0 seconds
    (i =   4 of   4)          0 seconds

    Disp220 (T)         =    -0.000223219339 [Eh]

    (i =   1 of   6)          0 seconds
    (i =   2 of   6)          0 seconds
    (i =   3 of   6)          0 seconds
    (i =   4 of   6)          0 seconds
    (i =   5 of   6)          0 seconds
    (i =   6 of   6)          0 seconds

    Disp202 (T)         =    -0.000320347601 [Eh]

    Disp22 (T)          =    -0.000543566940 [Eh]

    Est. Disp220 (T)    =    -0.000251744645 [Eh]
    Est. Disp202 (T)    =    -0.000361284974 [Eh]

    Est. Disp22 (T)     =    -0.000613029619 [Eh]

    SAPT Results 
  --------------------------------------------------------------------------------------------------------
    Electrostatics                 -6.47916031 [mEh]      -4.06573448 [kcal/mol]     -17.01103304 [kJ/mol]
      Elst10,r                     -7.28987159 [mEh]      -4.57446349 [kcal/mol]     -19.13955523 [kJ/mol]
      Elst12,r                      0.81071128 [mEh]       0.50872901 [kcal/mol]       2.12852218 [kJ/mol]

    Exchange                        9.44421475 [mEh]       5.92633423 [kcal/mol]      24.79578242 [kJ/mol]
      Exch10                        9.03042378 [mEh]       5.66667648 [kcal/mol]      23.70937437 [kJ/mol]
      Exch10(S^2)                   8.96655125 [mEh]       5.62659586 [kcal/mol]      23.54167706 [kJ/mol]
      Exch11(S^2)                   0.29147997 [mEh]       0.18290644 [kcal/mol]       0.76528056 [kJ/mol]
      Exch12(S^2)                   0.12231100 [mEh]       0.07675131 [kcal/mol]       0.32112749 [kJ/mol]

    Induction                      -2.52610009 [mEh]      -1.58515174 [kcal/mol]      -6.63227488 [kJ/mol]
      Ind20,r                      -4.50516593 [mEh]      -2.82703430 [kcal/mol]     -11.82831152 [kJ/mol]
      Ind22                         0.03034635 [mEh]       0.01904262 [kcal/mol]       0.07967434 [kJ/mol]
      Exch-Ind20,r                  3.07214852 [mEh]       1.92780230 [kcal/mol]       8.06592482 [kJ/mol]
      Exch-Ind22                   -0.02069369 [mEh]      -0.01298549 [kcal/mol]      -0.05433128 [kJ/mol]
      delta HF,r (2)               -1.10273534 [mEh]      -0.69197688 [kcal/mol]      -2.89523125 [kJ/mol]

    Dispersion                     -3.57199905 [mEh]      -2.24146325 [kcal/mol]      -9.37828222 [kJ/mol]
      Disp20                       -4.05898819 [mEh]      -2.54705354 [kcal/mol]     -10.65687203 [kJ/mol]
      Disp21                        0.23209505 [mEh]       0.14564184 [kcal/mol]       0.60936547 [kJ/mol]
      Disp22 (SDQ)                  0.18479150 [mEh]       0.11595842 [kcal/mol]       0.48517002 [kJ/mol]
      Disp22 (T)                   -0.54356694 [mEh]      -0.34109340 [kcal/mol]      -1.42713481 [kJ/mol]
      Est. Disp22 (T)              -0.61302962 [mEh]      -0.38468189 [kcal/mol]      -1.60950904 [kJ/mol]
      Exch-Disp20                   0.68313220 [mEh]       0.42867193 [kcal/mol]       1.79356336 [kJ/mol]

  Total HF                         -0.79520057 [mEh]      -0.49899589 [kcal/mol]      -2.08779880 [kJ/mol]
  Total SAPT0                      -4.17105656 [mEh]      -2.61737750 [kcal/mol]     -10.95110748 [kJ/mol]
  Total SAPT2                      -2.93690163 [mEh]      -1.84293360 [kcal/mol]      -7.71083418 [kJ/mol]
  Total SAPT2+                     -3.13304470 [mEh]      -1.96601523 [kcal/mol]      -8.22580773 [kJ/mol]

  Special recipe for scaled SAPT0 (see Manual):
    Electrostatics sSAPT0          -7.28987159 [mEh]      -4.57446349 [kcal/mol]     -19.13955523 [kJ/mol]
    Exchange sSAPT0                 9.03042378 [mEh]       5.66667648 [kcal/mol]      23.70937437 [kJ/mol]
    Induction sSAPT0               -2.46963134 [mEh]      -1.54971706 [kcal/mol]      -6.48401619 [kJ/mol]
    Dispersion sSAPT0              -3.36115303 [mEh]      -2.10915537 [kcal/mol]      -8.82470607 [kJ/mol]
  Total sSAPT0                     -4.09023218 [mEh]      -2.56665944 [kcal/mol]     -10.73890311 [kJ/mol]
  --------------------------------------------------------------------------------------------------------

*** tstop() called on node50.bme.utexas.edu at Fri Apr 24 00:50:39 2020
Module time:
	user time   =      33.06 seconds =       0.55 minutes
	system time =       1.80 seconds =       0.03 minutes
	total time  =          4 seconds =       0.07 minutes
Total time:
	user time   =      66.28 seconds =       1.10 minutes
	system time =       2.98 seconds =       0.05 minutes
	total time  =         10 seconds =       0.17 minutes

    Psi4 stopped on: Friday, 24 April 2020 12:50AM
    Psi4 wall time for execution: 0:00:10.61

*** Psi4 exiting successfully. Buy a developer a beer!
