
    -----------------------------------------------------------------------
          Psi4: An Open-Source Ab Initio Electronic Structure Package
                               Psi4 1.4a2.dev224 

                         Git: Rev {master} e453b16 


    R. M. Parrish, L. A. Burns, D. G. A. Smith, A. C. Simmonett,
    A. E. DePrince III, E. G. Hohenstein, U. Bozkaya, A. Yu. Sokolov,
    R. Di Remigio, R. M. Richard, J. F. Gonthier, A. M. James,
    H. R. McAlexander, A. Kumar, M. Saitow, X. Wang, B. P. Pritchard,
    P. Verma, H. F. Schaefer III, K. Patkowski, R. A. King, E. F. Valeev,
    F. A. Evangelista, J. M. Turney, T. D. Crawford, and C. D. Sherrill,
    J. Chem. Theory Comput. 13(7) pp 3185--3197 (2017).
    (doi: 10.1021/acs.jctc.7b00174)


                         Additional Contributions by
    P. Kraus, H. Kruse, M. H. Lechner, M. C. Schieber, R. A. Shaw,
    A. Alenaizan, R. Galvelis, Z. L. Glick, S. Lehtola, and J. P. Misiewicz

    -----------------------------------------------------------------------


    Psi4 started on: Friday, 24 April 2020 12:49AM

    Process ID: 59723
    Host:       node47.bme.utexas.edu
    PSIDATADIR: /home/liuchw/anaconda3/envs/psi4env/share/psi4
    Memory:     500.0 MiB
    Threads:    8
    
  ==> Input File <==

--------------------------------------------------------------------------
#Generated by lconvert.py for sapt job

memory 20 GB

molecule  {
0 1
  O       1.584940    0.104690    0.000010
  H       1.949370   -0.781150    0.000050
  H       0.626500   -0.040430   -0.000320
--
0 1
  N      -1.207410   -0.027140   -0.000050
  H      -1.678720   -0.381490    0.821890
  H      -1.398610    0.966300   -0.025930
  H      -1.688500   -0.425550   -0.795710
units angstrom
no_reorient
symmetry c1
}

set {
scf_type DF
basis aug-cc-pvdz
freeze_core True
guess SAD
}
energy('sapt2+')
--------------------------------------------------------------------------

  Memory set to  18.626 GiB by Python driver.

Scratch directory: /scratch/liuchw/

  //>>>>>>>>>>>>>>>>>>>>>>>>>>>>>>>>>>>//
  //              Dimer HF             //
  //<<<<<<<<<<<<<<<<<<<<<<<<<<<<<<<<<<<//


*** tstart() called on node47.bme.utexas.edu
*** at Fri Apr 24 00:49:54 2020

   => Loading Basis Set <=

    Name: AUG-CC-PVDZ
    Role: ORBITAL
    Keyword: BASIS
    atoms 1        entry O          line   254 file /home/liuchw/anaconda3/envs/psi4env/share/psi4/basis/aug-cc-pvdz.gbs 
    atoms 2-3, 5-7 entry H          line    40 file /home/liuchw/anaconda3/envs/psi4env/share/psi4/basis/aug-cc-pvdz.gbs 
    atoms 4        entry N          line   218 file /home/liuchw/anaconda3/envs/psi4env/share/psi4/basis/aug-cc-pvdz.gbs 


         ---------------------------------------------------------
                                   SCF
               by Justin Turney, Rob Parrish, Andy Simmonett
                          and Daniel G. A. Smith
                              RHF Reference
                        8 Threads,  19073 MiB Core
         ---------------------------------------------------------

  ==> Geometry <==

    Molecular point group: c1
    Full point group: C1

    Geometry (in Angstrom), charge = 0, multiplicity = 1:

       Center              X                  Y                   Z               Mass       
    ------------   -----------------  -----------------  -----------------  -----------------
         O            1.406944976662     0.086795788977     0.000025993357    15.994914619570
         H            1.771374976662    -0.799044211023     0.000065993357     1.007825032230
         H            0.448504976662    -0.058324211023    -0.000304006643     1.007825032230
         N           -1.385405023338    -0.045034211023    -0.000034006643    14.003074004430
         H           -1.856715023338    -0.399384211023     0.821905993357     1.007825032230
         H           -1.576605023338     0.948405788977    -0.025914006643     1.007825032230
         H           -1.866495023338    -0.443444211023    -0.795694006643     1.007825032230

  Running in c1 symmetry.

  Rotational constants: A =      5.03128  B =      0.23174  C =      0.22949 [cm^-1]
  Rotational constants: A = 150833.97508  B =   6947.35901  C =   6880.07408 [MHz]
  Nuclear repulsion =   39.797590495539751

  Charge       = 0
  Multiplicity = 1
  Electrons    = 20
  Nalpha       = 10
  Nbeta        = 10

  ==> Algorithm <==

  SCF Algorithm Type is DF.
  DIIS enabled.
  MOM disabled.
  Fractional occupation disabled.
  Guess Type is SAD.
  Energy threshold   = 1.00e-08
  Density threshold  = 1.00e-08
  Integral threshold = 0.00e+00

  ==> Primary Basis <==

  Basis Set: AUG-CC-PVDZ
    Blend: AUG-CC-PVDZ
    Number of shells: 43
    Number of basis function: 91
    Number of Cartesian functions: 95
    Spherical Harmonics?: true
    Max angular momentum: 2

   => Loading Basis Set <=

    Name: (AUG-CC-PVDZ AUX)
    Role: JKFIT
    Keyword: DF_BASIS_SCF
    atoms 1        entry O          line   270 file /home/liuchw/anaconda3/envs/psi4env/share/psi4/basis/aug-cc-pvdz-jkfit.gbs 
    atoms 2-3, 5-7 entry H          line    70 file /home/liuchw/anaconda3/envs/psi4env/share/psi4/basis/aug-cc-pvdz-jkfit.gbs 
    atoms 4        entry N          line   212 file /home/liuchw/anaconda3/envs/psi4env/share/psi4/basis/aug-cc-pvdz-jkfit.gbs 

  ==> Pre-Iterations <==

   -------------------------------------------------------
    Irrep   Nso     Nmo     Nalpha   Nbeta   Ndocc  Nsocc
   -------------------------------------------------------
     A         91      91       0       0       0       0
   -------------------------------------------------------
    Total      91      91      10      10      10       0
   -------------------------------------------------------

  ==> Integral Setup <==

  ==> DiskDFJK: Density-Fitted J/K Matrices <==

    J tasked:                  Yes
    K tasked:                  Yes
    wK tasked:                  No
    OpenMP threads:              8
    Integrals threads:           8
    Memory [MiB]:            14305
    Algorithm:                Core
    Integral Cache:           SAVE
    Schwarz Cutoff:          1E-12
    Fitting Condition:       1E-10

   => Auxiliary Basis Set <=

  Basis Set: (AUG-CC-PVDZ AUX)
    Blend: AUG-CC-PVDZ-JKFIT
    Number of shells: 116
    Number of basis function: 332
    Number of Cartesian functions: 377
    Spherical Harmonics?: true
    Max angular momentum: 3

  Minimum eigenvalue in the overlap matrix is 1.0406970216E-03.
  Using Symmetric Orthogonalization.

  SCF Guess: Superposition of Atomic Densities via on-the-fly atomic UHF.

  ==> Iterations <==

                           Total Energy        Delta E     RMS |[F,P]|

   @DF-RHF iter SAD:  -131.24258588690552   -1.31243e+02   0.00000e+00 
   @DF-RHF iter   1:  -132.08528205694961   -8.42696e-01   6.76354e-03 DIIS
   @DF-RHF iter   2:  -132.20211594792420   -1.16834e-01   3.99831e-03 DIIS
   @DF-RHF iter   3:  -132.25121353354876   -4.90976e-02   3.92207e-04 DIIS
   @DF-RHF iter   4:  -132.25225892475731   -1.04539e-03   1.49796e-04 DIIS
   @DF-RHF iter   5:  -132.25236560988222   -1.06685e-04   3.78979e-05 DIIS
   @DF-RHF iter   6:  -132.25237612154592   -1.05117e-05   7.33820e-06 DIIS
   @DF-RHF iter   7:  -132.25237686595270   -7.44407e-07   1.62542e-06 DIIS
   @DF-RHF iter   8:  -132.25237690176041   -3.58077e-08   2.89197e-07 DIIS
   @DF-RHF iter   9:  -132.25237690281483   -1.05442e-09   5.57660e-08 DIIS
   @DF-RHF iter  10:  -132.25237690285039   -3.55556e-11   1.67656e-08 DIIS
   @DF-RHF iter  11:  -132.25237690285365   -3.26850e-12   3.18310e-09 DIIS
  Energy and wave function converged.


  ==> Post-Iterations <==

    Orbital Energies [Eh]
    ---------------------

    Doubly Occupied:                                                      

       1A    -20.527245     2A    -15.577159     3A     -1.309922  
       4A     -1.175025     5A     -0.680722     6A     -0.655655  
       7A     -0.652709     8A     -0.551544     9A     -0.463910  
      10A     -0.456571  

    Virtual:                                                              

      11A      0.027342    12A      0.053888    13A      0.055736  
      14A      0.061971    15A      0.094976    16A      0.166516  
      17A      0.183577    18A      0.192435    19A      0.201181  
      20A      0.226503    21A      0.229006    22A      0.245793  
      23A      0.275684    24A      0.284791    25A      0.290033  
      26A      0.334665    27A      0.338989    28A      0.389664  
      29A      0.424271    30A      0.437148    31A      0.469202  
      32A      0.491951    33A      0.514345    34A      0.528847  
      35A      0.533795    36A      0.545462    37A      0.551379  
      38A      0.613447    39A      0.624939    40A      0.659973  
      41A      0.681625    42A      0.693325    43A      0.738189  
      44A      0.768766    45A      0.818265    46A      0.903703  
      47A      0.932972    48A      0.945311    49A      1.001366  
      50A      1.074186    51A      1.144277    52A      1.192243  
      53A      1.202188    54A      1.232663    55A      1.249891  
      56A      1.265375    57A      1.429684    58A      1.535531  
      59A      1.620695    60A      1.648926    61A      1.803322  
      62A      1.827522    63A      1.927554    64A      1.972055  
      65A      1.987527    66A      2.029890    67A      2.095800  
      68A      2.098874    69A      2.141165    70A      2.255432  
      71A      2.362017    72A      2.379039    73A      2.386487  
      74A      2.419470    75A      2.435484    76A      2.549465  
      77A      2.613455    78A      2.768875    79A      2.793856  
      80A      2.870164    81A      2.884297    82A      2.995763  
      83A      3.054792    84A      3.138931    85A      3.539011  
      86A      3.550008    87A      3.723253    88A      3.772156  
      89A      3.793595    90A      4.184834    91A      4.434758  

    Final Occupation by Irrep:
              A 
    DOCC [    10 ]

  @DF-RHF Final Energy:  -132.25237690285365

   => Energetics <=

    Nuclear Repulsion Energy =             39.7975904955397510
    One-Electron Energy =                -259.9990105113640197
    Two-Electron Energy =                  87.9490431129706280
    Total Energy =                       -132.2523769028536549

Computation Completed


Properties will be evaluated at   0.000000,   0.000000,   0.000000 [a0]

Properties computed using the SCF density matrix

  Nuclear Dipole Moment: [e a0]
     X:    -2.8766      Y:    -0.7042      Z:     0.0001

  Electronic Dipole Moment: [e a0]
     X:     1.5039      Y:     0.1648      Z:    -0.0000

  Dipole Moment: [e a0]
     X:    -1.3727      Y:    -0.5394      Z:     0.0001     Total:     1.4749

  Dipole Moment: [D]
     X:    -3.4890      Y:    -1.3711      Z:     0.0001     Total:     3.7488


*** tstop() called on node47.bme.utexas.edu at Fri Apr 24 00:49:57 2020
Module time:
	user time   =      11.80 seconds =       0.20 minutes
	system time =       0.42 seconds =       0.01 minutes
	total time  =          3 seconds =       0.05 minutes
Total time:
	user time   =      11.80 seconds =       0.20 minutes
	system time =       0.42 seconds =       0.01 minutes
	total time  =          3 seconds =       0.05 minutes

  //>>>>>>>>>>>>>>>>>>>>>>>>>>>>>>>>>>>//
  //            Monomer A HF           //
  //<<<<<<<<<<<<<<<<<<<<<<<<<<<<<<<<<<<//


*** tstart() called on node47.bme.utexas.edu
*** at Fri Apr 24 00:49:57 2020

   => Loading Basis Set <=

    Name: AUG-CC-PVDZ
    Role: ORBITAL
    Keyword: BASIS
    atoms 1        entry O          line   254 file /home/liuchw/anaconda3/envs/psi4env/share/psi4/basis/aug-cc-pvdz.gbs 
    atoms 2-3, 5-7 entry H          line    40 file /home/liuchw/anaconda3/envs/psi4env/share/psi4/basis/aug-cc-pvdz.gbs 
    atoms 4        entry N          line   218 file /home/liuchw/anaconda3/envs/psi4env/share/psi4/basis/aug-cc-pvdz.gbs 


         ---------------------------------------------------------
                                   SCF
               by Justin Turney, Rob Parrish, Andy Simmonett
                          and Daniel G. A. Smith
                              RHF Reference
                        8 Threads,  19073 MiB Core
         ---------------------------------------------------------

  ==> Geometry <==

    Molecular point group: c1
    Full point group: C1

    Geometry (in Angstrom), charge = 0, multiplicity = 1:

       Center              X                  Y                   Z               Mass       
    ------------   -----------------  -----------------  -----------------  -----------------
         O            1.406944976662     0.086795788977     0.000025993357    15.994914619570
         H            1.771374976662    -0.799044211023     0.000065993357     1.007825032230
         H            0.448504976662    -0.058324211023    -0.000304006643     1.007825032230
      Gh(N)          -1.385405023338    -0.045034211023    -0.000034006643    14.003074004430
      Gh(H)          -1.856715023338    -0.399384211023     0.821905993357     1.007825032230
      Gh(H)          -1.576605023338     0.948405788977    -0.025914006643     1.007825032230
      Gh(H)          -1.866495023338    -0.443444211023    -0.795694006643     1.007825032230

  Running in c1 symmetry.

  Rotational constants: A =      5.03128  B =      0.23174  C =      0.22949 [cm^-1]
  Rotational constants: A = 150833.97508  B =   6947.35901  C =   6880.07408 [MHz]
  Nuclear repulsion =    9.135841418674783

  Charge       = 0
  Multiplicity = 1
  Electrons    = 10
  Nalpha       = 5
  Nbeta        = 5

  ==> Algorithm <==

  SCF Algorithm Type is DF.
  DIIS enabled.
  MOM disabled.
  Fractional occupation disabled.
  Guess Type is SAD.
  Energy threshold   = 1.00e-08
  Density threshold  = 1.00e-08
  Integral threshold = 0.00e+00

  ==> Primary Basis <==

  Basis Set: AUG-CC-PVDZ
    Blend: AUG-CC-PVDZ
    Number of shells: 43
    Number of basis function: 91
    Number of Cartesian functions: 95
    Spherical Harmonics?: true
    Max angular momentum: 2

   => Loading Basis Set <=

    Name: (AUG-CC-PVDZ AUX)
    Role: JKFIT
    Keyword: DF_BASIS_SCF
    atoms 1        entry O          line   270 file /home/liuchw/anaconda3/envs/psi4env/share/psi4/basis/aug-cc-pvdz-jkfit.gbs 
    atoms 2-3, 5-7 entry H          line    70 file /home/liuchw/anaconda3/envs/psi4env/share/psi4/basis/aug-cc-pvdz-jkfit.gbs 
    atoms 4        entry N          line   212 file /home/liuchw/anaconda3/envs/psi4env/share/psi4/basis/aug-cc-pvdz-jkfit.gbs 

  ==> Pre-Iterations <==

   -------------------------------------------------------
    Irrep   Nso     Nmo     Nalpha   Nbeta   Ndocc  Nsocc
   -------------------------------------------------------
     A         91      91       0       0       0       0
   -------------------------------------------------------
    Total      91      91       5       5       5       0
   -------------------------------------------------------

  ==> Integral Setup <==

  ==> DiskDFJK: Density-Fitted J/K Matrices <==

    J tasked:                  Yes
    K tasked:                  Yes
    wK tasked:                  No
    OpenMP threads:              8
    Integrals threads:           8
    Memory [MiB]:            14305
    Algorithm:                Core
    Integral Cache:           LOAD
    Schwarz Cutoff:          1E-12
    Fitting Condition:       1E-10

   => Auxiliary Basis Set <=

  Basis Set: (AUG-CC-PVDZ AUX)
    Blend: AUG-CC-PVDZ-JKFIT
    Number of shells: 116
    Number of basis function: 332
    Number of Cartesian functions: 377
    Spherical Harmonics?: true
    Max angular momentum: 3

  Minimum eigenvalue in the overlap matrix is 1.0406970216E-03.
  Using Symmetric Orthogonalization.

  SCF Guess: Superposition of Atomic Densities via on-the-fly atomic UHF.

  ==> Iterations <==

                           Total Energy        Delta E     RMS |[F,P]|

   @DF-RHF iter SAD:   -75.45938538174740   -7.54594e+01   0.00000e+00 
   @DF-RHF iter   1:   -75.95649069328384   -4.97105e-01   4.98112e-03 DIIS
   @DF-RHF iter   2:   -76.00960165475449   -5.31110e-02   3.27418e-03 DIIS
   @DF-RHF iter   3:   -76.04060761492900   -3.10060e-02   2.34265e-04 DIIS
   @DF-RHF iter   4:   -76.04099018126149   -3.82566e-04   5.31924e-05 DIIS
   @DF-RHF iter   5:   -76.04101240285452   -2.22216e-05   1.21151e-05 DIIS
   @DF-RHF iter   6:   -76.04101418710124   -1.78425e-06   2.43760e-06 DIIS
   @DF-RHF iter   7:   -76.04101426315655   -7.60553e-08   4.02917e-07 DIIS
   @DF-RHF iter   8:   -76.04101426507000   -1.91345e-09   6.33468e-08 DIIS
   @DF-RHF iter   9:   -76.04101426511168   -4.16804e-11   1.64716e-08 DIIS
   @DF-RHF iter  10:   -76.04101426511427   -2.58638e-12   2.28103e-09 DIIS
  Energy and wave function converged.


  ==> Post-Iterations <==

    Orbital Energies [Eh]
    ---------------------

    Doubly Occupied:                                                      

       1A    -20.578577     2A     -1.353939     3A     -0.714289  
       4A     -0.585816     5A     -0.509064  

    Virtual:                                                              

       6A      0.023859     7A      0.050052     8A      0.056504  
       9A      0.061298    10A      0.086111    11A      0.127043  
      12A      0.163686    13A      0.172741    14A      0.182745  
      15A      0.214432    16A      0.217120    17A      0.226237  
      18A      0.271853    19A      0.317993    20A      0.345482  
      21A      0.352924    22A      0.353535    23A      0.379334  
      24A      0.397268    25A      0.418013    26A      0.419336  
      27A      0.455926    28A      0.465082    29A      0.496485  
      30A      0.510831    31A      0.555489    32A      0.562864  
      33A      0.566673    34A      0.636374    35A      0.671513  
      36A      0.680432    37A      0.729373    38A      0.778159  
      39A      0.880628    40A      0.925851    41A      0.960854  
      42A      0.979007    43A      0.996615    44A      1.039231  
      45A      1.040986    46A      1.060327    47A      1.068159  
      48A      1.114631    49A      1.117006    50A      1.187164  
      51A      1.202003    52A      1.239251    53A      1.455122  
      54A      1.508708    55A      1.613655    56A      1.801034  
      57A      1.994353    58A      2.015836    59A      2.016819  
      60A      2.053471    61A      2.074224    62A      2.226249  
      63A      2.324470    64A      2.367676    65A      2.437958  
      66A      2.469443    67A      2.500558    68A      2.577651  
      69A      2.597953    70A      2.674914    71A      2.754069  
      72A      2.871424    73A      3.007172    74A      3.155512  
      75A      3.184095    76A      3.194485    77A      3.638756  
      78A      3.680427    79A      3.687482    80A      3.695023  
      81A      3.734225    82A      3.752731    83A      3.823252  
      84A      4.143763    85A      4.170330    86A      4.197467  
      87A      4.406640    88A      5.351423    89A      6.034989  
      90A      6.041658    91A     25.420467  

    Final Occupation by Irrep:
              A 
    DOCC [     5 ]

  @DF-RHF Final Energy:   -76.04101426511427

   => Energetics <=

    Nuclear Repulsion Energy =              9.1358414186747829
    One-Electron Energy =                -122.8703426428492236
    Two-Electron Energy =                  37.6934869590601593
    Total Energy =                        -76.0410142651142849

Computation Completed


Properties will be evaluated at   0.000000,   0.000000,   0.000000 [a0]

Properties computed using the SCF density matrix

  Nuclear Dipole Moment: [e a0]
     X:    25.4649      Y:    -0.3080      Z:    -0.0001

  Electronic Dipole Moment: [e a0]
     X:   -25.8590      Y:    -0.3803      Z:    -0.0001

  Dipole Moment: [e a0]
     X:    -0.3941      Y:    -0.6884      Z:    -0.0002     Total:     0.7932

  Dipole Moment: [D]
     X:    -1.0016      Y:    -1.7497      Z:    -0.0005     Total:     2.0161


*** tstop() called on node47.bme.utexas.edu at Fri Apr 24 00:49:58 2020
Module time:
	user time   =       8.13 seconds =       0.14 minutes
	system time =       0.29 seconds =       0.00 minutes
	total time  =          1 seconds =       0.02 minutes
Total time:
	user time   =      20.05 seconds =       0.33 minutes
	system time =       0.71 seconds =       0.01 minutes
	total time  =          4 seconds =       0.07 minutes

  //>>>>>>>>>>>>>>>>>>>>>>>>>>>>>>>>>>>//
  //            Monomer B HF           //
  //<<<<<<<<<<<<<<<<<<<<<<<<<<<<<<<<<<<//


*** tstart() called on node47.bme.utexas.edu
*** at Fri Apr 24 00:49:58 2020

   => Loading Basis Set <=

    Name: AUG-CC-PVDZ
    Role: ORBITAL
    Keyword: BASIS
    atoms 1        entry O          line   254 file /home/liuchw/anaconda3/envs/psi4env/share/psi4/basis/aug-cc-pvdz.gbs 
    atoms 2-3, 5-7 entry H          line    40 file /home/liuchw/anaconda3/envs/psi4env/share/psi4/basis/aug-cc-pvdz.gbs 
    atoms 4        entry N          line   218 file /home/liuchw/anaconda3/envs/psi4env/share/psi4/basis/aug-cc-pvdz.gbs 


         ---------------------------------------------------------
                                   SCF
               by Justin Turney, Rob Parrish, Andy Simmonett
                          and Daniel G. A. Smith
                              RHF Reference
                        8 Threads,  19073 MiB Core
         ---------------------------------------------------------

  ==> Geometry <==

    Molecular point group: c1
    Full point group: C1

    Geometry (in Angstrom), charge = 0, multiplicity = 1:

       Center              X                  Y                   Z               Mass       
    ------------   -----------------  -----------------  -----------------  -----------------
      Gh(O)           1.406944976662     0.086795788977     0.000025993357    15.994914619570
      Gh(H)           1.771374976662    -0.799044211023     0.000065993357     1.007825032230
      Gh(H)           0.448504976662    -0.058324211023    -0.000304006643     1.007825032230
         N           -1.385405023338    -0.045034211023    -0.000034006643    14.003074004430
         H           -1.856715023338    -0.399384211023     0.821905993357     1.007825032230
         H           -1.576605023338     0.948405788977    -0.025914006643     1.007825032230
         H           -1.866495023338    -0.443444211023    -0.795694006643     1.007825032230

  Running in c1 symmetry.

  Rotational constants: A =      5.03128  B =      0.23174  C =      0.22949 [cm^-1]
  Rotational constants: A = 150833.97508  B =   6947.35901  C =   6880.07408 [MHz]
  Nuclear repulsion =   11.965708787885932

  Charge       = 0
  Multiplicity = 1
  Electrons    = 10
  Nalpha       = 5
  Nbeta        = 5

  ==> Algorithm <==

  SCF Algorithm Type is DF.
  DIIS enabled.
  MOM disabled.
  Fractional occupation disabled.
  Guess Type is SAD.
  Energy threshold   = 1.00e-08
  Density threshold  = 1.00e-08
  Integral threshold = 0.00e+00

  ==> Primary Basis <==

  Basis Set: AUG-CC-PVDZ
    Blend: AUG-CC-PVDZ
    Number of shells: 43
    Number of basis function: 91
    Number of Cartesian functions: 95
    Spherical Harmonics?: true
    Max angular momentum: 2

   => Loading Basis Set <=

    Name: (AUG-CC-PVDZ AUX)
    Role: JKFIT
    Keyword: DF_BASIS_SCF
    atoms 1        entry O          line   270 file /home/liuchw/anaconda3/envs/psi4env/share/psi4/basis/aug-cc-pvdz-jkfit.gbs 
    atoms 2-3, 5-7 entry H          line    70 file /home/liuchw/anaconda3/envs/psi4env/share/psi4/basis/aug-cc-pvdz-jkfit.gbs 
    atoms 4        entry N          line   212 file /home/liuchw/anaconda3/envs/psi4env/share/psi4/basis/aug-cc-pvdz-jkfit.gbs 

  ==> Pre-Iterations <==

   -------------------------------------------------------
    Irrep   Nso     Nmo     Nalpha   Nbeta   Ndocc  Nsocc
   -------------------------------------------------------
     A         91      91       0       0       0       0
   -------------------------------------------------------
    Total      91      91       5       5       5       0
   -------------------------------------------------------

  ==> Integral Setup <==

  ==> DiskDFJK: Density-Fitted J/K Matrices <==

    J tasked:                  Yes
    K tasked:                  Yes
    wK tasked:                  No
    OpenMP threads:              8
    Integrals threads:           8
    Memory [MiB]:            14305
    Algorithm:                Core
    Integral Cache:           LOAD
    Schwarz Cutoff:          1E-12
    Fitting Condition:       1E-10

   => Auxiliary Basis Set <=

  Basis Set: (AUG-CC-PVDZ AUX)
    Blend: AUG-CC-PVDZ-JKFIT
    Number of shells: 116
    Number of basis function: 332
    Number of Cartesian functions: 377
    Spherical Harmonics?: true
    Max angular momentum: 3

  Minimum eigenvalue in the overlap matrix is 1.0406970216E-03.
  Using Symmetric Orthogonalization.

  SCF Guess: Superposition of Atomic Densities via on-the-fly atomic UHF.

  ==> Iterations <==

                           Total Energy        Delta E     RMS |[F,P]|

   @DF-RHF iter SAD:   -55.63910806536158   -5.56391e+01   0.00000e+00 
   @DF-RHF iter   1:   -56.10856095739003   -4.69453e-01   4.98841e-03 DIIS
   @DF-RHF iter   2:   -56.17805446524227   -6.94935e-02   2.79493e-03 DIIS
   @DF-RHF iter   3:   -56.20529787467040   -2.72434e-02   2.64151e-04 DIIS
   @DF-RHF iter   4:   -56.20591070030819   -6.12826e-04   4.65620e-05 DIIS
   @DF-RHF iter   5:   -56.20592913078136   -1.84305e-05   8.74107e-06 DIIS
   @DF-RHF iter   6:   -56.20593018549767   -1.05472e-06   1.83747e-06 DIIS
   @DF-RHF iter   7:   -56.20593023785743   -5.23598e-08   3.45669e-07 DIIS
   @DF-RHF iter   8:   -56.20593023986190   -2.00447e-09   5.39369e-08 DIIS
   @DF-RHF iter   9:   -56.20593023990872   -4.68248e-11   1.36248e-08 DIIS
   @DF-RHF iter  10:   -56.20593023991165   -2.92744e-12   2.64038e-09 DIIS
  Energy and wave function converged.


  ==> Post-Iterations <==

    Orbital Energies [Eh]
    ---------------------

    Doubly Occupied:                                                      

       1A    -15.551856     2A     -1.145600     3A     -0.628309  
       4A     -0.627618     5A     -0.430534  

    Virtual:                                                              

       6A      0.033302     7A      0.056770     8A      0.059025  
       9A      0.059107    10A      0.089541    11A      0.169313  
      12A      0.169808    13A      0.177226    14A      0.195179  
      15A      0.203494    16A      0.214265    17A      0.227355  
      18A      0.246897    19A      0.297010    20A      0.299765  
      21A      0.353711    22A      0.362158    23A      0.419789  
      24A      0.432036    25A      0.459926    26A      0.474230  
      27A      0.494977    28A      0.527887    29A      0.540055  
      30A      0.546848    31A      0.548327    32A      0.565105  
      33A      0.570261    34A      0.623244    35A      0.666358  
      36A      0.673162    37A      0.701769    38A      0.732666  
      39A      0.741728    40A      0.859596    41A      0.929303  
      42A      0.943735    43A      0.990549    44A      0.993400  
      45A      1.006254    46A      1.171505    47A      1.198413  
      48A      1.241091    49A      1.258971    50A      1.295623  
      51A      1.308235    52A      1.355264    53A      1.455289  
      54A      1.485283    55A      1.584222    56A      1.678588  
      57A      1.831517    58A      1.853843    59A      1.950471  
      60A      2.061613    61A      2.069064    62A      2.145321  
      63A      2.235691    64A      2.347106    65A      2.402133  
      66A      2.416668    67A      2.423845    68A      2.432785  
      69A      2.445141    70A      2.471845    71A      2.634013  
      72A      2.754929    73A      2.832482    74A      2.859400  
      75A      2.912417    76A      2.962475    77A      3.140147  
      78A      3.525409    79A      3.578770    80A      3.591447  
      81A      3.975269    82A      4.105781    83A      4.925523  
      84A      4.975207    85A      5.028524    86A      5.239437  
      87A      5.521786    88A      5.750951    89A      6.733899  
      90A      7.150074    91A     33.597603  

    Final Occupation by Irrep:
              A 
    DOCC [     5 ]

  @DF-RHF Final Energy:   -56.20593023991165

   => Energetics <=

    Nuclear Repulsion Energy =             11.9657087878859318
    One-Electron Energy =                 -99.5754439699760781
    Two-Electron Energy =                  31.4038049421784997
    Total Energy =                        -56.2059302399116518

Computation Completed


Properties will be evaluated at   0.000000,   0.000000,   0.000000 [a0]

Properties computed using the SCF density matrix

  Nuclear Dipole Moment: [e a0]
     X:   -28.3415      Y:    -0.3962      Z:     0.0001

  Electronic Dipole Moment: [e a0]
     X:    27.7079      Y:     0.5293      Z:     0.0001

  Dipole Moment: [e a0]
     X:    -0.6336      Y:     0.1331      Z:     0.0002     Total:     0.6474

  Dipole Moment: [D]
     X:    -1.6104      Y:     0.3383      Z:     0.0006     Total:     1.6456


*** tstop() called on node47.bme.utexas.edu at Fri Apr 24 00:50:00 2020
Module time:
	user time   =       7.59 seconds =       0.13 minutes
	system time =       0.28 seconds =       0.00 minutes
	total time  =          2 seconds =       0.03 minutes
Total time:
	user time   =      27.76 seconds =       0.46 minutes
	system time =       1.00 seconds =       0.02 minutes
	total time  =          6 seconds =       0.10 minutes
  Constructing Basis Sets for SAPT...

   => Loading Basis Set <=

    Name: (AUG-CC-PVDZ AUX)
    Role: RIFIT
    Keyword: DF_BASIS_SAPT
    atoms 1        entry O          line   204 file /home/liuchw/anaconda3/envs/psi4env/share/psi4/basis/aug-cc-pvdz-ri.gbs 
    atoms 2-3, 5-7 entry H          line    30 file /home/liuchw/anaconda3/envs/psi4env/share/psi4/basis/aug-cc-pvdz-ri.gbs 
    atoms 4        entry N          line   158 file /home/liuchw/anaconda3/envs/psi4env/share/psi4/basis/aug-cc-pvdz-ri.gbs 


  //>>>>>>>>>>>>>>>>>>>>>>>>>>>>>>>>>>>//
  //               SAPT2+              //
  //<<<<<<<<<<<<<<<<<<<<<<<<<<<<<<<<<<<//


*** tstart() called on node47.bme.utexas.edu
*** at Fri Apr 24 00:50:00 2020

        SAPT2+  
    Ed Hohenstein
     6 June 2009

      Orbital Information
  --------------------------
    NSO        =        91
    NMO        =        91
    NRI        =       259
    NOCC A     =         5
    NOCC B     =         5
    FOCC A     =         1
    FOCC B     =         1
    NVIR A     =        86
    NVIR B     =        86

    Estimated memory usage: 19.8 MB

    Natural Orbital Cutoff:   1.000E-06
    Disp(T3) Truncation:            Yes
    CCD (vv|vv) Truncation:         Yes
    MBPT T2 Truncation:             Yes

    Monomer A: 48 virtual orbitals dropped
    Monomer B: 39 virtual orbitals dropped

    Elst10,r            =    -0.023704798328 [Eh]
    Exch10 (S^2)        =     0.026366838140 [Eh]
    Exch10              =     0.026844111153 [Eh]
    Ind20,r (A<-B)      =    -0.002606484886 [Eh]
    Ind20,r (B<-A)      =    -0.009571070541 [Eh]
    Ind20,r             =    -0.012177555427 [Eh]
    Exch-Ind20,r (A<-B) =     0.001461229835 [Eh]
    Exch-Ind20,r (B<-A) =     0.005841635936 [Eh]
    Exch-Ind20,r        =     0.007302865772 [Eh]
    Disp20              =    -0.006725741756 [Eh]
    Disp20 (NO)         =    -0.005925900355 [Eh]
    Exch-Disp20         =     0.001546331342 [Eh]
    Elst12,r            =    -0.000140278932 [Eh]
    Exch11              =     0.000353026466 [Eh]
    Exch12              =     0.002820917143 [Eh]
    Ind22               =    -0.001502532691 [Eh]
    Disp21              =     0.000308097481 [Eh]
    Disp22 (SDQ)        =    -0.000146851614 [Eh]

    (i =   1 of   4)          0 seconds
    (i =   2 of   4)          0 seconds
    (i =   3 of   4)          0 seconds
    (i =   4 of   4)          0 seconds

    Disp220 (T)         =    -0.000472282880 [Eh]

    (i =   1 of   4)          0 seconds
    (i =   2 of   4)          0 seconds
    (i =   3 of   4)          0 seconds
    (i =   4 of   4)          0 seconds

    Disp202 (T)         =    -0.000367528559 [Eh]

    Disp22 (T)          =    -0.000839811439 [Eh]

    Est. Disp220 (T)    =    -0.000536028704 [Eh]
    Est. Disp202 (T)    =    -0.000417135292 [Eh]

    Est. Disp22 (T)     =    -0.000953163996 [Eh]

    SAPT Results 
  --------------------------------------------------------------------------------------------------------
    Electrostatics                -23.84507726 [mEh]     -14.96301188 [kcal/mol]     -62.60524172 [kJ/mol]
      Elst10,r                    -23.70479833 [mEh]     -14.87498552 [kcal/mol]     -62.23693944 [kJ/mol]
      Elst12,r                     -0.14027893 [mEh]      -0.08802636 [kcal/mol]      -0.36830229 [kJ/mol]

    Exchange                       30.01805476 [mEh]      18.83661375 [kcal/mol]      78.81239192 [kJ/mol]
      Exch10                       26.84411115 [mEh]      16.84493406 [kcal/mol]      70.47920412 [kJ/mol]
      Exch10(S^2)                  26.36683814 [mEh]      16.54544073 [kcal/mol]      69.22612400 [kJ/mol]
      Exch11(S^2)                   0.35302647 [mEh]       0.22152745 [kcal/mol]       0.92687086 [kJ/mol]
      Exch12(S^2)                   2.82091714 [mEh]       1.77015223 [kcal/mol]       7.40631694 [kJ/mol]

    Induction                      -9.17317624 [mEh]      -5.75625500 [kcal/mol]     -24.08417091 [kJ/mol]
      Ind20,r                     -12.17755543 [mEh]      -7.64153140 [kcal/mol]     -31.97216737 [kJ/mol]
      Ind22                        -1.50253269 [mEh]      -0.94285350 [kcal/mol]      -3.94489904 [kJ/mol]
      Exch-Ind20,r                  7.30286577 [mEh]       4.58261746 [kcal/mol]      19.17367144 [kJ/mol]
      Exch-Ind22                    0.90106710 [mEh]       0.56542814 [kcal/mol]       2.36575135 [kJ/mol]
      delta HF,r (2)               -3.69702100 [mEh]      -2.31991570 [kcal/mol]      -9.70652729 [kJ/mol]

    Dispersion                     -5.97132854 [mEh]      -3.74706523 [kcal/mol]     -15.67772093 [kJ/mol]
      Disp20                       -6.72574176 [mEh]      -4.22046667 [kcal/mol]     -17.65843255 [kJ/mol]
      Disp21                        0.30809748 [mEh]       0.19333409 [kcal/mol]       0.80890983 [kJ/mol]
      Disp22 (SDQ)                 -0.14685161 [mEh]      -0.09215078 [kcal/mol]      -0.38555886 [kJ/mol]
      Disp22 (T)                   -0.83981144 [mEh]      -0.52698963 [kcal/mol]      -2.20492463 [kJ/mol]
      Est. Disp22 (T)              -0.95316400 [mEh]      -0.59811944 [kcal/mol]      -2.50253173 [kJ/mol]
      Exch-Disp20                   1.54633134 [mEh]       0.97033757 [kcal/mol]       4.05989238 [kJ/mol]

  Total HF                         -5.43239783 [mEh]      -3.40888110 [kcal/mol]     -14.26275853 [kJ/mol]
  Total SAPT0                     -10.61180824 [mEh]      -6.65901021 [kcal/mol]     -27.86129870 [kJ/mol]
  Total SAPT2                      -8.17960916 [mEh]      -5.13278224 [kcal/mol]     -21.47556088 [kJ/mol]
  Total SAPT2+                     -8.97152729 [mEh]      -5.62971837 [kcal/mol]     -23.55474164 [kJ/mol]

  Special recipe for scaled SAPT0 (see Manual):
    Electrostatics sSAPT0         -23.70479833 [mEh]     -14.87498552 [kcal/mol]     -62.23693944 [kJ/mol]
    Exchange sSAPT0                26.84411115 [mEh]      16.84493406 [kcal/mol]      70.47920412 [kJ/mol]
    Induction sSAPT0               -8.16791563 [mEh]      -5.12544444 [kcal/mol]     -21.44485954 [kJ/mol]
    Dispersion sSAPT0              -5.09390961 [mEh]      -3.19647654 [kcal/mol]     -13.37405784 [kJ/mol]
  Total sSAPT0                    -10.12251242 [mEh]      -6.35197244 [kcal/mol]     -26.57665269 [kJ/mol]
  --------------------------------------------------------------------------------------------------------

*** tstop() called on node47.bme.utexas.edu at Fri Apr 24 00:50:02 2020
Module time:
	user time   =      13.31 seconds =       0.22 minutes
	system time =       0.73 seconds =       0.01 minutes
	total time  =          2 seconds =       0.03 minutes
Total time:
	user time   =      41.56 seconds =       0.69 minutes
	system time =       1.76 seconds =       0.03 minutes
	total time  =          8 seconds =       0.13 minutes

    Psi4 stopped on: Friday, 24 April 2020 12:50AM
    Psi4 wall time for execution: 0:00:07.32

*** Psi4 exiting successfully. Buy a developer a beer!
