
    -----------------------------------------------------------------------
          Psi4: An Open-Source Ab Initio Electronic Structure Package
                               Psi4 1.4a2.dev224 

                         Git: Rev {master} e453b16 


    R. M. Parrish, L. A. Burns, D. G. A. Smith, A. C. Simmonett,
    A. E. DePrince III, E. G. Hohenstein, U. Bozkaya, A. Yu. Sokolov,
    R. Di Remigio, R. M. Richard, J. F. Gonthier, A. M. James,
    H. R. McAlexander, A. Kumar, M. Saitow, X. Wang, B. P. Pritchard,
    P. Verma, H. F. Schaefer III, K. Patkowski, R. A. King, E. F. Valeev,
    F. A. Evangelista, J. M. Turney, T. D. Crawford, and C. D. Sherrill,
    J. Chem. Theory Comput. 13(7) pp 3185--3197 (2017).
    (doi: 10.1021/acs.jctc.7b00174)


                         Additional Contributions by
    P. Kraus, H. Kruse, M. H. Lechner, M. C. Schieber, R. A. Shaw,
    A. Alenaizan, R. Galvelis, Z. L. Glick, S. Lehtola, and J. P. Misiewicz

    -----------------------------------------------------------------------


    Psi4 started on: Friday, 24 April 2020 12:51AM

    Process ID: 110086
    Host:       node50.bme.utexas.edu
    PSIDATADIR: /home/liuchw/anaconda3/envs/psi4env/share/psi4
    Memory:     500.0 MiB
    Threads:    8
    
  ==> Input File <==

--------------------------------------------------------------------------
#Generated by lconvert.py for sapt job

memory 20 GB

molecule  {
0 1
  C       1.433270    0.673520    0.000070
  H       2.314590    1.298680   -0.000900
  H       0.472720    1.168200    0.001070
  C       1.527250   -0.655290    0.000050
  H       0.645880   -1.280300    0.001020
  H       2.487500   -1.150700   -0.000950
--
0 1
  C      -2.217100   -0.003830    0.041020
  H      -2.507670    1.042230    0.040890
  H      -1.627100   -0.215230   -0.845510
  H      -1.628040   -0.215270    0.928180
  H      -3.107270   -0.624980    0.040550
units angstrom
no_reorient
symmetry c1
}

set {
scf_type DF
basis aug-cc-pvdz
freeze_core True
guess SAD
}
energy('sapt2+')
--------------------------------------------------------------------------

  Memory set to  18.626 GiB by Python driver.

Scratch directory: /scratch/liuchw/

  //>>>>>>>>>>>>>>>>>>>>>>>>>>>>>>>>>>>//
  //              Dimer HF             //
  //<<<<<<<<<<<<<<<<<<<<<<<<<<<<<<<<<<<//


*** tstart() called on node50.bme.utexas.edu
*** at Fri Apr 24 00:51:33 2020

   => Loading Basis Set <=

    Name: AUG-CC-PVDZ
    Role: ORBITAL
    Keyword: BASIS
    atoms 1, 4, 7        entry C          line   182 file /home/liuchw/anaconda3/envs/psi4env/share/psi4/basis/aug-cc-pvdz.gbs 
    atoms 2-3, 5-6, 8-11 entry H          line    40 file /home/liuchw/anaconda3/envs/psi4env/share/psi4/basis/aug-cc-pvdz.gbs 


         ---------------------------------------------------------
                                   SCF
               by Justin Turney, Rob Parrish, Andy Simmonett
                          and Daniel G. A. Smith
                              RHF Reference
                        8 Threads,  19073 MiB Core
         ---------------------------------------------------------

  ==> Geometry <==

    Molecular point group: c1
    Full point group: C1

    Geometry (in Angstrom), charge = 0, multiplicity = 1:

       Center              X                  Y                   Z               Mass       
    ------------   -----------------  -----------------  -----------------  -----------------
         C            1.298267279022     0.669080700473    -0.014893166953    12.000000000000
         H            2.179587279022     1.294240700473    -0.015863166953     1.007825032230
         H            0.337717279022     1.163760700473    -0.013893166953     1.007825032230
         C            1.392247279022    -0.659729299527    -0.014913166953    12.000000000000
         H            0.510877279022    -1.284739299527    -0.013943166953     1.007825032230
         H            2.352497279022    -1.155139299527    -0.015913166953     1.007825032230
         C           -2.352102720978    -0.008269299527     0.026056833047    12.000000000000
         H           -2.642672720978     1.037790700473     0.025926833047     1.007825032230
         H           -1.762102720978    -0.219669299527    -0.860473166953     1.007825032230
         H           -1.763042720978    -0.219709299527     0.913216833047     1.007825032230
         H           -3.242272720978    -0.629419299527     0.025586833047     1.007825032230

  Running in c1 symmetry.

  Rotational constants: A =      0.85040  B =      0.11537  C =      0.10357 [cm^-1]
  Rotational constants: A =  25494.41197  B =   3458.72616  C =   3104.88580 [MHz]
  Nuclear repulsion =   69.474354567492838

  Charge       = 0
  Multiplicity = 1
  Electrons    = 26
  Nalpha       = 13
  Nbeta        = 13

  ==> Algorithm <==

  SCF Algorithm Type is DF.
  DIIS enabled.
  MOM disabled.
  Fractional occupation disabled.
  Guess Type is SAD.
  Energy threshold   = 1.00e-08
  Density threshold  = 1.00e-08
  Integral threshold = 0.00e+00

  ==> Primary Basis <==

  Basis Set: AUG-CC-PVDZ
    Blend: AUG-CC-PVDZ
    Number of shells: 67
    Number of basis function: 141
    Number of Cartesian functions: 147
    Spherical Harmonics?: true
    Max angular momentum: 2

   => Loading Basis Set <=

    Name: (AUG-CC-PVDZ AUX)
    Role: JKFIT
    Keyword: DF_BASIS_SCF
    atoms 1, 4, 7        entry C          line   154 file /home/liuchw/anaconda3/envs/psi4env/share/psi4/basis/aug-cc-pvdz-jkfit.gbs 
    atoms 2-3, 5-6, 8-11 entry H          line    70 file /home/liuchw/anaconda3/envs/psi4env/share/psi4/basis/aug-cc-pvdz-jkfit.gbs 

  ==> Pre-Iterations <==

   -------------------------------------------------------
    Irrep   Nso     Nmo     Nalpha   Nbeta   Ndocc  Nsocc
   -------------------------------------------------------
     A        141     141       0       0       0       0
   -------------------------------------------------------
    Total     141     141      13      13      13       0
   -------------------------------------------------------

  ==> Integral Setup <==

  ==> DiskDFJK: Density-Fitted J/K Matrices <==

    J tasked:                  Yes
    K tasked:                  Yes
    wK tasked:                  No
    OpenMP threads:              8
    Integrals threads:           8
    Memory [MiB]:            14305
    Algorithm:                Core
    Integral Cache:           SAVE
    Schwarz Cutoff:          1E-12
    Fitting Condition:       1E-10

   => Auxiliary Basis Set <=

  Basis Set: (AUG-CC-PVDZ AUX)
    Blend: AUG-CC-PVDZ-JKFIT
    Number of shells: 180
    Number of basis function: 514
    Number of Cartesian functions: 583
    Spherical Harmonics?: true
    Max angular momentum: 3

  Minimum eigenvalue in the overlap matrix is 8.6201245839E-05.
  Using Symmetric Orthogonalization.

  SCF Guess: Superposition of Atomic Densities via on-the-fly atomic UHF.

  ==> Iterations <==

                           Total Energy        Delta E     RMS |[F,P]|

   @DF-RHF iter SAD:  -116.98049860638602   -1.16980e+02   0.00000e+00 
   @DF-RHF iter   1:  -118.09136899911420   -1.11087e+00   3.50048e-03 DIIS
   @DF-RHF iter   2:  -118.22054271239449   -1.29174e-01   1.37047e-03 DIIS
   @DF-RHF iter   3:  -118.24103806256338   -2.04954e-02   2.28254e-04 DIIS
   @DF-RHF iter   4:  -118.24230466049823   -1.26660e-03   2.58154e-05 DIIS
   @DF-RHF iter   5:  -118.24232103728355   -1.63768e-05   5.44624e-06 DIIS
   @DF-RHF iter   6:  -118.24232148658879   -4.49305e-07   1.04037e-06 DIIS
   @DF-RHF iter   7:  -118.24232151093648   -2.43477e-08   2.01791e-07 DIIS
   @DF-RHF iter   8:  -118.24232151152570   -5.89225e-10   7.04012e-08 DIIS
   @DF-RHF iter   9:  -118.24232151161019   -8.44835e-11   1.77576e-08 DIIS
   @DF-RHF iter  10:  -118.24232151161746   -7.27596e-12   4.99438e-09 DIIS
  Energy and wave function converged.


  ==> Post-Iterations <==

    Orbital Energies [Eh]
    ---------------------

    Doubly Occupied:                                                      

       1A    -11.237411     2A    -11.235727     3A    -11.214886  
       4A     -1.036276     5A     -0.947499     6A     -0.793433  
       7A     -0.645467     8A     -0.586866     9A     -0.547357  
      10A     -0.547035    11A     -0.545389    12A     -0.506743  
      13A     -0.375837  

    Virtual:                                                              

      14A      0.037147    15A      0.045318    16A      0.047722  
      17A      0.065784    18A      0.067870    19A      0.071072  
      20A      0.091205    21A      0.097840    22A      0.101955  
      23A      0.131899    24A      0.151041    25A      0.152654  
      26A      0.157657    27A      0.167713    28A      0.171191  
      29A      0.176947    30A      0.192168    31A      0.208512  
      32A      0.210481    33A      0.219770    34A      0.239747  
      35A      0.276519    36A      0.279550    37A      0.297688  
      38A      0.306179    39A      0.306482    40A      0.321931  
      41A      0.380293    42A      0.387053    43A      0.412580  
      44A      0.418568    45A      0.419912    46A      0.424863  
      47A      0.440054    48A      0.445581    49A      0.455264  
      50A      0.458820    51A      0.464160    52A      0.482428  
      53A      0.524127    54A      0.533339    55A      0.552780  
      56A      0.558741    57A      0.562233    58A      0.570211  
      59A      0.582668    60A      0.587012    61A      0.600760  
      62A      0.613027    63A      0.627273    64A      0.627930  
      65A      0.642676    66A      0.665029    67A      0.669648  
      68A      0.677128    69A      0.686083    70A      0.701393  
      71A      0.728712    72A      0.740422    73A      0.742109  
      74A      0.774455    75A      0.801284    76A      0.804026  
      77A      0.829169    78A      0.853625    79A      0.861153  
      80A      0.874544    81A      0.883712    82A      0.906781  
      83A      0.909588    84A      1.020060    85A      1.026760  
      86A      1.091501    87A      1.105099    88A      1.167326  
      89A      1.204879    90A      1.253710    91A      1.299363  
      92A      1.348516    93A      1.357245    94A      1.370509  
      95A      1.510179    96A      1.517229    97A      1.524538  
      98A      1.600614    99A      1.605159   100A      1.674491  
     101A      1.727648   102A      1.751767   103A      1.793709  
     104A      1.799358   105A      1.824758   106A      1.884045  
     107A      1.894086   108A      1.911425   109A      1.922642  
     110A      1.956499   111A      2.019991   112A      2.066866  
     113A      2.081762   114A      2.100038   115A      2.114340  
     116A      2.132344   117A      2.158611   118A      2.184436  
     119A      2.227296   120A      2.239406   121A      2.247402  
     122A      2.277508   123A      2.330552   124A      2.345612  
     125A      2.376605   126A      2.406199   127A      2.459674  
     128A      2.512080   129A      2.643229   130A      2.678972  
     131A      2.703413   132A      2.742576   133A      2.808910  
     134A      2.842052   135A      2.871361   136A      2.941800  
     137A      2.965449   138A      3.005162   139A      3.031637  
     140A      3.464881   141A      3.536376  

    Final Occupation by Irrep:
              A 
    DOCC [    13 ]

  @DF-RHF Final Energy:  -118.24232151161746

   => Energetics <=

    Nuclear Repulsion Energy =             69.4743545674928384
    One-Electron Energy =                -294.9934985711212221
    Two-Electron Energy =                 107.2768224920109219
    Total Energy =                       -118.2423215116174617

Computation Completed


Properties will be evaluated at   0.000000,   0.000000,   0.000000 [a0]

Properties computed using the SCF density matrix

  Nuclear Dipole Moment: [e a0]
     X:    -3.7775      Y:    -0.0121      Z:     0.0419

  Electronic Dipole Moment: [e a0]
     X:     3.7638      Y:     0.0124      Z:    -0.0409

  Dipole Moment: [e a0]
     X:    -0.0136      Y:     0.0003      Z:     0.0009     Total:     0.0137

  Dipole Moment: [D]
     X:    -0.0346      Y:     0.0008      Z:     0.0023     Total:     0.0347


*** tstop() called on node50.bme.utexas.edu at Fri Apr 24 00:51:36 2020
Module time:
	user time   =      12.81 seconds =       0.21 minutes
	system time =       0.38 seconds =       0.01 minutes
	total time  =          3 seconds =       0.05 minutes
Total time:
	user time   =      12.81 seconds =       0.21 minutes
	system time =       0.38 seconds =       0.01 minutes
	total time  =          3 seconds =       0.05 minutes

  //>>>>>>>>>>>>>>>>>>>>>>>>>>>>>>>>>>>//
  //            Monomer A HF           //
  //<<<<<<<<<<<<<<<<<<<<<<<<<<<<<<<<<<<//


*** tstart() called on node50.bme.utexas.edu
*** at Fri Apr 24 00:51:36 2020

   => Loading Basis Set <=

    Name: AUG-CC-PVDZ
    Role: ORBITAL
    Keyword: BASIS
    atoms 1, 4, 7        entry C          line   182 file /home/liuchw/anaconda3/envs/psi4env/share/psi4/basis/aug-cc-pvdz.gbs 
    atoms 2-3, 5-6, 8-11 entry H          line    40 file /home/liuchw/anaconda3/envs/psi4env/share/psi4/basis/aug-cc-pvdz.gbs 


         ---------------------------------------------------------
                                   SCF
               by Justin Turney, Rob Parrish, Andy Simmonett
                          and Daniel G. A. Smith
                              RHF Reference
                        8 Threads,  19073 MiB Core
         ---------------------------------------------------------

  ==> Geometry <==

    Molecular point group: c1
    Full point group: C1

    Geometry (in Angstrom), charge = 0, multiplicity = 1:

       Center              X                  Y                   Z               Mass       
    ------------   -----------------  -----------------  -----------------  -----------------
         C            1.298267279022     0.669080700473    -0.014893166953    12.000000000000
         H            2.179587279022     1.294240700473    -0.015863166953     1.007825032230
         H            0.337717279022     1.163760700473    -0.013893166953     1.007825032230
         C            1.392247279022    -0.659729299527    -0.014913166953    12.000000000000
         H            0.510877279022    -1.284739299527    -0.013943166953     1.007825032230
         H            2.352497279022    -1.155139299527    -0.015913166953     1.007825032230
      Gh(C)          -2.352102720978    -0.008269299527     0.026056833047    12.000000000000
      Gh(H)          -2.642672720978     1.037790700473     0.025926833047     1.007825032230
      Gh(H)          -1.762102720978    -0.219669299527    -0.860473166953     1.007825032230
      Gh(H)          -1.763042720978    -0.219709299527     0.913216833047     1.007825032230
      Gh(H)          -3.242272720978    -0.629419299527     0.025586833047     1.007825032230

  Running in c1 symmetry.

  Rotational constants: A =      0.85040  B =      0.11537  C =      0.10357 [cm^-1]
  Rotational constants: A =  25494.41197  B =   3458.72616  C =   3104.88580 [MHz]
  Nuclear repulsion =   33.432345192272855

  Charge       = 0
  Multiplicity = 1
  Electrons    = 16
  Nalpha       = 8
  Nbeta        = 8

  ==> Algorithm <==

  SCF Algorithm Type is DF.
  DIIS enabled.
  MOM disabled.
  Fractional occupation disabled.
  Guess Type is SAD.
  Energy threshold   = 1.00e-08
  Density threshold  = 1.00e-08
  Integral threshold = 0.00e+00

  ==> Primary Basis <==

  Basis Set: AUG-CC-PVDZ
    Blend: AUG-CC-PVDZ
    Number of shells: 67
    Number of basis function: 141
    Number of Cartesian functions: 147
    Spherical Harmonics?: true
    Max angular momentum: 2

   => Loading Basis Set <=

    Name: (AUG-CC-PVDZ AUX)
    Role: JKFIT
    Keyword: DF_BASIS_SCF
    atoms 1, 4, 7        entry C          line   154 file /home/liuchw/anaconda3/envs/psi4env/share/psi4/basis/aug-cc-pvdz-jkfit.gbs 
    atoms 2-3, 5-6, 8-11 entry H          line    70 file /home/liuchw/anaconda3/envs/psi4env/share/psi4/basis/aug-cc-pvdz-jkfit.gbs 

  ==> Pre-Iterations <==

   -------------------------------------------------------
    Irrep   Nso     Nmo     Nalpha   Nbeta   Ndocc  Nsocc
   -------------------------------------------------------
     A        141     141       0       0       0       0
   -------------------------------------------------------
    Total     141     141       8       8       8       0
   -------------------------------------------------------

  ==> Integral Setup <==

  ==> DiskDFJK: Density-Fitted J/K Matrices <==

    J tasked:                  Yes
    K tasked:                  Yes
    wK tasked:                  No
    OpenMP threads:              8
    Integrals threads:           8
    Memory [MiB]:            14305
    Algorithm:                Core
    Integral Cache:           LOAD
    Schwarz Cutoff:          1E-12
    Fitting Condition:       1E-10

   => Auxiliary Basis Set <=

  Basis Set: (AUG-CC-PVDZ AUX)
    Blend: AUG-CC-PVDZ-JKFIT
    Number of shells: 180
    Number of basis function: 514
    Number of Cartesian functions: 583
    Spherical Harmonics?: true
    Max angular momentum: 3

  Minimum eigenvalue in the overlap matrix is 8.6201245839E-05.
  Using Symmetric Orthogonalization.

  SCF Guess: Superposition of Atomic Densities via on-the-fly atomic UHF.

  ==> Iterations <==

                           Total Energy        Delta E     RMS |[F,P]|

   @DF-RHF iter SAD:   -77.26072414597309   -7.72607e+01   0.00000e+00 
   @DF-RHF iter   1:   -77.96625105071099   -7.05527e-01   2.47752e-03 DIIS
   @DF-RHF iter   2:   -78.03249808139202   -6.62470e-02   9.81822e-04 DIIS
   @DF-RHF iter   3:   -78.04315171993899   -1.06536e-02   1.55996e-04 DIIS
   @DF-RHF iter   4:   -78.04368109823454   -5.29378e-04   1.46022e-05 DIIS
   @DF-RHF iter   5:   -78.04368628175072   -5.18352e-06   1.60303e-06 DIIS
   @DF-RHF iter   6:   -78.04368635227750   -7.05268e-08   1.98660e-07 DIIS
   @DF-RHF iter   7:   -78.04368635323304   -9.55538e-10   3.02581e-08 DIIS
   @DF-RHF iter   8:   -78.04368635325602   -2.29790e-11   5.65411e-09 DIIS
  Energy and wave function converged.


  ==> Post-Iterations <==

    Orbital Energies [Eh]
    ---------------------

    Doubly Occupied:                                                      

       1A    -11.238610     2A    -11.236928     3A     -1.036990  
       4A     -0.794236     5A     -0.645126     6A     -0.587348  
       7A     -0.507993     8A     -0.376687  

    Virtual:                                                              

       9A      0.029744    10A      0.043287    11A      0.045732  
      12A      0.063218    13A      0.064053    14A      0.069075  
      15A      0.091630    16A      0.097764    17A      0.101999  
      18A      0.120866    19A      0.130464    20A      0.144932  
      21A      0.150896    22A      0.153452    23A      0.159762  
      24A      0.164217    25A      0.183709    26A      0.199884  
      27A      0.209855    28A      0.218658    29A      0.244115  
      30A      0.280877    31A      0.285275    32A      0.300124  
      33A      0.322433    34A      0.335428    35A      0.340206  
      36A      0.356777    37A      0.375635    38A      0.382636  
      39A      0.414914    40A      0.418547    41A      0.425075  
      42A      0.434887    43A      0.440460    44A      0.451004  
      45A      0.462860    46A      0.465755    47A      0.475268  
      48A      0.527151    49A      0.537232    50A      0.554501  
      51A      0.557547    52A      0.577917    53A      0.584025  
      54A      0.590365    55A      0.596538    56A      0.597574  
      57A      0.617812    58A      0.629793    59A      0.648276  
      60A      0.656681    61A      0.677074    62A      0.697635  
      63A      0.707102    64A      0.718639    65A      0.738541  
      66A      0.761964    67A      0.774050    68A      0.777365  
      69A      0.797019    70A      0.798248    71A      0.810650  
      72A      0.822119    73A      0.843783    74A      0.855246  
      75A      0.870674    76A      0.884738    77A      0.890005  
      78A      0.896486    79A      0.923015    80A      0.936808  
      81A      0.962859    82A      1.007040    83A      1.091413  
      84A      1.099388    85A      1.253540    86A      1.276308  
      87A      1.346381    88A      1.504763    89A      1.511015  
      90A      1.516446    91A      1.600577    92A      1.673327  
      93A      1.723049    94A      1.785993    95A      1.794524  
      96A      1.815357    97A      1.818749    98A      1.883701  
      99A      1.891353   100A      1.935651   101A      2.013169  
     102A      2.058204   103A      2.088303   104A      2.101718  
     105A      2.116001   106A      2.129602   107A      2.154170  
     108A      2.200084   109A      2.211644   110A      2.245054  
     111A      2.265061   112A      2.288473   113A      2.294602  
     114A      2.328219   115A      2.339294   116A      2.356470  
     117A      2.406261   118A      2.422873   119A      2.459801  
     120A      2.506202   121A      2.652662   122A      2.695001  
     123A      2.697379   124A      2.730245   125A      2.731880  
     126A      2.786535   127A      2.815600   128A      2.851161  
     129A      2.966296   130A      3.081374   131A      3.134197  
     132A      3.166684   133A      3.212338   134A      3.304075  
     135A      3.464149   136A      3.538324   137A      3.591676  
     138A      5.106979   139A      5.115374   140A      5.147057  
     141A     18.464097  

    Final Occupation by Irrep:
              A 
    DOCC [     8 ]

  @DF-RHF Final Energy:   -78.04368635325602

   => Energetics <=

    Nuclear Repulsion Energy =             33.4323451922728552
    One-Electron Energy =                -170.1042262427140486
    Two-Electron Energy =                  58.6281946971851653
    Total Energy =                        -78.0436863532560210

Computation Completed


Properties will be evaluated at   0.000000,   0.000000,   0.000000 [a0]

Properties computed using the SCF density matrix

  Nuclear Dipole Moment: [e a0]
     X:    40.6740      Y:     0.1403      Z:    -0.4506

  Electronic Dipole Moment: [e a0]
     X:   -40.6726      Y:    -0.1402      Z:     0.4506

  Dipole Moment: [e a0]
     X:     0.0015      Y:     0.0001      Z:     0.0000     Total:     0.0015

  Dipole Moment: [D]
     X:     0.0037      Y:     0.0003      Z:     0.0001     Total:     0.0037


*** tstop() called on node50.bme.utexas.edu at Fri Apr 24 00:51:37 2020
Module time:
	user time   =       8.71 seconds =       0.15 minutes
	system time =       0.35 seconds =       0.01 minutes
	total time  =          1 seconds =       0.02 minutes
Total time:
	user time   =      21.57 seconds =       0.36 minutes
	system time =       0.74 seconds =       0.01 minutes
	total time  =          4 seconds =       0.07 minutes

  //>>>>>>>>>>>>>>>>>>>>>>>>>>>>>>>>>>>//
  //            Monomer B HF           //
  //<<<<<<<<<<<<<<<<<<<<<<<<<<<<<<<<<<<//


*** tstart() called on node50.bme.utexas.edu
*** at Fri Apr 24 00:51:37 2020

   => Loading Basis Set <=

    Name: AUG-CC-PVDZ
    Role: ORBITAL
    Keyword: BASIS
    atoms 1, 4, 7        entry C          line   182 file /home/liuchw/anaconda3/envs/psi4env/share/psi4/basis/aug-cc-pvdz.gbs 
    atoms 2-3, 5-6, 8-11 entry H          line    40 file /home/liuchw/anaconda3/envs/psi4env/share/psi4/basis/aug-cc-pvdz.gbs 


         ---------------------------------------------------------
                                   SCF
               by Justin Turney, Rob Parrish, Andy Simmonett
                          and Daniel G. A. Smith
                              RHF Reference
                        8 Threads,  19073 MiB Core
         ---------------------------------------------------------

  ==> Geometry <==

    Molecular point group: c1
    Full point group: C1

    Geometry (in Angstrom), charge = 0, multiplicity = 1:

       Center              X                  Y                   Z               Mass       
    ------------   -----------------  -----------------  -----------------  -----------------
      Gh(C)           1.298267279022     0.669080700473    -0.014893166953    12.000000000000
      Gh(H)           2.179587279022     1.294240700473    -0.015863166953     1.007825032230
      Gh(H)           0.337717279022     1.163760700473    -0.013893166953     1.007825032230
      Gh(C)           1.392247279022    -0.659729299527    -0.014913166953    12.000000000000
      Gh(H)           0.510877279022    -1.284739299527    -0.013943166953     1.007825032230
      Gh(H)           2.352497279022    -1.155139299527    -0.015913166953     1.007825032230
         C           -2.352102720978    -0.008269299527     0.026056833047    12.000000000000
         H           -2.642672720978     1.037790700473     0.025926833047     1.007825032230
         H           -1.762102720978    -0.219669299527    -0.860473166953     1.007825032230
         H           -1.763042720978    -0.219709299527     0.913216833047     1.007825032230
         H           -3.242272720978    -0.629419299527     0.025586833047     1.007825032230

  Running in c1 symmetry.

  Rotational constants: A =      0.85040  B =      0.11537  C =      0.10357 [cm^-1]
  Rotational constants: A =  25494.41197  B =   3458.72616  C =   3104.88580 [MHz]
  Nuclear repulsion =   13.489458114252722

  Charge       = 0
  Multiplicity = 1
  Electrons    = 10
  Nalpha       = 5
  Nbeta        = 5

  ==> Algorithm <==

  SCF Algorithm Type is DF.
  DIIS enabled.
  MOM disabled.
  Fractional occupation disabled.
  Guess Type is SAD.
  Energy threshold   = 1.00e-08
  Density threshold  = 1.00e-08
  Integral threshold = 0.00e+00

  ==> Primary Basis <==

  Basis Set: AUG-CC-PVDZ
    Blend: AUG-CC-PVDZ
    Number of shells: 67
    Number of basis function: 141
    Number of Cartesian functions: 147
    Spherical Harmonics?: true
    Max angular momentum: 2

   => Loading Basis Set <=

    Name: (AUG-CC-PVDZ AUX)
    Role: JKFIT
    Keyword: DF_BASIS_SCF
    atoms 1, 4, 7        entry C          line   154 file /home/liuchw/anaconda3/envs/psi4env/share/psi4/basis/aug-cc-pvdz-jkfit.gbs 
    atoms 2-3, 5-6, 8-11 entry H          line    70 file /home/liuchw/anaconda3/envs/psi4env/share/psi4/basis/aug-cc-pvdz-jkfit.gbs 

  ==> Pre-Iterations <==

   -------------------------------------------------------
    Irrep   Nso     Nmo     Nalpha   Nbeta   Ndocc  Nsocc
   -------------------------------------------------------
     A        141     141       0       0       0       0
   -------------------------------------------------------
    Total     141     141       5       5       5       0
   -------------------------------------------------------

  ==> Integral Setup <==

  ==> DiskDFJK: Density-Fitted J/K Matrices <==

    J tasked:                  Yes
    K tasked:                  Yes
    wK tasked:                  No
    OpenMP threads:              8
    Integrals threads:           8
    Memory [MiB]:            14305
    Algorithm:                Core
    Integral Cache:           LOAD
    Schwarz Cutoff:          1E-12
    Fitting Condition:       1E-10

   => Auxiliary Basis Set <=

  Basis Set: (AUG-CC-PVDZ AUX)
    Blend: AUG-CC-PVDZ-JKFIT
    Number of shells: 180
    Number of basis function: 514
    Number of Cartesian functions: 583
    Spherical Harmonics?: true
    Max angular momentum: 3

  Minimum eigenvalue in the overlap matrix is 8.6201245839E-05.
  Using Symmetric Orthogonalization.

  SCF Guess: Superposition of Atomic Densities via on-the-fly atomic UHF.

  ==> Iterations <==

                           Total Energy        Delta E     RMS |[F,P]|

   @DF-RHF iter SAD:   -39.62927140466145   -3.96293e+01   0.00000e+00 
   @DF-RHF iter   1:   -40.12472298361996   -4.95452e-01   2.53174e-03 DIIS
   @DF-RHF iter   2:   -40.18839689036923   -6.36739e-02   1.00727e-03 DIIS
   @DF-RHF iter   3:   -40.19914298325833   -1.07461e-02   1.61916e-04 DIIS
   @DF-RHF iter   4:   -40.19984783598225   -7.04853e-04   1.90852e-05 DIIS
   @DF-RHF iter   5:   -40.19985666970081   -8.83372e-06   1.50350e-06 DIIS
   @DF-RHF iter   6:   -40.19985673678976   -6.70889e-08   1.43592e-07 DIIS
   @DF-RHF iter   7:   -40.19985673724003   -4.50278e-10   9.73277e-09 DIIS
  Energy and wave function converged.


  ==> Post-Iterations <==

    Orbital Energies [Eh]
    ---------------------

    Doubly Occupied:                                                      

       1A    -11.213426     2A     -0.945092     3A     -0.544928  
       4A     -0.544840     5A     -0.544588  

    Virtual:                                                              

       6A      0.027167     7A      0.043655     8A      0.045581  
       9A      0.063023    10A      0.065789    11A      0.068557  
      12A      0.090361    13A      0.095107    14A      0.108634  
      15A      0.115490    16A      0.127678    17A      0.142306  
      18A      0.152624    19A      0.153636    20A      0.163893  
      21A      0.167528    22A      0.184860    23A      0.193309  
      24A      0.207432    25A      0.219373    26A      0.285041  
      27A      0.288433    28A      0.309957    29A      0.311374  
      30A      0.315812    31A      0.338003    32A      0.353972  
      33A      0.382758    34A      0.400099    35A      0.409546  
      36A      0.421486    37A      0.429842    38A      0.434403  
      39A      0.446249    40A      0.446706    41A      0.450318  
      42A      0.462223    43A      0.470706    44A      0.479248  
      45A      0.495361    46A      0.526855    47A      0.541992  
      48A      0.548399    49A      0.555672    50A      0.570179  
      51A      0.580912    52A      0.588107    53A      0.602485  
      54A      0.616845    55A      0.627122    56A      0.645750  
      57A      0.671905    58A      0.690245    59A      0.704775  
      60A      0.714324    61A      0.727597    62A      0.731862  
      63A      0.757077    64A      0.758623    65A      0.794627  
      66A      0.799971    67A      0.809268    68A      0.816392  
      69A      0.855870    70A      0.864019    71A      0.868919  
      72A      0.881461    73A      0.908319    74A      0.940698  
      75A      0.951641    76A      0.960806    77A      1.031421  
      78A      1.037896    79A      1.064246    80A      1.118239  
      81A      1.129335    82A      1.188100    83A      1.235797  
      84A      1.262960    85A      1.359422    86A      1.390570  
      87A      1.597047    88A      1.753977    89A      1.811755  
      90A      1.911975    91A      1.920169    92A      1.932332  
      93A      2.012876    94A      2.048465    95A      2.060702  
      96A      2.095397    97A      2.105915    98A      2.118563  
      99A      2.193117   100A      2.196624   101A      2.228060  
     102A      2.237077   103A      2.254881   104A      2.257849  
     105A      2.282215   106A      2.294910   107A      2.313231  
     108A      2.352107   109A      2.355722   110A      2.393060  
     111A      2.419565   112A      2.433333   113A      2.450760  
     114A      2.516577   115A      2.568201   116A      2.586438  
     117A      2.623639   118A      2.646311   119A      2.719870  
     120A      2.776702   121A      2.787709   122A      2.825845  
     123A      2.872051   124A      2.885531   125A      2.927764  
     126A      2.944342   127A      3.002425   128A      3.036899  
     129A      3.126711   130A      3.191540   131A      3.328972  
     132A      3.435782   133A      3.493527   134A      3.982413  
     135A      4.033769   136A      4.241491   137A      5.234618  
     138A      5.286886   139A      5.657538   140A     18.146318  
     141A     18.940284  

    Final Occupation by Irrep:
              A 
    DOCC [     5 ]

  @DF-RHF Final Energy:   -40.19985673724003

   => Energetics <=

    Nuclear Repulsion Energy =             13.4894581142527219
    One-Electron Energy =                 -79.7928848830354696
    Two-Electron Energy =                  26.1035700315427093
    Total Energy =                        -40.1998567372400331

Computation Completed


Properties will be evaluated at   0.000000,   0.000000,   0.000000 [a0]

Properties computed using the SCF density matrix

  Nuclear Dipole Moment: [e a0]
     X:   -44.4515      Y:    -0.1524      Z:     0.4925

  Electronic Dipole Moment: [e a0]
     X:    44.4516      Y:     0.1525      Z:    -0.4924

  Dipole Moment: [e a0]
     X:     0.0001      Y:     0.0002      Z:     0.0000     Total:     0.0002

  Dipole Moment: [D]
     X:     0.0003      Y:     0.0005      Z:     0.0001     Total:     0.0006


*** tstop() called on node50.bme.utexas.edu at Fri Apr 24 00:51:39 2020
Module time:
	user time   =       7.70 seconds =       0.13 minutes
	system time =       0.34 seconds =       0.01 minutes
	total time  =          2 seconds =       0.03 minutes
Total time:
	user time   =      29.30 seconds =       0.49 minutes
	system time =       1.08 seconds =       0.02 minutes
	total time  =          6 seconds =       0.10 minutes
  Constructing Basis Sets for SAPT...

   => Loading Basis Set <=

    Name: (AUG-CC-PVDZ AUX)
    Role: RIFIT
    Keyword: DF_BASIS_SAPT
    atoms 1, 4, 7        entry C          line   112 file /home/liuchw/anaconda3/envs/psi4env/share/psi4/basis/aug-cc-pvdz-ri.gbs 
    atoms 2-3, 5-6, 8-11 entry H          line    30 file /home/liuchw/anaconda3/envs/psi4env/share/psi4/basis/aug-cc-pvdz-ri.gbs 


  //>>>>>>>>>>>>>>>>>>>>>>>>>>>>>>>>>>>//
  //               SAPT2+              //
  //<<<<<<<<<<<<<<<<<<<<<<<<<<<<<<<<<<<//


*** tstart() called on node50.bme.utexas.edu
*** at Fri Apr 24 00:51:39 2020

        SAPT2+  
    Ed Hohenstein
     6 June 2009

      Orbital Information
  --------------------------
    NSO        =       141
    NMO        =       141
    NRI        =       400
    NOCC A     =         8
    NOCC B     =         5
    FOCC A     =         2
    FOCC B     =         1
    NVIR A     =       133
    NVIR B     =       136

    Estimated memory usage: 87.6 MB

    Natural Orbital Cutoff:   1.000E-06
    Disp(T3) Truncation:            Yes
    CCD (vv|vv) Truncation:         Yes
    MBPT T2 Truncation:             Yes

    Monomer A: 60 virtual orbitals dropped
    Monomer B: 82 virtual orbitals dropped

    Elst10,r            =    -0.000953825452 [Eh]
    Exch10 (S^2)        =     0.002374662099 [Eh]
    Exch10              =     0.002377735913 [Eh]
    Ind20,r (A<-B)      =    -0.000115970150 [Eh]
    Ind20,r (B<-A)      =    -0.000203877530 [Eh]
    Ind20,r             =    -0.000319847680 [Eh]
    Exch-Ind20,r (A<-B) =     0.000100306908 [Eh]
    Exch-Ind20,r (B<-A) =     0.000164622792 [Eh]
    Exch-Ind20,r        =     0.000264929700 [Eh]
    Disp20              =    -0.002658737536 [Eh]
    Disp20 (NO)         =    -0.002445199904 [Eh]
    Exch-Disp20         =     0.000215142868 [Eh]
    Elst12,r            =    -0.000109176703 [Eh]
    Exch11              =     0.000039477986 [Eh]
    Exch12              =     0.000244915684 [Eh]
    Ind22               =    -0.000047946148 [Eh]
    Disp21              =     0.000036435379 [Eh]
    Disp22 (SDQ)        =     0.000141638987 [Eh]

    (i =   1 of   4)          0 seconds
    (i =   2 of   4)          0 seconds
    (i =   3 of   4)          0 seconds
    (i =   4 of   4)          0 seconds

    Disp220 (T)         =    -0.000161764229 [Eh]

    (i =   1 of   6)          0 seconds
    (i =   2 of   6)          1 seconds
    (i =   3 of   6)          1 seconds
    (i =   4 of   6)          1 seconds
    (i =   5 of   6)          1 seconds
    (i =   6 of   6)          1 seconds

    Disp202 (T)         =    -0.000139192835 [Eh]

    Disp22 (T)          =    -0.000300957063 [Eh]

    Est. Disp220 (T)    =    -0.000175890988 [Eh]
    Est. Disp202 (T)    =    -0.000151348450 [Eh]

    Est. Disp22 (T)     =    -0.000327239438 [Eh]

    SAPT Results 
  --------------------------------------------------------------------------------------------------------
    Electrostatics                 -1.06300215 [mEh]      -0.66704392 [kcal/mol]      -2.79091177 [kJ/mol]
      Elst10,r                     -0.95382545 [mEh]      -0.59853451 [kcal/mol]      -2.50426838 [kJ/mol]
      Elst12,r                     -0.10917670 [mEh]      -0.06850942 [kcal/mol]      -0.28664339 [kJ/mol]

    Exchange                        2.66212958 [mEh]       1.67051153 [kcal/mol]       6.98942026 [kJ/mol]
      Exch10                        2.37773591 [mEh]       1.49205181 [kcal/mol]       6.24274478 [kJ/mol]
      Exch10(S^2)                   2.37466210 [mEh]       1.49012296 [kcal/mol]       6.23467448 [kJ/mol]
      Exch11(S^2)                   0.03947799 [mEh]       0.02477281 [kcal/mol]       0.10364944 [kJ/mol]
      Exch12(S^2)                   0.24491568 [mEh]       0.15368691 [kcal/mol]       0.64302604 [kJ/mol]

    Induction                      -0.21056396 [mEh]      -0.13213088 [kcal/mol]      -0.55283559 [kJ/mol]
      Ind20,r                      -0.31984768 [mEh]      -0.20070745 [kcal/mol]      -0.83975997 [kJ/mol]
      Ind22                        -0.04794615 [mEh]      -0.03008666 [kcal/mol]      -0.12588259 [kJ/mol]
      Exch-Ind20,r                  0.26492970 [mEh]       0.16624590 [kcal/mol]       0.69557283 [kJ/mol]
      Exch-Ind22                    0.03971377 [mEh]       0.02492077 [kcal/mol]       0.10426850 [kJ/mol]
      delta HF,r (2)               -0.14741360 [mEh]      -0.09250343 [kcal/mol]      -0.38703436 [kJ/mol]

    Dispersion                     -2.59275974 [mEh]      -1.62698130 [kcal/mol]      -6.80728976 [kJ/mol]
      Disp20                       -2.65873754 [mEh]      -1.66838299 [kcal/mol]      -6.98051444 [kJ/mol]
      Disp21                        0.03643538 [mEh]       0.02286355 [kcal/mol]       0.09566108 [kJ/mol]
      Disp22 (SDQ)                  0.14163899 [mEh]       0.08887981 [kcal/mol]       0.37187311 [kJ/mol]
      Disp22 (T)                   -0.30095706 [mEh]      -0.18885341 [kcal/mol]      -0.79016266 [kJ/mol]
      Est. Disp22 (T)              -0.32723944 [mEh]      -0.20534585 [kcal/mol]      -0.85916702 [kJ/mol]
      Exch-Disp20                   0.21514287 [mEh]       0.13500419 [kcal/mol]       0.56485752 [kJ/mol]

  Total HF                          1.22157888 [mEh]       0.76655232 [kcal/mol]       3.20725490 [kJ/mol]
  Total SAPT0                      -1.22201579 [mEh]      -0.76682648 [kcal/mol]      -3.20840201 [kJ/mol]
  Total SAPT2                      -1.05503119 [mEh]      -0.66204207 [kcal/mol]      -2.76998402 [kJ/mol]
  Total SAPT2+                     -1.20419627 [mEh]      -0.75564456 [kcal/mol]      -3.16161686 [kJ/mol]

  Special recipe for scaled SAPT0 (see Manual):
    Electrostatics sSAPT0          -0.95382545 [mEh]      -0.59853451 [kcal/mol]      -2.50426838 [kJ/mol]
    Exchange sSAPT0                 2.37773591 [mEh]       1.49205181 [kcal/mol]       6.24274478 [kJ/mol]
    Induction sSAPT0               -0.20130146 [mEh]      -0.12631857 [kcal/mol]      -0.52851691 [kJ/mol]
    Dispersion sSAPT0              -2.44275813 [mEh]      -1.53285387 [kcal/mol]      -6.41346058 [kJ/mol]
  Total sSAPT0                     -1.22014913 [mEh]      -0.76565514 [kcal/mol]      -3.20350109 [kJ/mol]
  --------------------------------------------------------------------------------------------------------

*** tstop() called on node50.bme.utexas.edu at Fri Apr 24 00:51:45 2020
Module time:
	user time   =      44.45 seconds =       0.74 minutes
	system time =       2.47 seconds =       0.04 minutes
	total time  =          6 seconds =       0.10 minutes
Total time:
	user time   =      74.40 seconds =       1.24 minutes
	system time =       3.58 seconds =       0.06 minutes
	total time  =         12 seconds =       0.20 minutes

    Psi4 stopped on: Friday, 24 April 2020 12:51AM
    Psi4 wall time for execution: 0:00:11.43

*** Psi4 exiting successfully. Buy a developer a beer!
