
    -----------------------------------------------------------------------
          Psi4: An Open-Source Ab Initio Electronic Structure Package
                               Psi4 1.4a2.dev224 

                         Git: Rev {master} e453b16 


    R. M. Parrish, L. A. Burns, D. G. A. Smith, A. C. Simmonett,
    A. E. DePrince III, E. G. Hohenstein, U. Bozkaya, A. Yu. Sokolov,
    R. Di Remigio, R. M. Richard, J. F. Gonthier, A. M. James,
    H. R. McAlexander, A. Kumar, M. Saitow, X. Wang, B. P. Pritchard,
    P. Verma, H. F. Schaefer III, K. Patkowski, R. A. King, E. F. Valeev,
    F. A. Evangelista, J. M. Turney, T. D. Crawford, and C. D. Sherrill,
    J. Chem. Theory Comput. 13(7) pp 3185--3197 (2017).
    (doi: 10.1021/acs.jctc.7b00174)


                         Additional Contributions by
    P. Kraus, H. Kruse, M. H. Lechner, M. C. Schieber, R. A. Shaw,
    A. Alenaizan, R. Galvelis, Z. L. Glick, S. Lehtola, and J. P. Misiewicz

    -----------------------------------------------------------------------


    Psi4 started on: Friday, 24 April 2020 12:51AM

    Process ID: 44149
    Host:       node49.bme.utexas.edu
    PSIDATADIR: /home/liuchw/anaconda3/envs/psi4env/share/psi4
    Memory:     500.0 MiB
    Threads:    8
    
  ==> Input File <==

--------------------------------------------------------------------------
#Generated by lconvert.py for sapt job

memory 20 GB

molecule  {
0 1
  C       1.433270    0.673520    0.000070
  H       2.314590    1.298680   -0.000900
  H       0.472720    1.168200    0.001070
  C       1.527250   -0.655290    0.000050
  H       0.645880   -1.280300    0.001020
  H       2.487500   -1.150700   -0.000950
--
0 1
  C      -2.063640    0.007250    0.082780
  H      -2.354210    1.053300    0.082650
  H      -1.473640   -0.204150   -0.803750
  H      -1.474580   -0.204190    0.969940
  H      -2.953810   -0.613900    0.082300
units angstrom
no_reorient
symmetry c1
}

set {
scf_type DF
basis aug-cc-pvdz
freeze_core True
guess SAD
}
energy('sapt2+')
--------------------------------------------------------------------------

  Memory set to  18.626 GiB by Python driver.

Scratch directory: /scratch/liuchw/

  //>>>>>>>>>>>>>>>>>>>>>>>>>>>>>>>>>>>//
  //              Dimer HF             //
  //<<<<<<<<<<<<<<<<<<<<<<<<<<<<<<<<<<<//


*** tstart() called on node49.bme.utexas.edu
*** at Fri Apr 24 00:51:33 2020

   => Loading Basis Set <=

    Name: AUG-CC-PVDZ
    Role: ORBITAL
    Keyword: BASIS
    atoms 1, 4, 7        entry C          line   182 file /home/liuchw/anaconda3/envs/psi4env/share/psi4/basis/aug-cc-pvdz.gbs 
    atoms 2-3, 5-6, 8-11 entry H          line    40 file /home/liuchw/anaconda3/envs/psi4env/share/psi4/basis/aug-cc-pvdz.gbs 


         ---------------------------------------------------------
                                   SCF
               by Justin Turney, Rob Parrish, Andy Simmonett
                          and Daniel G. A. Smith
                              RHF Reference
                        8 Threads,  19073 MiB Core
         ---------------------------------------------------------

  ==> Geometry <==

    Molecular point group: c1
    Full point group: C1

    Geometry (in Angstrom), charge = 0, multiplicity = 1:

       Center              X                  Y                   Z               Mass       
    ------------   -----------------  -----------------  -----------------  -----------------
         C            1.242433912325     0.665049691723    -0.030086483081    12.000000000000
         H            2.123753912325     1.290209691723    -0.031056483081     1.007825032230
         H            0.281883912325     1.159729691723    -0.029086483081     1.007825032230
         C            1.336413912325    -0.663760308277    -0.030106483081    12.000000000000
         H            0.455043912325    -1.288770308277    -0.029136483081     1.007825032230
         H            2.296663912325    -1.159170308277    -0.031106483081     1.007825032230
         C           -2.254476087675    -0.001220308277     0.052623516919    12.000000000000
         H           -2.545046087675     1.044829691723     0.052493516919     1.007825032230
         H           -1.664476087675    -0.212620308277    -0.833906483081     1.007825032230
         H           -1.665416087675    -0.212660308277     0.939783516919     1.007825032230
         H           -3.144646087675    -0.622370308277     0.052143516919     1.007825032230

  Running in c1 symmetry.

  Rotational constants: A =      0.85063  B =      0.12502  C =      0.11128 [cm^-1]
  Rotational constants: A =  25501.24966  B =   3747.95430  C =   3336.16133 [MHz]
  Nuclear repulsion =   70.406643020597343

  Charge       = 0
  Multiplicity = 1
  Electrons    = 26
  Nalpha       = 13
  Nbeta        = 13

  ==> Algorithm <==

  SCF Algorithm Type is DF.
  DIIS enabled.
  MOM disabled.
  Fractional occupation disabled.
  Guess Type is SAD.
  Energy threshold   = 1.00e-08
  Density threshold  = 1.00e-08
  Integral threshold = 0.00e+00

  ==> Primary Basis <==

  Basis Set: AUG-CC-PVDZ
    Blend: AUG-CC-PVDZ
    Number of shells: 67
    Number of basis function: 141
    Number of Cartesian functions: 147
    Spherical Harmonics?: true
    Max angular momentum: 2

   => Loading Basis Set <=

    Name: (AUG-CC-PVDZ AUX)
    Role: JKFIT
    Keyword: DF_BASIS_SCF
    atoms 1, 4, 7        entry C          line   154 file /home/liuchw/anaconda3/envs/psi4env/share/psi4/basis/aug-cc-pvdz-jkfit.gbs 
    atoms 2-3, 5-6, 8-11 entry H          line    70 file /home/liuchw/anaconda3/envs/psi4env/share/psi4/basis/aug-cc-pvdz-jkfit.gbs 

  ==> Pre-Iterations <==

   -------------------------------------------------------
    Irrep   Nso     Nmo     Nalpha   Nbeta   Ndocc  Nsocc
   -------------------------------------------------------
     A        141     141       0       0       0       0
   -------------------------------------------------------
    Total     141     141      13      13      13       0
   -------------------------------------------------------

  ==> Integral Setup <==

  ==> DiskDFJK: Density-Fitted J/K Matrices <==

    J tasked:                  Yes
    K tasked:                  Yes
    wK tasked:                  No
    OpenMP threads:              8
    Integrals threads:           8
    Memory [MiB]:            14305
    Algorithm:                Core
    Integral Cache:           SAVE
    Schwarz Cutoff:          1E-12
    Fitting Condition:       1E-10

   => Auxiliary Basis Set <=

  Basis Set: (AUG-CC-PVDZ AUX)
    Blend: AUG-CC-PVDZ-JKFIT
    Number of shells: 180
    Number of basis function: 514
    Number of Cartesian functions: 583
    Spherical Harmonics?: true
    Max angular momentum: 3

  Minimum eigenvalue in the overlap matrix is 8.2983533055E-05.
  Using Symmetric Orthogonalization.

  SCF Guess: Superposition of Atomic Densities via on-the-fly atomic UHF.

  ==> Iterations <==

                           Total Energy        Delta E     RMS |[F,P]|

   @DF-RHF iter SAD:  -117.00911162358364   -1.17009e+02   0.00000e+00 
   @DF-RHF iter   1:  -118.09064405805826   -1.08153e+00   3.49330e-03 DIIS
   @DF-RHF iter   2:  -118.21982934625711   -1.29185e-01   1.36358e-03 DIIS
   @DF-RHF iter   3:  -118.24015029695704   -2.03210e-02   2.29311e-04 DIIS
   @DF-RHF iter   4:  -118.24142614595718   -1.27585e-03   2.60064e-05 DIIS
   @DF-RHF iter   5:  -118.24144272831155   -1.65824e-05   5.62136e-06 DIIS
   @DF-RHF iter   6:  -118.24144320134086   -4.73029e-07   1.07123e-06 DIIS
   @DF-RHF iter   7:  -118.24144322687027   -2.55294e-08   2.35413e-07 DIIS
   @DF-RHF iter   8:  -118.24144322761980   -7.49523e-10   7.41189e-08 DIIS
   @DF-RHF iter   9:  -118.24144322772325   -1.03455e-10   1.93800e-08 DIIS
   @DF-RHF iter  10:  -118.24144322773223   -8.98126e-12   5.72045e-09 DIIS
  Energy and wave function converged.


  ==> Post-Iterations <==

    Orbital Energies [Eh]
    ---------------------

    Doubly Occupied:                                                      

       1A    -11.237055     2A    -11.235368     3A    -11.214614  
       4A     -1.036249     5A     -0.947671     6A     -0.793318  
       7A     -0.646050     8A     -0.586855     9A     -0.547819  
      10A     -0.547202    11A     -0.544398    12A     -0.506322  
      13A     -0.375621  

    Virtual:                                                              

      14A      0.037200    15A      0.045345    16A      0.047756  
      17A      0.066112    18A      0.067863    19A      0.071413  
      20A      0.091345    21A      0.098092    22A      0.101919  
      23A      0.132285    24A      0.152223    25A      0.153594  
      26A      0.157356    27A      0.169189    28A      0.171872  
      29A      0.177317    30A      0.193915    31A      0.209064  
      32A      0.210627    33A      0.220240    34A      0.240895  
      35A      0.276972    36A      0.285015    37A      0.299183  
      38A      0.306725    39A      0.307118    40A      0.324300  
      41A      0.384690    42A      0.393285    43A      0.413831  
      44A      0.421938    45A      0.422149    46A      0.428201  
      47A      0.440982    48A      0.447632    49A      0.459157  
      50A      0.459663    51A      0.470588    52A      0.487200  
      53A      0.526773    54A      0.538655    55A      0.553644  
      56A      0.561017    57A      0.563549    58A      0.573662  
      59A      0.586907    60A      0.595674    61A      0.598465  
      62A      0.614345    63A      0.628537    64A      0.634440  
      65A      0.647425    66A      0.670459    67A      0.679335  
      68A      0.686568    69A      0.693768    70A      0.712072  
      71A      0.731574    72A      0.746848    73A      0.750183  
      74A      0.782311    75A      0.807090    76A      0.811320  
      77A      0.829306    78A      0.861689    79A      0.869024  
      80A      0.878587    81A      0.885211    82A      0.914784  
      83A      0.921511    84A      1.028337    85A      1.039604  
      86A      1.092027    87A      1.113131    88A      1.187544  
      89A      1.222080    90A      1.255359    91A      1.298761  
      92A      1.351492    93A      1.358773    94A      1.372023  
      95A      1.511502    96A      1.517597    97A      1.541250  
      98A      1.614414    99A      1.620474   100A      1.675990  
     101A      1.728866   102A      1.752125   103A      1.796042  
     104A      1.803892   105A      1.840791   106A      1.883674  
     107A      1.905943   108A      1.914505   109A      1.922971  
     110A      1.959840   111A      2.027033   112A      2.068780  
     113A      2.086349   114A      2.103581   115A      2.115329  
     116A      2.128113   117A      2.158466   118A      2.198966  
     119A      2.225905   120A      2.241585   121A      2.256185  
     122A      2.274586   123A      2.348504   124A      2.352298  
     125A      2.385894   126A      2.407848   127A      2.461415  
     128A      2.517067   129A      2.644353   130A      2.675641  
     131A      2.719177   132A      2.760832   133A      2.807065  
     134A      2.843493   135A      2.878084   136A      2.943733  
     137A      2.965282   138A      3.005822   139A      3.038798  
     140A      3.466336   141A      3.541587  

    Final Occupation by Irrep:
              A 
    DOCC [    13 ]

  @DF-RHF Final Energy:  -118.24144322773223

   => Energetics <=

    Nuclear Repulsion Energy =             70.4066430205973433
    One-Electron Energy =                -296.8590876220994232
    Two-Electron Energy =                 108.2110013737698324
    Total Energy =                       -118.2414432277322334

Computation Completed


Properties will be evaluated at   0.000000,   0.000000,   0.000000 [a0]

Properties computed using the SCF density matrix

  Nuclear Dipole Moment: [e a0]
     X:    -3.6207      Y:    -0.0008      Z:     0.0845

  Electronic Dipole Moment: [e a0]
     X:     3.6062      Y:     0.0009      Z:    -0.0823

  Dipole Moment: [e a0]
     X:    -0.0146      Y:     0.0002      Z:     0.0022     Total:     0.0147

  Dipole Moment: [D]
     X:    -0.0370      Y:     0.0005      Z:     0.0056     Total:     0.0374


*** tstop() called on node49.bme.utexas.edu at Fri Apr 24 00:51:36 2020
Module time:
	user time   =      13.09 seconds =       0.22 minutes
	system time =       0.43 seconds =       0.01 minutes
	total time  =          3 seconds =       0.05 minutes
Total time:
	user time   =      13.09 seconds =       0.22 minutes
	system time =       0.43 seconds =       0.01 minutes
	total time  =          3 seconds =       0.05 minutes

  //>>>>>>>>>>>>>>>>>>>>>>>>>>>>>>>>>>>//
  //            Monomer A HF           //
  //<<<<<<<<<<<<<<<<<<<<<<<<<<<<<<<<<<<//


*** tstart() called on node49.bme.utexas.edu
*** at Fri Apr 24 00:51:36 2020

   => Loading Basis Set <=

    Name: AUG-CC-PVDZ
    Role: ORBITAL
    Keyword: BASIS
    atoms 1, 4, 7        entry C          line   182 file /home/liuchw/anaconda3/envs/psi4env/share/psi4/basis/aug-cc-pvdz.gbs 
    atoms 2-3, 5-6, 8-11 entry H          line    40 file /home/liuchw/anaconda3/envs/psi4env/share/psi4/basis/aug-cc-pvdz.gbs 


         ---------------------------------------------------------
                                   SCF
               by Justin Turney, Rob Parrish, Andy Simmonett
                          and Daniel G. A. Smith
                              RHF Reference
                        8 Threads,  19073 MiB Core
         ---------------------------------------------------------

  ==> Geometry <==

    Molecular point group: c1
    Full point group: C1

    Geometry (in Angstrom), charge = 0, multiplicity = 1:

       Center              X                  Y                   Z               Mass       
    ------------   -----------------  -----------------  -----------------  -----------------
         C            1.242433912325     0.665049691723    -0.030086483081    12.000000000000
         H            2.123753912325     1.290209691723    -0.031056483081     1.007825032230
         H            0.281883912325     1.159729691723    -0.029086483081     1.007825032230
         C            1.336413912325    -0.663760308277    -0.030106483081    12.000000000000
         H            0.455043912325    -1.288770308277    -0.029136483081     1.007825032230
         H            2.296663912325    -1.159170308277    -0.031106483081     1.007825032230
      Gh(C)          -2.254476087675    -0.001220308277     0.052623516919    12.000000000000
      Gh(H)          -2.545046087675     1.044829691723     0.052493516919     1.007825032230
      Gh(H)          -1.664476087675    -0.212620308277    -0.833906483081     1.007825032230
      Gh(H)          -1.665416087675    -0.212660308277     0.939783516919     1.007825032230
      Gh(H)          -3.144646087675    -0.622370308277     0.052143516919     1.007825032230

  Running in c1 symmetry.

  Rotational constants: A =      0.85063  B =      0.12502  C =      0.11128 [cm^-1]
  Rotational constants: A =  25501.24966  B =   3747.95430  C =   3336.16133 [MHz]
  Nuclear repulsion =   33.432345192272848

  Charge       = 0
  Multiplicity = 1
  Electrons    = 16
  Nalpha       = 8
  Nbeta        = 8

  ==> Algorithm <==

  SCF Algorithm Type is DF.
  DIIS enabled.
  MOM disabled.
  Fractional occupation disabled.
  Guess Type is SAD.
  Energy threshold   = 1.00e-08
  Density threshold  = 1.00e-08
  Integral threshold = 0.00e+00

  ==> Primary Basis <==

  Basis Set: AUG-CC-PVDZ
    Blend: AUG-CC-PVDZ
    Number of shells: 67
    Number of basis function: 141
    Number of Cartesian functions: 147
    Spherical Harmonics?: true
    Max angular momentum: 2

   => Loading Basis Set <=

    Name: (AUG-CC-PVDZ AUX)
    Role: JKFIT
    Keyword: DF_BASIS_SCF
    atoms 1, 4, 7        entry C          line   154 file /home/liuchw/anaconda3/envs/psi4env/share/psi4/basis/aug-cc-pvdz-jkfit.gbs 
    atoms 2-3, 5-6, 8-11 entry H          line    70 file /home/liuchw/anaconda3/envs/psi4env/share/psi4/basis/aug-cc-pvdz-jkfit.gbs 

  ==> Pre-Iterations <==

   -------------------------------------------------------
    Irrep   Nso     Nmo     Nalpha   Nbeta   Ndocc  Nsocc
   -------------------------------------------------------
     A        141     141       0       0       0       0
   -------------------------------------------------------
    Total     141     141       8       8       8       0
   -------------------------------------------------------

  ==> Integral Setup <==

  ==> DiskDFJK: Density-Fitted J/K Matrices <==

    J tasked:                  Yes
    K tasked:                  Yes
    wK tasked:                  No
    OpenMP threads:              8
    Integrals threads:           8
    Memory [MiB]:            14305
    Algorithm:                Core
    Integral Cache:           LOAD
    Schwarz Cutoff:          1E-12
    Fitting Condition:       1E-10

   => Auxiliary Basis Set <=

  Basis Set: (AUG-CC-PVDZ AUX)
    Blend: AUG-CC-PVDZ-JKFIT
    Number of shells: 180
    Number of basis function: 514
    Number of Cartesian functions: 583
    Spherical Harmonics?: true
    Max angular momentum: 3

  Minimum eigenvalue in the overlap matrix is 8.2983533055E-05.
  Using Symmetric Orthogonalization.

  SCF Guess: Superposition of Atomic Densities via on-the-fly atomic UHF.

  ==> Iterations <==

                           Total Energy        Delta E     RMS |[F,P]|

   @DF-RHF iter SAD:   -77.26072426424432   -7.72607e+01   0.00000e+00 
   @DF-RHF iter   1:   -77.96626334396809   -7.05539e-01   2.47783e-03 DIIS
   @DF-RHF iter   2:   -78.03251206088616   -6.62487e-02   9.81948e-04 DIIS
   @DF-RHF iter   3:   -78.04316716178458   -1.06551e-02   1.56002e-04 DIIS
   @DF-RHF iter   4:   -78.04369659430326   -5.29433e-04   1.46081e-05 DIIS
   @DF-RHF iter   5:   -78.04370178017160   -5.18587e-06   1.60303e-06 DIIS
   @DF-RHF iter   6:   -78.04370185069290   -7.05213e-08   1.98650e-07 DIIS
   @DF-RHF iter   7:   -78.04370185164953   -9.56632e-10   3.00910e-08 DIIS
   @DF-RHF iter   8:   -78.04370185167249   -2.29647e-11   4.74344e-09 DIIS
  Energy and wave function converged.


  ==> Post-Iterations <==

    Orbital Energies [Eh]
    ---------------------

    Doubly Occupied:                                                      

       1A    -11.238598     2A    -11.236916     3A     -1.036990  
       4A     -0.794238     5A     -0.645134     6A     -0.587350  
       7A     -0.507995     8A     -0.376687  

    Virtual:                                                              

       9A      0.030025    10A      0.043313    11A      0.045672  
      12A      0.063329    13A      0.064445    14A      0.069741  
      15A      0.091815    16A      0.098196    17A      0.102032  
      18A      0.121256    19A      0.130781    20A      0.145797  
      21A      0.151290    22A      0.154198    23A      0.160921  
      24A      0.165437    25A      0.183986    26A      0.200690  
      27A      0.209873    28A      0.218959    29A      0.246083  
      30A      0.282192    31A      0.286376    32A      0.303425  
      33A      0.322413    34A      0.336526    35A      0.342891  
      36A      0.359716    37A      0.379746    38A      0.387580  
      39A      0.414291    40A      0.419359    41A      0.428912  
      42A      0.436325    43A      0.444468    44A      0.452388  
      45A      0.467406    46A      0.473368    47A      0.475994  
      48A      0.530934    49A      0.540120    50A      0.556715  
      51A      0.562653    52A      0.582094    53A      0.586421  
      54A      0.597971    55A      0.599975    56A      0.611209  
      57A      0.618832    58A      0.631263    59A      0.652244  
      60A      0.660422    61A      0.686321    62A      0.704337  
      63A      0.713925    64A      0.726250    65A      0.738438  
      66A      0.769551    67A      0.779638    68A      0.781420  
      69A      0.804328    70A      0.807950    71A      0.823198  
      72A      0.828239    73A      0.849815    74A      0.866059  
      75A      0.877592    76A      0.885555    77A      0.892289  
      78A      0.895916    79A      0.936248    80A      0.947239  
      81A      0.962705    82A      1.026539    83A      1.092217  
      84A      1.124748    85A      1.255161    86A      1.269679  
      87A      1.352691    88A      1.510851    89A      1.513735  
      90A      1.516918    91A      1.617203    92A      1.675898  
      93A      1.724609    94A      1.786539    95A      1.795462  
      96A      1.821432    97A      1.825285    98A      1.883668  
      99A      1.899470   100A      1.949040   101A      2.036241  
     102A      2.062872   103A      2.096457   104A      2.111677  
     105A      2.115227   106A      2.127844   107A      2.154394  
     108A      2.210759   109A      2.214386   110A      2.264203  
     111A      2.268431   112A      2.292288   113A      2.298616  
     114A      2.333541   115A      2.343900   116A      2.360110  
     117A      2.407573   118A      2.420904   119A      2.461730  
     120A      2.511043   121A      2.655639   122A      2.687082  
     123A      2.701642   124A      2.736939   125A      2.743707  
     126A      2.804800   127A      2.821032   128A      2.860877  
     129A      2.964579   130A      3.081951   131A      3.142693  
     132A      3.168223   133A      3.216848   134A      3.310645  
     135A      3.465481   136A      3.545556   137A      3.591845  
     138A      5.107224   139A      5.116677   140A      5.149760  
     141A     18.469118  

    Final Occupation by Irrep:
              A 
    DOCC [     8 ]

  @DF-RHF Final Energy:   -78.04370185167249

   => Energetics <=

    Nuclear Repulsion Energy =             33.4323451922728481
    One-Electron Energy =                -170.1042800642864563
    Two-Electron Energy =                  58.6282330203410993
    Total Energy =                        -78.0437018516724947

Computation Completed


Properties will be evaluated at   0.000000,   0.000000,   0.000000 [a0]

Properties computed using the SCF density matrix

  Nuclear Dipole Moment: [e a0]
     X:    38.9859      Y:     0.0184      Z:    -0.9100

  Electronic Dipole Moment: [e a0]
     X:   -38.9843      Y:    -0.0183      Z:     0.9100

  Dipole Moment: [e a0]
     X:     0.0016      Y:     0.0001      Z:     0.0001     Total:     0.0016

  Dipole Moment: [D]
     X:     0.0040      Y:     0.0003      Z:     0.0001     Total:     0.0040


*** tstop() called on node49.bme.utexas.edu at Fri Apr 24 00:51:38 2020
Module time:
	user time   =       8.97 seconds =       0.15 minutes
	system time =       0.30 seconds =       0.01 minutes
	total time  =          2 seconds =       0.03 minutes
Total time:
	user time   =      22.12 seconds =       0.37 minutes
	system time =       0.74 seconds =       0.01 minutes
	total time  =          5 seconds =       0.08 minutes

  //>>>>>>>>>>>>>>>>>>>>>>>>>>>>>>>>>>>//
  //            Monomer B HF           //
  //<<<<<<<<<<<<<<<<<<<<<<<<<<<<<<<<<<<//


*** tstart() called on node49.bme.utexas.edu
*** at Fri Apr 24 00:51:38 2020

   => Loading Basis Set <=

    Name: AUG-CC-PVDZ
    Role: ORBITAL
    Keyword: BASIS
    atoms 1, 4, 7        entry C          line   182 file /home/liuchw/anaconda3/envs/psi4env/share/psi4/basis/aug-cc-pvdz.gbs 
    atoms 2-3, 5-6, 8-11 entry H          line    40 file /home/liuchw/anaconda3/envs/psi4env/share/psi4/basis/aug-cc-pvdz.gbs 


         ---------------------------------------------------------
                                   SCF
               by Justin Turney, Rob Parrish, Andy Simmonett
                          and Daniel G. A. Smith
                              RHF Reference
                        8 Threads,  19073 MiB Core
         ---------------------------------------------------------

  ==> Geometry <==

    Molecular point group: c1
    Full point group: C1

    Geometry (in Angstrom), charge = 0, multiplicity = 1:

       Center              X                  Y                   Z               Mass       
    ------------   -----------------  -----------------  -----------------  -----------------
      Gh(C)           1.242433912325     0.665049691723    -0.030086483081    12.000000000000
      Gh(H)           2.123753912325     1.290209691723    -0.031056483081     1.007825032230
      Gh(H)           0.281883912325     1.159729691723    -0.029086483081     1.007825032230
      Gh(C)           1.336413912325    -0.663760308277    -0.030106483081    12.000000000000
      Gh(H)           0.455043912325    -1.288770308277    -0.029136483081     1.007825032230
      Gh(H)           2.296663912325    -1.159170308277    -0.031106483081     1.007825032230
         C           -2.254476087675    -0.001220308277     0.052623516919    12.000000000000
         H           -2.545046087675     1.044829691723     0.052493516919     1.007825032230
         H           -1.664476087675    -0.212620308277    -0.833906483081     1.007825032230
         H           -1.665416087675    -0.212660308277     0.939783516919     1.007825032230
         H           -3.144646087675    -0.622370308277     0.052143516919     1.007825032230

  Running in c1 symmetry.

  Rotational constants: A =      0.85063  B =      0.12502  C =      0.11128 [cm^-1]
  Rotational constants: A =  25501.24966  B =   3747.95430  C =   3336.16133 [MHz]
  Nuclear repulsion =   13.489488031258347

  Charge       = 0
  Multiplicity = 1
  Electrons    = 10
  Nalpha       = 5
  Nbeta        = 5

  ==> Algorithm <==

  SCF Algorithm Type is DF.
  DIIS enabled.
  MOM disabled.
  Fractional occupation disabled.
  Guess Type is SAD.
  Energy threshold   = 1.00e-08
  Density threshold  = 1.00e-08
  Integral threshold = 0.00e+00

  ==> Primary Basis <==

  Basis Set: AUG-CC-PVDZ
    Blend: AUG-CC-PVDZ
    Number of shells: 67
    Number of basis function: 141
    Number of Cartesian functions: 147
    Spherical Harmonics?: true
    Max angular momentum: 2

   => Loading Basis Set <=

    Name: (AUG-CC-PVDZ AUX)
    Role: JKFIT
    Keyword: DF_BASIS_SCF
    atoms 1, 4, 7        entry C          line   154 file /home/liuchw/anaconda3/envs/psi4env/share/psi4/basis/aug-cc-pvdz-jkfit.gbs 
    atoms 2-3, 5-6, 8-11 entry H          line    70 file /home/liuchw/anaconda3/envs/psi4env/share/psi4/basis/aug-cc-pvdz-jkfit.gbs 

  ==> Pre-Iterations <==

   -------------------------------------------------------
    Irrep   Nso     Nmo     Nalpha   Nbeta   Ndocc  Nsocc
   -------------------------------------------------------
     A        141     141       0       0       0       0
   -------------------------------------------------------
    Total     141     141       5       5       5       0
   -------------------------------------------------------

  ==> Integral Setup <==

  ==> DiskDFJK: Density-Fitted J/K Matrices <==

    J tasked:                  Yes
    K tasked:                  Yes
    wK tasked:                  No
    OpenMP threads:              8
    Integrals threads:           8
    Memory [MiB]:            14305
    Algorithm:                Core
    Integral Cache:           LOAD
    Schwarz Cutoff:          1E-12
    Fitting Condition:       1E-10

   => Auxiliary Basis Set <=

  Basis Set: (AUG-CC-PVDZ AUX)
    Blend: AUG-CC-PVDZ-JKFIT
    Number of shells: 180
    Number of basis function: 514
    Number of Cartesian functions: 583
    Spherical Harmonics?: true
    Max angular momentum: 3

  Minimum eigenvalue in the overlap matrix is 8.2983533055E-05.
  Using Symmetric Orthogonalization.

  SCF Guess: Superposition of Atomic Densities via on-the-fly atomic UHF.

  ==> Iterations <==

                           Total Energy        Delta E     RMS |[F,P]|

   @DF-RHF iter SAD:   -39.62927520656927   -3.96293e+01   0.00000e+00 
   @DF-RHF iter   1:   -40.12477434310126   -4.95499e-01   2.53182e-03 DIIS
   @DF-RHF iter   2:   -40.18844193025546   -6.36676e-02   1.00733e-03 DIIS
   @DF-RHF iter   3:   -40.19918782986105   -1.07459e-02   1.61898e-04 DIIS
   @DF-RHF iter   4:   -40.19989264958451   -7.04820e-04   1.91002e-05 DIIS
   @DF-RHF iter   5:   -40.19990149018675   -8.84060e-06   1.50211e-06 DIIS
   @DF-RHF iter   6:   -40.19990155716314   -6.69764e-08   1.43958e-07 DIIS
   @DF-RHF iter   7:   -40.19990155761696   -4.53817e-10   9.72919e-09 DIIS
  Energy and wave function converged.


  ==> Post-Iterations <==

    Orbital Energies [Eh]
    ---------------------

    Doubly Occupied:                                                      

       1A    -11.213388     2A     -0.945087     3A     -0.544932  
       4A     -0.544827     5A     -0.544588  

    Virtual:                                                              

       6A      0.027306     7A      0.043744     8A      0.045673  
       9A      0.062911    10A      0.066198    11A      0.069133  
      12A      0.090676    13A      0.095472    14A      0.109373  
      15A      0.115401    16A      0.127621    17A      0.141937  
      18A      0.153812    19A      0.154232    20A      0.164929  
      21A      0.169640    22A      0.186827    23A      0.194109  
      24A      0.208108    25A      0.219683    26A      0.285085  
      27A      0.289402    28A      0.309771    29A      0.312360  
      30A      0.318041    31A      0.340778    32A      0.356022  
      33A      0.387622    34A      0.401234    35A      0.412977  
      36A      0.423003    37A      0.435199    38A      0.436525  
      39A      0.447974    40A      0.448896    41A      0.453429  
      42A      0.464067    43A      0.475007    44A      0.483342  
      45A      0.500128    46A      0.535892    47A      0.540601  
      48A      0.550705    49A      0.557937    50A      0.577527  
      51A      0.587134    52A      0.588798    53A      0.608406  
      54A      0.621296    55A      0.635800    56A      0.651831  
      57A      0.678347    58A      0.697845    59A      0.711907  
      60A      0.715449    61A      0.733147    62A      0.738026  
      63A      0.765630    64A      0.768424    65A      0.798536  
      66A      0.801713    67A      0.818151    68A      0.825991  
      69A      0.859548    70A      0.872647    71A      0.874829  
      72A      0.884778    73A      0.914620    74A      0.948823  
      75A      0.953393    76A      0.971043    77A      1.042744  
      78A      1.049186    79A      1.069918    80A      1.126512  
      81A      1.135894    82A      1.194684    83A      1.240181  
      84A      1.279204    85A      1.360989    86A      1.401559  
      87A      1.610916    88A      1.756462    89A      1.820475  
      90A      1.914233    91A      1.922266    92A      1.940720  
      93A      2.025949    94A      2.048922    95A      2.054822  
      96A      2.114171    97A      2.117915    98A      2.119876  
      99A      2.195252   100A      2.197815   101A      2.230824  
     102A      2.236001   103A      2.258752   104A      2.267927  
     105A      2.280322   106A      2.294688   107A      2.324743  
     108A      2.356340   109A      2.362261   110A      2.415421  
     111A      2.420837   112A      2.434454   113A      2.448872  
     114A      2.519741   115A      2.569221   116A      2.587111  
     117A      2.625206   118A      2.648693   119A      2.725310  
     120A      2.784595   121A      2.795069   122A      2.828015  
     123A      2.873612   124A      2.889466   125A      2.928658  
     126A      2.946696   127A      3.005429   128A      3.046795  
     129A      3.142054   130A      3.190130   131A      3.335232  
     132A      3.436408   133A      3.504397   134A      3.985512  
     135A      4.037688   136A      4.244137   137A      5.236805  
     138A      5.289547   139A      5.657751   140A     18.151215  
     141A     18.944039  

    Final Occupation by Irrep:
              A 
    DOCC [     5 ]

  @DF-RHF Final Energy:   -40.19990155761696

   => Energetics <=

    Nuclear Repulsion Energy =             13.4894880312583467
    One-Electron Energy =                 -79.7931371880881102
    Two-Electron Energy =                  26.1037475992128059
    Total Energy =                        -40.1999015576169541

Computation Completed


Properties will be evaluated at   0.000000,   0.000000,   0.000000 [a0]

Properties computed using the SCF density matrix

  Nuclear Dipole Moment: [e a0]
     X:   -42.6066      Y:    -0.0192      Z:     0.9945

  Electronic Dipole Moment: [e a0]
     X:    42.6067      Y:     0.0193      Z:    -0.9944

  Dipole Moment: [e a0]
     X:     0.0001      Y:     0.0001      Z:     0.0000     Total:     0.0002

  Dipole Moment: [D]
     X:     0.0002      Y:     0.0003      Z:     0.0001     Total:     0.0004


*** tstop() called on node49.bme.utexas.edu at Fri Apr 24 00:51:39 2020
Module time:
	user time   =       7.87 seconds =       0.13 minutes
	system time =       0.22 seconds =       0.00 minutes
	total time  =          1 seconds =       0.02 minutes
Total time:
	user time   =      30.02 seconds =       0.50 minutes
	system time =       0.96 seconds =       0.02 minutes
	total time  =          6 seconds =       0.10 minutes
  Constructing Basis Sets for SAPT...

   => Loading Basis Set <=

    Name: (AUG-CC-PVDZ AUX)
    Role: RIFIT
    Keyword: DF_BASIS_SAPT
    atoms 1, 4, 7        entry C          line   112 file /home/liuchw/anaconda3/envs/psi4env/share/psi4/basis/aug-cc-pvdz-ri.gbs 
    atoms 2-3, 5-6, 8-11 entry H          line    30 file /home/liuchw/anaconda3/envs/psi4env/share/psi4/basis/aug-cc-pvdz-ri.gbs 


  //>>>>>>>>>>>>>>>>>>>>>>>>>>>>>>>>>>>//
  //               SAPT2+              //
  //<<<<<<<<<<<<<<<<<<<<<<<<<<<<<<<<<<<//


*** tstart() called on node49.bme.utexas.edu
*** at Fri Apr 24 00:51:39 2020

        SAPT2+  
    Ed Hohenstein
     6 June 2009

      Orbital Information
  --------------------------
    NSO        =       141
    NMO        =       141
    NRI        =       400
    NOCC A     =         8
    NOCC B     =         5
    FOCC A     =         2
    FOCC B     =         1
    NVIR A     =       133
    NVIR B     =       136

    Estimated memory usage: 87.6 MB

    Natural Orbital Cutoff:   1.000E-06
    Disp(T3) Truncation:            Yes
    CCD (vv|vv) Truncation:         Yes
    MBPT T2 Truncation:             Yes

    Monomer A: 59 virtual orbitals dropped
    Monomer B: 81 virtual orbitals dropped

    Elst10,r            =    -0.001469414296 [Eh]
    Exch10 (S^2)        =     0.003955320496 [Eh]
    Exch10              =     0.003963475942 [Eh]
    Ind20,r (A<-B)      =    -0.000210574364 [Eh]
    Ind20,r (B<-A)      =    -0.000352474629 [Eh]
    Ind20,r             =    -0.000563048993 [Eh]
    Exch-Ind20,r (A<-B) =     0.000183950895 [Eh]
    Exch-Ind20,r (B<-A) =     0.000291390752 [Eh]
    Exch-Ind20,r        =     0.000475341647 [Eh]
    Disp20              =    -0.003485888362 [Eh]
    Disp20 (NO)         =    -0.003198530836 [Eh]
    Exch-Disp20         =     0.000338409223 [Eh]
    Elst12,r            =    -0.000173362476 [Eh]
    Exch11              =     0.000070129158 [Eh]
    Exch12              =     0.000365906335 [Eh]
    Ind22               =    -0.000079933038 [Eh]
    Disp21              =     0.000053227979 [Eh]
    Disp22 (SDQ)        =     0.000183934332 [Eh]

    (i =   1 of   4)          0 seconds
    (i =   2 of   4)          0 seconds
    (i =   3 of   4)          0 seconds
    (i =   4 of   4)          1 seconds

    Disp220 (T)         =    -0.000209181902 [Eh]

    (i =   1 of   6)          0 seconds
    (i =   2 of   6)          0 seconds
    (i =   3 of   6)          0 seconds
    (i =   4 of   6)          0 seconds
    (i =   5 of   6)          0 seconds
    (i =   6 of   6)          0 seconds

    Disp202 (T)         =    -0.000180142071 [Eh]

    Disp22 (T)          =    -0.000389323974 [Eh]

    Est. Disp220 (T)    =    -0.000227974904 [Eh]
    Est. Disp202 (T)    =    -0.000196326120 [Eh]

    Est. Disp22 (T)     =    -0.000424301024 [Eh]

    SAPT Results 
  --------------------------------------------------------------------------------------------------------
    Electrostatics                 -1.64277677 [mEh]      -1.03085799 [kcal/mol]      -4.31310982 [kJ/mol]
      Elst10,r                     -1.46941430 [mEh]      -0.92207139 [kcal/mol]      -3.85794670 [kJ/mol]
      Elst12,r                     -0.17336248 [mEh]      -0.10878660 [kcal/mol]      -0.45516312 [kJ/mol]

    Exchange                        4.39951143 [mEh]       2.76073511 [kcal/mol]      11.55091568 [kJ/mol]
      Exch10                        3.96347594 [mEh]       2.48711870 [kcal/mol]      10.40610465 [kJ/mol]
      Exch10(S^2)                   3.95532050 [mEh]       2.48200108 [kcal/mol]      10.38469253 [kJ/mol]
      Exch11(S^2)                   0.07012916 [mEh]       0.04400671 [kcal/mol]       0.18412408 [kJ/mol]
      Exch12(S^2)                   0.36590633 [mEh]       0.22960969 [kcal/mol]       0.96068695 [kJ/mol]

    Induction                      -0.34633143 [mEh]      -0.21732625 [kcal/mol]      -0.90929304 [kJ/mol]
      Ind20,r                      -0.56304899 [mEh]      -0.35331858 [kcal/mol]      -1.47828493 [kJ/mol]
      Ind22                        -0.07993304 [mEh]      -0.05015874 [kcal/mol]      -0.20986416 [kJ/mol]
      Exch-Ind20,r                  0.47534165 [mEh]       0.29828139 [kcal/mol]       1.24800932 [kJ/mol]
      Exch-Ind22                    0.06748170 [mEh]       0.04234540 [kcal/mol]       0.17717317 [kJ/mol]
      delta HF,r (2)               -0.24617274 [mEh]      -0.15447573 [kcal/mol]      -0.64632645 [kJ/mol]

    Dispersion                     -3.33461785 [mEh]      -2.09250429 [kcal/mol]      -8.75503797 [kJ/mol]
      Disp20                       -3.48588836 [mEh]      -2.18742797 [kcal/mol]      -9.15219863 [kJ/mol]
      Disp21                        0.05322798 [mEh]       0.03340106 [kcal/mol]       0.13975004 [kJ/mol]
      Disp22 (SDQ)                  0.18393433 [mEh]       0.11542054 [kcal/mol]       0.48291952 [kJ/mol]
      Disp22 (T)                   -0.38932397 [mEh]      -0.24430448 [kcal/mol]      -1.02216995 [kJ/mol]
      Est. Disp22 (T)              -0.42430102 [mEh]      -0.26625291 [kcal/mol]      -1.11400218 [kJ/mol]
      Exch-Disp20                   0.33840922 [mEh]       0.21235499 [kcal/mol]       0.88849329 [kJ/mol]

  Total HF                          2.16018156 [mEh]       1.35553439 [kcal/mol]       5.67155590 [kJ/mol]
  Total SAPT0                      -0.98729758 [mEh]      -0.61953859 [kcal/mol]      -2.59214944 [kJ/mol]
  Total SAPT2                      -0.73707591 [mEh]      -0.46252211 [kcal/mol]      -1.93519252 [kJ/mol]
  Total SAPT2+                     -0.92421462 [mEh]      -0.57995343 [kcal/mol]      -2.42652515 [kJ/mol]

  Special recipe for scaled SAPT0 (see Manual):
    Electrostatics sSAPT0          -1.46941430 [mEh]      -0.92207139 [kcal/mol]      -3.85794670 [kJ/mol]
    Exchange sSAPT0                 3.96347594 [mEh]       2.48711870 [kcal/mol]      10.40610465 [kJ/mol]
    Induction sSAPT0               -0.33093371 [mEh]      -0.20766404 [kcal/mol]      -0.86886634 [kJ/mol]
    Dispersion sSAPT0              -3.14538153 [mEh]      -1.97375671 [kcal/mol]      -8.25819807 [kJ/mol]
  Total sSAPT0                     -0.98225360 [mEh]      -0.61637344 [kcal/mol]      -2.57890646 [kJ/mol]
  --------------------------------------------------------------------------------------------------------

*** tstop() called on node49.bme.utexas.edu at Fri Apr 24 00:51:45 2020
Module time:
	user time   =      44.92 seconds =       0.75 minutes
	system time =       2.54 seconds =       0.04 minutes
	total time  =          6 seconds =       0.10 minutes
Total time:
	user time   =      75.62 seconds =       1.26 minutes
	system time =       3.53 seconds =       0.06 minutes
	total time  =         12 seconds =       0.20 minutes

    Psi4 stopped on: Friday, 24 April 2020 12:51AM
    Psi4 wall time for execution: 0:00:11.59

*** Psi4 exiting successfully. Buy a developer a beer!
