
    -----------------------------------------------------------------------
          Psi4: An Open-Source Ab Initio Electronic Structure Package
                               Psi4 1.4a2.dev224 

                         Git: Rev {master} e453b16 


    R. M. Parrish, L. A. Burns, D. G. A. Smith, A. C. Simmonett,
    A. E. DePrince III, E. G. Hohenstein, U. Bozkaya, A. Yu. Sokolov,
    R. Di Remigio, R. M. Richard, J. F. Gonthier, A. M. James,
    H. R. McAlexander, A. Kumar, M. Saitow, X. Wang, B. P. Pritchard,
    P. Verma, H. F. Schaefer III, K. Patkowski, R. A. King, E. F. Valeev,
    F. A. Evangelista, J. M. Turney, T. D. Crawford, and C. D. Sherrill,
    J. Chem. Theory Comput. 13(7) pp 3185--3197 (2017).
    (doi: 10.1021/acs.jctc.7b00174)


                         Additional Contributions by
    P. Kraus, H. Kruse, M. H. Lechner, M. C. Schieber, R. A. Shaw,
    A. Alenaizan, R. Galvelis, Z. L. Glick, S. Lehtola, and J. P. Misiewicz

    -----------------------------------------------------------------------


    Psi4 started on: Thursday, 23 April 2020 05:16PM

    Process ID: 24639
    Host:       node47.bme.utexas.edu
    PSIDATADIR: /home/liuchw/anaconda3/envs/psi4env/share/psi4
    Memory:     500.0 MiB
    Threads:    8
    
  ==> Input File <==

--------------------------------------------------------------------------
#Generated by lconvert.py for sapt job

memory 20 GB

molecule  {
0 1
  C      -1.635460   -0.589710    0.000260
  C      -1.253730    0.687370   -0.000210
  H      -1.799160   -1.127790   -0.922420
  H      -1.798090   -1.127430    0.923340
  H      -1.091050    1.226750    0.921740
  H      -1.092110    1.226260   -0.922630
--
0 1
  N       4.123860    0.031590   -0.000640
  H       4.507230   -0.438600    0.808820
  H       3.133200   -0.177370   -0.002080
  H       4.511010   -0.444620   -0.804770
units angstrom
no_reorient
symmetry c1
}

set {
scf_type DF
basis aug-cc-pvdz
freeze_core True
guess SAD
}
energy('sapt2+')
--------------------------------------------------------------------------

  Memory set to  18.626 GiB by Python driver.

Scratch directory: /scratch/liuchw/

  //>>>>>>>>>>>>>>>>>>>>>>>>>>>>>>>>>>>//
  //              Dimer HF             //
  //<<<<<<<<<<<<<<<<<<<<<<<<<<<<<<<<<<<//


*** tstart() called on node47.bme.utexas.edu
*** at Thu Apr 23 17:16:59 2020

   => Loading Basis Set <=

    Name: AUG-CC-PVDZ
    Role: ORBITAL
    Keyword: BASIS
    atoms 1-2       entry C          line   182 file /home/liuchw/anaconda3/envs/psi4env/share/psi4/basis/aug-cc-pvdz.gbs 
    atoms 3-6, 8-10 entry H          line    40 file /home/liuchw/anaconda3/envs/psi4env/share/psi4/basis/aug-cc-pvdz.gbs 
    atoms 7         entry N          line   218 file /home/liuchw/anaconda3/envs/psi4env/share/psi4/basis/aug-cc-pvdz.gbs 


         ---------------------------------------------------------
                                   SCF
               by Justin Turney, Rob Parrish, Andy Simmonett
                          and Daniel G. A. Smith
                              RHF Reference
                        8 Threads,  19073 MiB Core
         ---------------------------------------------------------

  ==> Geometry <==

    Molecular point group: c1
    Full point group: C1

    Geometry (in Angstrom), charge = 0, multiplicity = 1:

       Center              X                  Y                   Z               Mass       
    ------------   -----------------  -----------------  -----------------  -----------------
         C           -2.290114422771    -0.606238211682     0.000400848208    12.000000000000
         C           -1.908384422771     0.670841788318    -0.000069151792    12.000000000000
         H           -2.453814422771    -1.144318211682    -0.922279151792     1.007825032230
         H           -2.452744422771    -1.143958211682     0.923480848208     1.007825032230
         H           -1.745704422771     1.210221788318     0.921880848208     1.007825032230
         H           -1.746764422771     1.209731788318    -0.922489151792     1.007825032230
         N            3.469205577229     0.015061788318    -0.000499151792    14.003074004430
         H            3.852575577229    -0.455128211682     0.808960848208     1.007825032230
         H            2.478545577229    -0.193898211682    -0.001939151792     1.007825032230
         H            3.856355577229    -0.461148211682    -0.804629151792     1.007825032230

  Running in c1 symmetry.

  Rotational constants: A =      0.81809  B =      0.05042  C =      0.04880 [cm^-1]
  Rotational constants: A =  24525.67345  B =   1511.61473  C =   1462.95510 [MHz]
  Nuclear repulsion =   60.493227093140014

  Charge       = 0
  Multiplicity = 1
  Electrons    = 26
  Nalpha       = 13
  Nbeta        = 13

  ==> Algorithm <==

  SCF Algorithm Type is DF.
  DIIS enabled.
  MOM disabled.
  Fractional occupation disabled.
  Guess Type is SAD.
  Energy threshold   = 1.00e-08
  Density threshold  = 1.00e-08
  Integral threshold = 0.00e+00

  ==> Primary Basis <==

  Basis Set: AUG-CC-PVDZ
    Blend: AUG-CC-PVDZ
    Number of shells: 62
    Number of basis function: 132
    Number of Cartesian functions: 138
    Spherical Harmonics?: true
    Max angular momentum: 2

   => Loading Basis Set <=

    Name: (AUG-CC-PVDZ AUX)
    Role: JKFIT
    Keyword: DF_BASIS_SCF
    atoms 1-2       entry C          line   154 file /home/liuchw/anaconda3/envs/psi4env/share/psi4/basis/aug-cc-pvdz-jkfit.gbs 
    atoms 3-6, 8-10 entry H          line    70 file /home/liuchw/anaconda3/envs/psi4env/share/psi4/basis/aug-cc-pvdz-jkfit.gbs 
    atoms 7         entry N          line   212 file /home/liuchw/anaconda3/envs/psi4env/share/psi4/basis/aug-cc-pvdz-jkfit.gbs 

  ==> Pre-Iterations <==

   -------------------------------------------------------
    Irrep   Nso     Nmo     Nalpha   Nbeta   Ndocc  Nsocc
   -------------------------------------------------------
     A        132     132       0       0       0       0
   -------------------------------------------------------
    Total     132     132      13      13      13       0
   -------------------------------------------------------

  ==> Integral Setup <==

  ==> DiskDFJK: Density-Fitted J/K Matrices <==

    J tasked:                  Yes
    K tasked:                  Yes
    wK tasked:                  No
    OpenMP threads:              8
    Integrals threads:           8
    Memory [MiB]:            14305
    Algorithm:                Core
    Integral Cache:           SAVE
    Schwarz Cutoff:          1E-12
    Fitting Condition:       1E-10

   => Auxiliary Basis Set <=

  Basis Set: (AUG-CC-PVDZ AUX)
    Blend: AUG-CC-PVDZ-JKFIT
    Number of shells: 168
    Number of basis function: 482
    Number of Cartesian functions: 548
    Spherical Harmonics?: true
    Max angular momentum: 3

  Minimum eigenvalue in the overlap matrix is 9.9353051668E-05.
  Using Symmetric Orthogonalization.

  SCF Guess: Superposition of Atomic Densities via on-the-fly atomic UHF.

  ==> Iterations <==

                           Total Energy        Delta E     RMS |[F,P]|

   @DF-RHF iter SAD:  -132.90047125557547   -1.32900e+02   0.00000e+00 
   @DF-RHF iter   1:  -134.07497717569495   -1.17451e+00   4.32638e-03 DIIS
   @DF-RHF iter   2:  -134.21035402577272   -1.35377e-01   2.18450e-03 DIIS
   @DF-RHF iter   3:  -134.24788991767210   -3.75359e-02   2.79982e-04 DIIS
   @DF-RHF iter   4:  -134.24912794561297   -1.23803e-03   8.91577e-05 DIIS
   @DF-RHF iter   5:  -134.24921727246374   -8.93269e-05   1.48955e-05 DIIS
   @DF-RHF iter   6:  -134.24922172951707   -4.45705e-06   2.42881e-06 DIIS
   @DF-RHF iter   7:  -134.24922190775467   -1.78238e-07   6.91690e-07 DIIS
   @DF-RHF iter   8:  -134.24922192099396   -1.32393e-08   2.42504e-07 DIIS
   @DF-RHF iter   9:  -134.24922192204377   -1.04981e-09   6.49480e-08 DIIS
   @DF-RHF iter  10:  -134.24922192215587   -1.12095e-10   1.01490e-08 DIIS
   @DF-RHF iter  11:  -134.24922192215919   -3.32534e-12   2.78607e-09 DIIS
  Energy and wave function converged.


  ==> Post-Iterations <==

    Orbital Energies [Eh]
    ---------------------

    Doubly Occupied:                                                      

       1A    -15.549702     2A    -11.240928     3A    -11.239251  
       4A     -1.143360     5A     -1.038766     6A     -0.796397  
       7A     -0.646706     8A     -0.625445     9A     -0.625298  
      10A     -0.589456    11A     -0.509810    12A     -0.428971  
      13A     -0.378724  

    Virtual:                                                              

      14A      0.033328    15A      0.047251    16A      0.047805  
      17A      0.051579    18A      0.065988    19A      0.071411  
      20A      0.082496    21A      0.100149    22A      0.125697  
      23A      0.146340    24A      0.151879    25A      0.156861  
      26A      0.174728    27A      0.174840    28A      0.198193  
      29A      0.202584    30A      0.208112    31A      0.210375  
      32A      0.219471    33A      0.244726    34A      0.258479  
      35A      0.289764    36A      0.300080    37A      0.317734  
      38A      0.326921    39A      0.330700    40A      0.347105  
      41A      0.354172    42A      0.385493    43A      0.401623  
      44A      0.409987    45A      0.421810    46A      0.451466  
      47A      0.462684    48A      0.467539    49A      0.477488  
      50A      0.533953    51A      0.537702    52A      0.543709  
      53A      0.545608    54A      0.547402    55A      0.560241  
      56A      0.565301    57A      0.596658    58A      0.607919  
      59A      0.614030    60A      0.615082    61A      0.624679  
      62A      0.631971    63A      0.650373    64A      0.655232  
      65A      0.660808    66A      0.670157    67A      0.707028  
      68A      0.720235    69A      0.727677    70A      0.730517  
      71A      0.761791    72A      0.802312    73A      0.846096  
      74A      0.869989    75A      0.889088    76A      0.898581  
      77A      0.924395    78A      0.942808    79A      1.012246  
      80A      1.094182    81A      1.152542    82A      1.183774  
      83A      1.218211    84A      1.218305    85A      1.242202  
      86A      1.285660    87A      1.375048    88A      1.451290  
      89A      1.454369    90A      1.516155    91A      1.521560  
      92A      1.632969    93A      1.722155    94A      1.766977  
      95A      1.789976    96A      1.816747    97A      1.830244  
      98A      1.850677    99A      1.886737   100A      1.949285  
     101A      1.965225   102A      2.019598   103A      2.061040  
     104A      2.065430   105A      2.068076   106A      2.107141  
     107A      2.112906   108A      2.120961   109A      2.128195  
     110A      2.143954   111A      2.175349   112A      2.336157  
     113A      2.345076   114A      2.387187   115A      2.395276  
     116A      2.419093   117A      2.440426   118A      2.446268  
     119A      2.478474   120A      2.641440   121A      2.681111  
     122A      2.686757   123A      2.799858   124A      2.820711  
     125A      2.903248   126A      2.913867   127A      2.922467  
     128A      3.117571   129A      3.430804   130A      3.496047  
     131A      3.539377   132A      3.540194  

    Final Occupation by Irrep:
              A 
    DOCC [    13 ]

  @DF-RHF Final Energy:  -134.24922192215919

   => Energetics <=

    Nuclear Repulsion Energy =             60.4932270931400140
    One-Electron Energy =                -299.8592681607792656
    Two-Electron Energy =                 105.1168191454800791
    Total Energy =                       -134.2492219221591654

Computation Completed


Properties will be evaluated at   0.000000,   0.000000,   0.000000 [a0]

Properties computed using the SCF density matrix

  Nuclear Dipole Moment: [e a0]
     X:     1.6665      Y:    -0.9174      Z:     0.0028

  Electronic Dipole Moment: [e a0]
     X:    -1.8092      Y:     0.2889      Z:    -0.0007

  Dipole Moment: [e a0]
     X:    -0.1426      Y:    -0.6284      Z:     0.0021     Total:     0.6444

  Dipole Moment: [D]
     X:    -0.3625      Y:    -1.5973      Z:     0.0054     Total:     1.6379


*** tstop() called on node47.bme.utexas.edu at Thu Apr 23 17:17:01 2020
Module time:
	user time   =      14.17 seconds =       0.24 minutes
	system time =       0.45 seconds =       0.01 minutes
	total time  =          2 seconds =       0.03 minutes
Total time:
	user time   =      14.17 seconds =       0.24 minutes
	system time =       0.45 seconds =       0.01 minutes
	total time  =          2 seconds =       0.03 minutes

  //>>>>>>>>>>>>>>>>>>>>>>>>>>>>>>>>>>>//
  //            Monomer A HF           //
  //<<<<<<<<<<<<<<<<<<<<<<<<<<<<<<<<<<<//


*** tstart() called on node47.bme.utexas.edu
*** at Thu Apr 23 17:17:01 2020

   => Loading Basis Set <=

    Name: AUG-CC-PVDZ
    Role: ORBITAL
    Keyword: BASIS
    atoms 1-2       entry C          line   182 file /home/liuchw/anaconda3/envs/psi4env/share/psi4/basis/aug-cc-pvdz.gbs 
    atoms 3-6, 8-10 entry H          line    40 file /home/liuchw/anaconda3/envs/psi4env/share/psi4/basis/aug-cc-pvdz.gbs 
    atoms 7         entry N          line   218 file /home/liuchw/anaconda3/envs/psi4env/share/psi4/basis/aug-cc-pvdz.gbs 


         ---------------------------------------------------------
                                   SCF
               by Justin Turney, Rob Parrish, Andy Simmonett
                          and Daniel G. A. Smith
                              RHF Reference
                        8 Threads,  19073 MiB Core
         ---------------------------------------------------------

  ==> Geometry <==

    Molecular point group: c1
    Full point group: C1

    Geometry (in Angstrom), charge = 0, multiplicity = 1:

       Center              X                  Y                   Z               Mass       
    ------------   -----------------  -----------------  -----------------  -----------------
         C           -2.290114422771    -0.606238211682     0.000400848208    12.000000000000
         C           -1.908384422771     0.670841788318    -0.000069151792    12.000000000000
         H           -2.453814422771    -1.144318211682    -0.922279151792     1.007825032230
         H           -2.452744422771    -1.143958211682     0.923480848208     1.007825032230
         H           -1.745704422771     1.210221788318     0.921880848208     1.007825032230
         H           -1.746764422771     1.209731788318    -0.922489151792     1.007825032230
      Gh(N)           3.469205577229     0.015061788318    -0.000499151792    14.003074004430
      Gh(H)           3.852575577229    -0.455128211682     0.808960848208     1.007825032230
      Gh(H)           2.478545577229    -0.193898211682    -0.001939151792     1.007825032230
      Gh(H)           3.856355577229    -0.461148211682    -0.804629151792     1.007825032230

  Running in c1 symmetry.

  Rotational constants: A =      0.81809  B =      0.05042  C =      0.04880 [cm^-1]
  Rotational constants: A =  24525.67345  B =   1511.61473  C =   1462.95510 [MHz]
  Nuclear repulsion =   33.419361642044862

  Charge       = 0
  Multiplicity = 1
  Electrons    = 16
  Nalpha       = 8
  Nbeta        = 8

  ==> Algorithm <==

  SCF Algorithm Type is DF.
  DIIS enabled.
  MOM disabled.
  Fractional occupation disabled.
  Guess Type is SAD.
  Energy threshold   = 1.00e-08
  Density threshold  = 1.00e-08
  Integral threshold = 0.00e+00

  ==> Primary Basis <==

  Basis Set: AUG-CC-PVDZ
    Blend: AUG-CC-PVDZ
    Number of shells: 62
    Number of basis function: 132
    Number of Cartesian functions: 138
    Spherical Harmonics?: true
    Max angular momentum: 2

   => Loading Basis Set <=

    Name: (AUG-CC-PVDZ AUX)
    Role: JKFIT
    Keyword: DF_BASIS_SCF
    atoms 1-2       entry C          line   154 file /home/liuchw/anaconda3/envs/psi4env/share/psi4/basis/aug-cc-pvdz-jkfit.gbs 
    atoms 3-6, 8-10 entry H          line    70 file /home/liuchw/anaconda3/envs/psi4env/share/psi4/basis/aug-cc-pvdz-jkfit.gbs 
    atoms 7         entry N          line   212 file /home/liuchw/anaconda3/envs/psi4env/share/psi4/basis/aug-cc-pvdz-jkfit.gbs 

  ==> Pre-Iterations <==

   -------------------------------------------------------
    Irrep   Nso     Nmo     Nalpha   Nbeta   Ndocc  Nsocc
   -------------------------------------------------------
     A        132     132       0       0       0       0
   -------------------------------------------------------
    Total     132     132       8       8       8       0
   -------------------------------------------------------

  ==> Integral Setup <==

  ==> DiskDFJK: Density-Fitted J/K Matrices <==

    J tasked:                  Yes
    K tasked:                  Yes
    wK tasked:                  No
    OpenMP threads:              8
    Integrals threads:           8
    Memory [MiB]:            14305
    Algorithm:                Core
    Integral Cache:           LOAD
    Schwarz Cutoff:          1E-12
    Fitting Condition:       1E-10

   => Auxiliary Basis Set <=

  Basis Set: (AUG-CC-PVDZ AUX)
    Blend: AUG-CC-PVDZ-JKFIT
    Number of shells: 168
    Number of basis function: 482
    Number of Cartesian functions: 548
    Spherical Harmonics?: true
    Max angular momentum: 3

  Minimum eigenvalue in the overlap matrix is 9.9353051668E-05.
  Using Symmetric Orthogonalization.

  SCF Guess: Superposition of Atomic Densities via on-the-fly atomic UHF.

  ==> Iterations <==

                           Total Energy        Delta E     RMS |[F,P]|

   @DF-RHF iter SAD:   -77.25925608270077   -7.72593e+01   0.00000e+00 
   @DF-RHF iter   1:   -77.96628413592343   -7.07028e-01   2.64055e-03 DIIS
   @DF-RHF iter   2:   -78.03239776263443   -6.61136e-02   1.04614e-03 DIIS
   @DF-RHF iter   3:   -78.04301106765580   -1.06133e-02   1.66586e-04 DIIS
   @DF-RHF iter   4:   -78.04354084297046   -5.29775e-04   1.55921e-05 DIIS
   @DF-RHF iter   5:   -78.04354602395019   -5.18098e-06   1.71061e-06 DIIS
   @DF-RHF iter   6:   -78.04354609425107   -7.03009e-08   2.17556e-07 DIIS
   @DF-RHF iter   7:   -78.04354609521950   -9.68427e-10   4.92561e-08 DIIS
   @DF-RHF iter   8:   -78.04354609525272   -3.32250e-11   2.09652e-08 DIIS
   @DF-RHF iter   9:   -78.04354609525804   -5.31486e-12   2.62491e-09 DIIS
  Energy and wave function converged.


  ==> Post-Iterations <==

    Orbital Energies [Eh]
    ---------------------

    Doubly Occupied:                                                      

       1A    -11.238958     2A    -11.237283     3A     -1.036729  
       4A     -0.794528     5A     -0.644769     6A     -0.587571  
       7A     -0.507965     8A     -0.376528  

    Virtual:                                                              

       9A      0.030359    10A      0.046465    11A      0.048420  
      12A      0.050871    13A      0.066554    14A      0.071724  
      15A      0.080093    16A      0.098530    17A      0.121941  
      18A      0.133379    19A      0.143909    20A      0.147342  
      21A      0.158852    22A      0.173710    23A      0.178133  
      24A      0.184824    25A      0.198033    26A      0.206597  
      27A      0.217085    28A      0.230024    29A      0.269308  
      30A      0.295231    31A      0.321602    32A      0.333520  
      33A      0.358295    34A      0.359963    35A      0.383665  
      36A      0.386935    37A      0.399053    38A      0.405320  
      39A      0.409209    40A      0.412866    41A      0.427528  
      42A      0.452847    43A      0.457306    44A      0.473416  
      45A      0.482740    46A      0.503560    47A      0.517932  
      48A      0.540229    49A      0.554511    50A      0.559359  
      51A      0.577091    52A      0.578435    53A      0.602135  
      54A      0.613015    55A      0.615201    56A      0.618441  
      57A      0.622595    58A      0.639459    59A      0.648927  
      60A      0.653401    61A      0.679896    62A      0.714286  
      63A      0.729243    64A      0.732415    65A      0.804574  
      66A      0.811185    67A      0.847677    68A      0.890413  
      69A      0.891049    70A      0.957509    71A      0.958491  
      72A      0.978734    73A      1.004627    74A      1.036532  
      75A      1.039975    76A      1.053587    77A      1.089199  
      78A      1.091315    79A      1.120988    80A      1.187142  
      81A      1.240563    82A      1.287391    83A      1.453030  
      84A      1.456517    85A      1.518271    86A      1.524336  
      87A      1.634254    88A      1.724479    89A      1.769115  
      90A      1.792378    91A      1.852425    92A      1.885342  
      93A      1.904635    94A      1.959184    95A      2.020642  
      96A      2.063402    97A      2.064900    98A      2.074101  
      99A      2.121722   100A      2.121859   101A      2.130763  
     102A      2.145518   103A      2.177154   104A      2.346789  
     105A      2.389048   106A      2.429153   107A      2.432355  
     108A      2.447999   109A      2.476863   110A      2.502419  
     111A      2.571163   112A      2.574156   113A      2.642646  
     114A      2.682922   115A      2.801443   116A      2.822618  
     117A      2.906722   118A      3.118257   119A      3.144775  
     120A      3.154573   121A      3.291638   122A      3.432724  
     123A      3.497935   124A      3.717682   125A      3.726616  
     126A      3.782982   127A      4.190634   128A      4.201615  
     129A      5.110026   130A      6.050085   131A      6.052957  
     132A     25.430626  

    Final Occupation by Irrep:
              A 
    DOCC [     8 ]

  @DF-RHF Final Energy:   -78.04354609525804

   => Energetics <=

    Nuclear Repulsion Energy =             33.4193616420448620
    One-Electron Energy =                -170.0771499346251403
    Two-Electron Energy =                  58.6142421973222412
    Total Energy =                        -78.0435460952580371

Computation Completed


Properties will be evaluated at   0.000000,   0.000000,   0.000000 [a0]

Properties computed using the SCF density matrix

  Nuclear Dipole Moment: [e a0]
     X:   -63.4759      Y:     0.9813      Z:     0.0049

  Electronic Dipole Moment: [e a0]
     X:    63.4754      Y:    -0.9811      Z:    -0.0049

  Dipole Moment: [e a0]
     X:    -0.0005      Y:     0.0003      Z:    -0.0000     Total:     0.0006

  Dipole Moment: [D]
     X:    -0.0013      Y:     0.0007      Z:    -0.0000     Total:     0.0015


*** tstop() called on node47.bme.utexas.edu at Thu Apr 23 17:17:03 2020
Module time:
	user time   =       8.79 seconds =       0.15 minutes
	system time =       0.32 seconds =       0.01 minutes
	total time  =          2 seconds =       0.03 minutes
Total time:
	user time   =      23.01 seconds =       0.38 minutes
	system time =       0.77 seconds =       0.01 minutes
	total time  =          4 seconds =       0.07 minutes

  //>>>>>>>>>>>>>>>>>>>>>>>>>>>>>>>>>>>//
  //            Monomer B HF           //
  //<<<<<<<<<<<<<<<<<<<<<<<<<<<<<<<<<<<//


*** tstart() called on node47.bme.utexas.edu
*** at Thu Apr 23 17:17:03 2020

   => Loading Basis Set <=

    Name: AUG-CC-PVDZ
    Role: ORBITAL
    Keyword: BASIS
    atoms 1-2       entry C          line   182 file /home/liuchw/anaconda3/envs/psi4env/share/psi4/basis/aug-cc-pvdz.gbs 
    atoms 3-6, 8-10 entry H          line    40 file /home/liuchw/anaconda3/envs/psi4env/share/psi4/basis/aug-cc-pvdz.gbs 
    atoms 7         entry N          line   218 file /home/liuchw/anaconda3/envs/psi4env/share/psi4/basis/aug-cc-pvdz.gbs 


         ---------------------------------------------------------
                                   SCF
               by Justin Turney, Rob Parrish, Andy Simmonett
                          and Daniel G. A. Smith
                              RHF Reference
                        8 Threads,  19073 MiB Core
         ---------------------------------------------------------

  ==> Geometry <==

    Molecular point group: c1
    Full point group: C1

    Geometry (in Angstrom), charge = 0, multiplicity = 1:

       Center              X                  Y                   Z               Mass       
    ------------   -----------------  -----------------  -----------------  -----------------
      Gh(C)          -2.290114422771    -0.606238211682     0.000400848208    12.000000000000
      Gh(C)          -1.908384422771     0.670841788318    -0.000069151792    12.000000000000
      Gh(H)          -2.453814422771    -1.144318211682    -0.922279151792     1.007825032230
      Gh(H)          -2.452744422771    -1.143958211682     0.923480848208     1.007825032230
      Gh(H)          -1.745704422771     1.210221788318     0.921880848208     1.007825032230
      Gh(H)          -1.746764422771     1.209731788318    -0.922489151792     1.007825032230
         N            3.469205577229     0.015061788318    -0.000499151792    14.003074004430
         H            3.852575577229    -0.455128211682     0.808960848208     1.007825032230
         H            2.478545577229    -0.193898211682    -0.001939151792     1.007825032230
         H            3.856355577229    -0.461148211682    -0.804629151792     1.007825032230

  Running in c1 symmetry.

  Rotational constants: A =      0.81809  B =      0.05042  C =      0.04880 [cm^-1]
  Rotational constants: A =  24525.67345  B =   1511.61473  C =   1462.95510 [MHz]
  Nuclear repulsion =   11.964934616037349

  Charge       = 0
  Multiplicity = 1
  Electrons    = 10
  Nalpha       = 5
  Nbeta        = 5

  ==> Algorithm <==

  SCF Algorithm Type is DF.
  DIIS enabled.
  MOM disabled.
  Fractional occupation disabled.
  Guess Type is SAD.
  Energy threshold   = 1.00e-08
  Density threshold  = 1.00e-08
  Integral threshold = 0.00e+00

  ==> Primary Basis <==

  Basis Set: AUG-CC-PVDZ
    Blend: AUG-CC-PVDZ
    Number of shells: 62
    Number of basis function: 132
    Number of Cartesian functions: 138
    Spherical Harmonics?: true
    Max angular momentum: 2

   => Loading Basis Set <=

    Name: (AUG-CC-PVDZ AUX)
    Role: JKFIT
    Keyword: DF_BASIS_SCF
    atoms 1-2       entry C          line   154 file /home/liuchw/anaconda3/envs/psi4env/share/psi4/basis/aug-cc-pvdz-jkfit.gbs 
    atoms 3-6, 8-10 entry H          line    70 file /home/liuchw/anaconda3/envs/psi4env/share/psi4/basis/aug-cc-pvdz-jkfit.gbs 
    atoms 7         entry N          line   212 file /home/liuchw/anaconda3/envs/psi4env/share/psi4/basis/aug-cc-pvdz-jkfit.gbs 

  ==> Pre-Iterations <==

   -------------------------------------------------------
    Irrep   Nso     Nmo     Nalpha   Nbeta   Ndocc  Nsocc
   -------------------------------------------------------
     A        132     132       0       0       0       0
   -------------------------------------------------------
    Total     132     132       5       5       5       0
   -------------------------------------------------------

  ==> Integral Setup <==

  ==> DiskDFJK: Density-Fitted J/K Matrices <==

    J tasked:                  Yes
    K tasked:                  Yes
    wK tasked:                  No
    OpenMP threads:              8
    Integrals threads:           8
    Memory [MiB]:            14305
    Algorithm:                Core
    Integral Cache:           LOAD
    Schwarz Cutoff:          1E-12
    Fitting Condition:       1E-10

   => Auxiliary Basis Set <=

  Basis Set: (AUG-CC-PVDZ AUX)
    Blend: AUG-CC-PVDZ-JKFIT
    Number of shells: 168
    Number of basis function: 482
    Number of Cartesian functions: 548
    Spherical Harmonics?: true
    Max angular momentum: 3

  Minimum eigenvalue in the overlap matrix is 9.9353051668E-05.
  Using Symmetric Orthogonalization.

  SCF Guess: Superposition of Atomic Densities via on-the-fly atomic UHF.

  ==> Iterations <==

                           Total Energy        Delta E     RMS |[F,P]|

   @DF-RHF iter SAD:   -55.63933903910871   -5.56393e+01   0.00000e+00 
   @DF-RHF iter   1:   -56.10795956700233   -4.68621e-01   3.43344e-03 DIIS
   @DF-RHF iter   2:   -56.17743929884210   -6.94797e-02   1.92329e-03 DIIS
   @DF-RHF iter   3:   -56.20470623624418   -2.72669e-02   1.82254e-04 DIIS
   @DF-RHF iter   4:   -56.20531975106227   -6.13515e-04   3.19981e-05 DIIS
   @DF-RHF iter   5:   -56.20533802756216   -1.82765e-05   5.98169e-06 DIIS
   @DF-RHF iter   6:   -56.20533905375888   -1.02620e-06   1.23769e-06 DIIS
   @DF-RHF iter   7:   -56.20533910328145   -4.95226e-08   2.33939e-07 DIIS
   @DF-RHF iter   8:   -56.20533910520324   -1.92179e-09   3.47202e-08 DIIS
   @DF-RHF iter   9:   -56.20533910524364   -4.04015e-11   8.75395e-09 DIIS
  Energy and wave function converged.


  ==> Post-Iterations <==

    Orbital Energies [Eh]
    ---------------------

    Doubly Occupied:                                                      

       1A    -15.552064     2A     -1.145703     3A     -0.627945  
       4A     -0.627507     5A     -0.431193  

    Virtual:                                                              

       6A      0.023133     7A      0.041920     8A      0.046143  
       9A      0.048515    10A      0.065163    11A      0.071584  
      12A      0.073039    13A      0.110903    14A      0.123403  
      15A      0.124651    16A      0.133883    17A      0.136065  
      18A      0.151739    19A      0.163449    20A      0.192965  
      21A      0.196083    22A      0.200404    23A      0.203605  
      24A      0.234096    25A      0.256585    26A      0.294467  
      27A      0.322689    28A      0.333669    29A      0.335489  
      30A      0.350435    31A      0.354363    32A      0.362202  
      33A      0.383192    34A      0.383737    35A      0.411094  
      36A      0.424100    37A      0.426146    38A      0.429446  
      39A      0.436370    40A      0.446934    41A      0.471190  
      42A      0.476484    43A      0.524813    44A      0.533250  
      45A      0.536259    46A      0.545879    47A      0.551791  
      48A      0.567807    49A      0.574291    50A      0.622410  
      51A      0.623443    52A      0.628931    53A      0.659778  
      54A      0.660923    55A      0.677377    56A      0.706238  
      57A      0.710313    58A      0.715857    59A      0.719322  
      60A      0.758369    61A      0.772435    62A      0.818547  
      63A      0.821136    64A      0.826832    65A      0.864551  
      66A      0.872909    67A      0.907414    68A      0.922187  
      69A      0.927092    70A      0.927331    71A      0.934005  
      72A      0.961444    73A      0.973885    74A      1.110741  
      75A      1.152432    76A      1.172030    77A      1.215859  
      78A      1.223195    79A      1.374027    80A      1.814110  
      81A      1.825847    82A      1.952259    83A      1.963135  
      84A      1.997313    85A      2.038252    86A      2.060339  
      87A      2.067965    88A      2.073090    89A      2.105058  
      90A      2.119608    91A      2.175432    92A      2.201797  
      93A      2.231993    94A      2.260188    95A      2.264695  
      96A      2.309007    97A      2.323121    98A      2.334310  
      99A      2.347845   100A      2.392097   101A      2.406308  
     102A      2.411051   103A      2.417876   104A      2.442729  
     105A      2.484305   106A      2.502852   107A      2.574342  
     108A      2.594659   109A      2.683402   110A      2.723444  
     111A      2.760778   112A      2.805533   113A      2.813318  
     114A      2.909572   115A      2.917248   116A      2.921747  
     117A      2.984830   118A      3.114395   119A      3.160599  
     120A      3.266097   121A      3.434184   122A      3.469963  
     123A      3.537223   124A      3.538002   125A      3.952421  
     126A      4.008417   127A      4.233070   128A      5.218170  
     129A      5.270382   130A      5.643938   131A     18.136743  
     132A     18.902255  

    Final Occupation by Irrep:
              A 
    DOCC [     5 ]

  @DF-RHF Final Energy:   -56.20533910524364

   => Energetics <=

    Nuclear Repulsion Energy =             11.9649346160373486
    One-Electron Energy =                 -99.5717223205839730
    Two-Electron Energy =                  31.4014485993029808
    Total Energy =                        -56.2053391052436382

Computation Completed


Properties will be evaluated at   0.000000,   0.000000,   0.000000 [a0]

Properties computed using the SCF density matrix

  Nuclear Dipole Moment: [e a0]
     X:    65.1425      Y:    -1.8987      Z:    -0.0021

  Electronic Dipole Moment: [e a0]
     X:   -65.2651      Y:     1.2567      Z:     0.0042

  Dipole Moment: [e a0]
     X:    -0.1226      Y:    -0.6420      Z:     0.0021     Total:     0.6536

  Dipole Moment: [D]
     X:    -0.3116      Y:    -1.6317      Z:     0.0054     Total:     1.6612


*** tstop() called on node47.bme.utexas.edu at Thu Apr 23 17:17:05 2020
Module time:
	user time   =       8.97 seconds =       0.15 minutes
	system time =       0.34 seconds =       0.01 minutes
	total time  =          2 seconds =       0.03 minutes
Total time:
	user time   =      32.18 seconds =       0.54 minutes
	system time =       1.11 seconds =       0.02 minutes
	total time  =          6 seconds =       0.10 minutes
  Constructing Basis Sets for SAPT...

   => Loading Basis Set <=

    Name: (AUG-CC-PVDZ AUX)
    Role: RIFIT
    Keyword: DF_BASIS_SAPT
    atoms 1-2       entry C          line   112 file /home/liuchw/anaconda3/envs/psi4env/share/psi4/basis/aug-cc-pvdz-ri.gbs 
    atoms 3-6, 8-10 entry H          line    30 file /home/liuchw/anaconda3/envs/psi4env/share/psi4/basis/aug-cc-pvdz-ri.gbs 
    atoms 7         entry N          line   158 file /home/liuchw/anaconda3/envs/psi4env/share/psi4/basis/aug-cc-pvdz-ri.gbs 


  //>>>>>>>>>>>>>>>>>>>>>>>>>>>>>>>>>>>//
  //               SAPT2+              //
  //<<<<<<<<<<<<<<<<<<<<<<<<<<<<<<<<<<<//


*** tstart() called on node47.bme.utexas.edu
*** at Thu Apr 23 17:17:05 2020

        SAPT2+  
    Ed Hohenstein
     6 June 2009

      Orbital Information
  --------------------------
    NSO        =       132
    NMO        =       132
    NRI        =       377
    NOCC A     =         8
    NOCC B     =         5
    FOCC A     =         2
    FOCC B     =         1
    NVIR A     =       124
    NVIR B     =       127

    Estimated memory usage: 73.4 MB

    Natural Orbital Cutoff:   1.000E-06
    Disp(T3) Truncation:            Yes
    CCD (vv|vv) Truncation:         Yes
    MBPT T2 Truncation:             Yes

    Monomer A: 55 virtual orbitals dropped
    Monomer B: 85 virtual orbitals dropped

    Elst10,r            =    -0.000334814639 [Eh]
    Exch10 (S^2)        =     0.000012506131 [Eh]
    Exch10              =     0.000012506381 [Eh]
    Ind20,r (A<-B)      =    -0.000011653479 [Eh]
    Ind20,r (B<-A)      =    -0.000003806125 [Eh]
    Ind20,r             =    -0.000015459603 [Eh]
    Exch-Ind20,r (A<-B) =     0.000002333346 [Eh]
    Exch-Ind20,r (B<-A) =     0.000000113385 [Eh]
    Exch-Ind20,r        =     0.000002446730 [Eh]
    Disp20              =    -0.000158082161 [Eh]
    Disp20 (NO)         =    -0.000149805400 [Eh]
    Exch-Disp20         =     0.000001763466 [Eh]
    Elst12,r            =     0.000054135342 [Eh]
    Exch11              =     0.000000356999 [Eh]
    Exch12              =     0.000000183978 [Eh]
    Ind22               =     0.000001007547 [Eh]
    Disp21              =     0.000011706717 [Eh]
    Disp22 (SDQ)        =     0.000011062156 [Eh]

    (i =   1 of   4)          0 seconds
    (i =   2 of   4)          0 seconds
    (i =   3 of   4)          0 seconds
    (i =   4 of   4)          1 seconds

    Disp220 (T)         =    -0.000010768060 [Eh]

    (i =   1 of   6)          0 seconds
    (i =   2 of   6)          0 seconds
    (i =   3 of   6)          0 seconds
    (i =   4 of   6)          0 seconds
    (i =   5 of   6)          0 seconds
    (i =   6 of   6)          0 seconds

    Disp202 (T)         =    -0.000012327231 [Eh]

    Disp22 (T)          =    -0.000023095291 [Eh]

    Est. Disp220 (T)    =    -0.000011362996 [Eh]
    Est. Disp202 (T)    =    -0.000013008311 [Eh]

    Est. Disp22 (T)     =    -0.000024371308 [Eh]

    SAPT Results 
  --------------------------------------------------------------------------------------------------------
    Electrostatics                 -0.28067930 [mEh]      -0.17612892 [kcal/mol]      -0.73692339 [kJ/mol]
      Elst10,r                     -0.33481464 [mEh]      -0.21009936 [kcal/mol]      -0.87905571 [kJ/mol]
      Elst12,r                      0.05413534 [mEh]       0.03397044 [kcal/mol]       0.14213232 [kJ/mol]

    Exchange                        0.01304736 [mEh]       0.00818734 [kcal/mol]       0.03425583 [kJ/mol]
      Exch10                        0.01250638 [mEh]       0.00784787 [kcal/mol]       0.03283550 [kJ/mol]
      Exch10(S^2)                   0.01250613 [mEh]       0.00784772 [kcal/mol]       0.03283484 [kJ/mol]
      Exch11(S^2)                   0.00035700 [mEh]       0.00022402 [kcal/mol]       0.00093730 [kJ/mol]
      Exch12(S^2)                   0.00018398 [mEh]       0.00011545 [kcal/mol]       0.00048303 [kJ/mol]

    Induction                      -0.01356531 [mEh]      -0.00851236 [kcal/mol]      -0.03561573 [kJ/mol]
      Ind20,r                      -0.01545960 [mEh]      -0.00970105 [kcal/mol]      -0.04058918 [kJ/mol]
      Ind22                         0.00100755 [mEh]       0.00063225 [kcal/mol]       0.00264531 [kJ/mol]
      Exch-Ind20,r                  0.00244673 [mEh]       0.00153535 [kcal/mol]       0.00642389 [kJ/mol]
      Exch-Ind22                   -0.00015946 [mEh]      -0.00010006 [kcal/mol]      -0.00041866 [kJ/mol]
      delta HF,r (2)               -0.00140053 [mEh]      -0.00087884 [kcal/mol]      -0.00367708 [kJ/mol]

    Dispersion                     -0.15792113 [mEh]      -0.09909701 [kcal/mol]      -0.41462187 [kJ/mol]
      Disp20                       -0.15808216 [mEh]      -0.09919805 [kcal/mol]      -0.41504466 [kJ/mol]
      Disp21                        0.01170672 [mEh]       0.00734608 [kcal/mol]       0.03073598 [kJ/mol]
      Disp22 (SDQ)                  0.01106216 [mEh]       0.00694161 [kcal/mol]       0.02904369 [kJ/mol]
      Disp22 (T)                   -0.02309529 [mEh]      -0.01449251 [kcal/mol]      -0.06063668 [kJ/mol]
      Est. Disp22 (T)              -0.02437131 [mEh]      -0.01529323 [kcal/mol]      -0.06398686 [kJ/mol]
      Exch-Disp20                   0.00176347 [mEh]       0.00110659 [kcal/mol]       0.00462998 [kJ/mol]

  Total HF                         -0.33672166 [mEh]      -0.21129603 [kcal/mol]      -0.88406259 [kJ/mol]
  Total SAPT0                      -0.49304035 [mEh]      -0.30938749 [kcal/mol]      -1.29447727 [kJ/mol]
  Total SAPT2                      -0.43751595 [mEh]      -0.27454540 [kcal/mol]      -1.14869796 [kJ/mol]
  Total SAPT2+                     -0.43911838 [mEh]      -0.27555095 [kcal/mol]      -1.15290516 [kJ/mol]

  Special recipe for scaled SAPT0 (see Manual):
    Electrostatics sSAPT0          -0.33481464 [mEh]      -0.21009936 [kcal/mol]      -0.87905571 [kJ/mol]
    Exchange sSAPT0                 0.01250638 [mEh]       0.00784787 [kcal/mol]       0.03283550 [kJ/mol]
    Induction sSAPT0               -0.01441325 [mEh]      -0.00904445 [kcal/mol]      -0.03784199 [kJ/mol]
    Dispersion sSAPT0              -0.15631859 [mEh]      -0.09809140 [kcal/mol]      -0.41041440 [kJ/mol]
  Total sSAPT0                     -0.49304010 [mEh]      -0.30938733 [kcal/mol]      -1.29447661 [kJ/mol]
  --------------------------------------------------------------------------------------------------------

*** tstop() called on node47.bme.utexas.edu at Thu Apr 23 17:17:10 2020
Module time:
	user time   =      36.81 seconds =       0.61 minutes
	system time =       2.07 seconds =       0.03 minutes
	total time  =          5 seconds =       0.08 minutes
Total time:
	user time   =      69.65 seconds =       1.16 minutes
	system time =       3.19 seconds =       0.05 minutes
	total time  =         11 seconds =       0.18 minutes

    Psi4 stopped on: Thursday, 23 April 2020 05:17PM
    Psi4 wall time for execution: 0:00:11.05

*** Psi4 exiting successfully. Buy a developer a beer!
