
    -----------------------------------------------------------------------
          Psi4: An Open-Source Ab Initio Electronic Structure Package
                               Psi4 1.4a2.dev224 

                         Git: Rev {master} e453b16 


    R. M. Parrish, L. A. Burns, D. G. A. Smith, A. C. Simmonett,
    A. E. DePrince III, E. G. Hohenstein, U. Bozkaya, A. Yu. Sokolov,
    R. Di Remigio, R. M. Richard, J. F. Gonthier, A. M. James,
    H. R. McAlexander, A. Kumar, M. Saitow, X. Wang, B. P. Pritchard,
    P. Verma, H. F. Schaefer III, K. Patkowski, R. A. King, E. F. Valeev,
    F. A. Evangelista, J. M. Turney, T. D. Crawford, and C. D. Sherrill,
    J. Chem. Theory Comput. 13(7) pp 3185--3197 (2017).
    (doi: 10.1021/acs.jctc.7b00174)


                         Additional Contributions by
    P. Kraus, H. Kruse, M. H. Lechner, M. C. Schieber, R. A. Shaw,
    A. Alenaizan, R. Galvelis, Z. L. Glick, S. Lehtola, and J. P. Misiewicz

    -----------------------------------------------------------------------


    Psi4 started on: Friday, 24 April 2020 12:51AM

    Process ID: 43957
    Host:       node99.bme.utexas.edu
    PSIDATADIR: /home/liuchw/anaconda3/envs/psi4env/share/psi4
    Memory:     500.0 MiB
    Threads:    8
    
  ==> Input File <==

--------------------------------------------------------------------------
#Generated by lconvert.py for sapt job

memory 20 GB

molecule  {
0 1
  C      -1.259210    0.661370   -0.001290
  C      -1.813830   -0.550850    0.000430
  H      -1.873310    1.551250   -0.002520
  H      -0.184860    0.787060   -0.002030
  H      -1.204800   -1.444290    0.003160
  H      -2.886280   -0.685600    0.000960
--
0 1
  N       2.227030   -0.010990   -0.002700
  H       3.117840    0.468260   -0.032410
  H       2.248880   -0.577130    0.835890
  H       2.234800   -0.661290   -0.778170
units angstrom
no_reorient
symmetry c1
}

set {
scf_type DF
basis aug-cc-pvdz
freeze_core True
guess SAD
}
energy('sapt2+')
--------------------------------------------------------------------------

  Memory set to  18.626 GiB by Python driver.

Scratch directory: /scratch/liuchw/

  //>>>>>>>>>>>>>>>>>>>>>>>>>>>>>>>>>>>//
  //              Dimer HF             //
  //<<<<<<<<<<<<<<<<<<<<<<<<<<<<<<<<<<<//


*** tstart() called on node99.bme.utexas.edu
*** at Fri Apr 24 00:51:02 2020

   => Loading Basis Set <=

    Name: AUG-CC-PVDZ
    Role: ORBITAL
    Keyword: BASIS
    atoms 1-2       entry C          line   182 file /home/liuchw/anaconda3/envs/psi4env/share/psi4/basis/aug-cc-pvdz.gbs 
    atoms 3-6, 8-10 entry H          line    40 file /home/liuchw/anaconda3/envs/psi4env/share/psi4/basis/aug-cc-pvdz.gbs 
    atoms 7         entry N          line   218 file /home/liuchw/anaconda3/envs/psi4env/share/psi4/basis/aug-cc-pvdz.gbs 


         ---------------------------------------------------------
                                   SCF
               by Justin Turney, Rob Parrish, Andy Simmonett
                          and Daniel G. A. Smith
                              RHF Reference
                        8 Threads,  19073 MiB Core
         ---------------------------------------------------------

  ==> Geometry <==

    Molecular point group: c1
    Full point group: C1

    Geometry (in Angstrom), charge = 0, multiplicity = 1:

       Center              X                  Y                   Z               Mass       
    ------------   -----------------  -----------------  -----------------  -----------------
         C           -1.165384393306     0.647915949408    -0.000778355228    12.000000000000
         C           -1.720004393306    -0.564304050592     0.000941644772    12.000000000000
         H           -1.779484393306     1.537795949408    -0.002008355228     1.007825032230
         H           -0.091034393306     0.773605949408    -0.001518355228     1.007825032230
         H           -1.110974393306    -1.457744050592     0.003671644772     1.007825032230
         H           -2.792454393306    -0.699054050592     0.001471644772     1.007825032230
         N            2.320855606694    -0.024444050592    -0.002188355228    14.003074004430
         H            3.211665606694     0.454805949408    -0.031898355228     1.007825032230
         H            2.342705606694    -0.590584050592     0.836401644772     1.007825032230
         H            2.328625606694    -0.674744050592    -0.777658355228     1.007825032230

  Running in c1 symmetry.

  Rotational constants: A =      1.00256  B =      0.10390  C =      0.09555 [cm^-1]
  Rotational constants: A =  30055.98051  B =   3114.97782  C =   2864.55598 [MHz]
  Nuclear repulsion =   67.200892043341710

  Charge       = 0
  Multiplicity = 1
  Electrons    = 26
  Nalpha       = 13
  Nbeta        = 13

  ==> Algorithm <==

  SCF Algorithm Type is DF.
  DIIS enabled.
  MOM disabled.
  Fractional occupation disabled.
  Guess Type is SAD.
  Energy threshold   = 1.00e-08
  Density threshold  = 1.00e-08
  Integral threshold = 0.00e+00

  ==> Primary Basis <==

  Basis Set: AUG-CC-PVDZ
    Blend: AUG-CC-PVDZ
    Number of shells: 62
    Number of basis function: 132
    Number of Cartesian functions: 138
    Spherical Harmonics?: true
    Max angular momentum: 2

   => Loading Basis Set <=

    Name: (AUG-CC-PVDZ AUX)
    Role: JKFIT
    Keyword: DF_BASIS_SCF
    atoms 1-2       entry C          line   154 file /home/liuchw/anaconda3/envs/psi4env/share/psi4/basis/aug-cc-pvdz-jkfit.gbs 
    atoms 3-6, 8-10 entry H          line    70 file /home/liuchw/anaconda3/envs/psi4env/share/psi4/basis/aug-cc-pvdz-jkfit.gbs 
    atoms 7         entry N          line   212 file /home/liuchw/anaconda3/envs/psi4env/share/psi4/basis/aug-cc-pvdz-jkfit.gbs 

  ==> Pre-Iterations <==

   -------------------------------------------------------
    Irrep   Nso     Nmo     Nalpha   Nbeta   Ndocc  Nsocc
   -------------------------------------------------------
     A        132     132       0       0       0       0
   -------------------------------------------------------
    Total     132     132      13      13      13       0
   -------------------------------------------------------

  ==> Integral Setup <==

  ==> DiskDFJK: Density-Fitted J/K Matrices <==

    J tasked:                  Yes
    K tasked:                  Yes
    wK tasked:                  No
    OpenMP threads:              8
    Integrals threads:           8
    Memory [MiB]:            14305
    Algorithm:                Core
    Integral Cache:           SAVE
    Schwarz Cutoff:          1E-12
    Fitting Condition:       1E-10

   => Auxiliary Basis Set <=

  Basis Set: (AUG-CC-PVDZ AUX)
    Blend: AUG-CC-PVDZ-JKFIT
    Number of shells: 168
    Number of basis function: 482
    Number of Cartesian functions: 548
    Spherical Harmonics?: true
    Max angular momentum: 3

  Minimum eigenvalue in the overlap matrix is 9.5133219065E-05.
  Using Symmetric Orthogonalization.

  SCF Guess: Superposition of Atomic Densities via on-the-fly atomic UHF.

  ==> Iterations <==

                           Total Energy        Delta E     RMS |[F,P]|

   @DF-RHF iter SAD:  -132.94389868011706   -1.32944e+02   0.00000e+00 
   @DF-RHF iter   1:  -134.07819129329232   -1.13429e+00   4.27691e-03 DIIS
   @DF-RHF iter   2:  -134.21250191046465   -1.34311e-01   2.12477e-03 DIIS
   @DF-RHF iter   3:  -134.24818583816463   -3.56839e-02   2.83207e-04 DIIS
   @DF-RHF iter   4:  -134.24944360356221   -1.25777e-03   8.98389e-05 DIIS
   @DF-RHF iter   5:  -134.24953521184929   -9.16083e-05   1.57823e-05 DIIS
   @DF-RHF iter   6:  -134.24954057570469   -5.36386e-06   2.91220e-06 DIIS
   @DF-RHF iter   7:  -134.24954082770074   -2.51996e-07   8.18276e-07 DIIS
   @DF-RHF iter   8:  -134.24954084729185   -1.95911e-08   3.80627e-07 DIIS
   @DF-RHF iter   9:  -134.24954084937363   -2.08178e-09   8.22446e-08 DIIS
   @DF-RHF iter  10:  -134.24954084961445   -2.40817e-10   2.85540e-08 DIIS
   @DF-RHF iter  11:  -134.24954084963568   -2.12310e-11   6.83731e-09 DIIS
  Energy and wave function converged.


  ==> Post-Iterations <==

    Orbital Energies [Eh]
    ---------------------

    Doubly Occupied:                                                      

       1A    -15.556625     2A    -11.224828     3A    -11.221318  
       4A     -1.151429     5A     -1.022565     6A     -0.779739  
       7A     -0.635543     8A     -0.632901     9A     -0.628390  
      10A     -0.572693    11A     -0.495729    12A     -0.435332  
      13A     -0.362902  

    Virtual:                                                              

      14A      0.033562    15A      0.047725    16A      0.051107  
      17A      0.060765    18A      0.064487    19A      0.078857  
      20A      0.089387    21A      0.110505    22A      0.137197  
      23A      0.145652    24A      0.156022    25A      0.171875  
      26A      0.185313    27A      0.190866    28A      0.202273  
      29A      0.207119    30A      0.216971    31A      0.221368  
      32A      0.235808    33A      0.248620    34A      0.289137  
      35A      0.291967    36A      0.304610    37A      0.312263  
      38A      0.329130    39A      0.357416    40A      0.381918  
      41A      0.393650    42A      0.423959    43A      0.430720  
      44A      0.433096    45A      0.452779    46A      0.465157  
      47A      0.478846    48A      0.497723    49A      0.523864  
      50A      0.527060    51A      0.539549    52A      0.555752  
      53A      0.564902    54A      0.568627    55A      0.571926  
      56A      0.603461    57A      0.622489    58A      0.625234  
      59A      0.627973    60A      0.636823    61A      0.650024  
      62A      0.663959    63A      0.668108    64A      0.688232  
      65A      0.706997    66A      0.723170    67A      0.727441  
      68A      0.746518    69A      0.779594    70A      0.783390  
      71A      0.829585    72A      0.850612    73A      0.870938  
      74A      0.908725    75A      0.924942    76A      0.930581  
      77A      0.958089    78A      1.026415    79A      1.046798  
      80A      1.104607    81A      1.206712    82A      1.225694  
      83A      1.248751    84A      1.258027    85A      1.329779  
      86A      1.348477    87A      1.482999    88A      1.515272  
      89A      1.529866    90A      1.558915    91A      1.648794  
      92A      1.674571    93A      1.737528    94A      1.796353  
      95A      1.804779    96A      1.819234    97A      1.878173  
      98A      1.897324    99A      1.912510   100A      1.952166  
     101A      1.999419   102A      2.073484   103A      2.081884  
     104A      2.089127   105A      2.103890   106A      2.120276  
     107A      2.123041   108A      2.155518   109A      2.179032  
     110A      2.194077   111A      2.269356   112A      2.355679  
     113A      2.386463   114A      2.414693   115A      2.417063  
     116A      2.427939   117A      2.441627   118A      2.471722  
     119A      2.522430   120A      2.656951   121A      2.715916  
     122A      2.788916   123A      2.836049   124A      2.861458  
     125A      2.915729   126A      2.920845   127A      2.958549  
     128A      3.132782   129A      3.467647   130A      3.523179  
     131A      3.542038   132A      3.598701  

    Final Occupation by Irrep:
              A 
    DOCC [    13 ]

  @DF-RHF Final Energy:  -134.24954084963568

   => Energetics <=

    Nuclear Repulsion Energy =             67.2008920433417103
    One-Electron Energy =                -313.4608784234386007
    Two-Electron Energy =                 112.0104455304612259
    Total Energy =                       -134.2495408496356788

Computation Completed


Properties will be evaluated at   0.000000,   0.000000,   0.000000 [a0]

Properties computed using the SCF density matrix

  Nuclear Dipole Moment: [e a0]
     X:     1.9704      Y:    -0.6148      Z:     0.0267

  Electronic Dipole Moment: [e a0]
     X:    -1.3120      Y:     0.2674      Z:    -0.0102

  Dipole Moment: [e a0]
     X:     0.6585      Y:    -0.3475      Z:     0.0165     Total:     0.7447

  Dipole Moment: [D]
     X:     1.6736      Y:    -0.8832      Z:     0.0419     Total:     1.8928


*** tstop() called on node99.bme.utexas.edu at Fri Apr 24 00:51:04 2020
Module time:
	user time   =      13.60 seconds =       0.23 minutes
	system time =       0.93 seconds =       0.02 minutes
	total time  =          2 seconds =       0.03 minutes
Total time:
	user time   =      13.60 seconds =       0.23 minutes
	system time =       0.93 seconds =       0.02 minutes
	total time  =          2 seconds =       0.03 minutes

  //>>>>>>>>>>>>>>>>>>>>>>>>>>>>>>>>>>>//
  //            Monomer A HF           //
  //<<<<<<<<<<<<<<<<<<<<<<<<<<<<<<<<<<<//


*** tstart() called on node99.bme.utexas.edu
*** at Fri Apr 24 00:51:04 2020

   => Loading Basis Set <=

    Name: AUG-CC-PVDZ
    Role: ORBITAL
    Keyword: BASIS
    atoms 1-2       entry C          line   182 file /home/liuchw/anaconda3/envs/psi4env/share/psi4/basis/aug-cc-pvdz.gbs 
    atoms 3-6, 8-10 entry H          line    40 file /home/liuchw/anaconda3/envs/psi4env/share/psi4/basis/aug-cc-pvdz.gbs 
    atoms 7         entry N          line   218 file /home/liuchw/anaconda3/envs/psi4env/share/psi4/basis/aug-cc-pvdz.gbs 


         ---------------------------------------------------------
                                   SCF
               by Justin Turney, Rob Parrish, Andy Simmonett
                          and Daniel G. A. Smith
                              RHF Reference
                        8 Threads,  19073 MiB Core
         ---------------------------------------------------------

  ==> Geometry <==

    Molecular point group: c1
    Full point group: C1

    Geometry (in Angstrom), charge = 0, multiplicity = 1:

       Center              X                  Y                   Z               Mass       
    ------------   -----------------  -----------------  -----------------  -----------------
         C           -1.165384393306     0.647915949408    -0.000778355228    12.000000000000
         C           -1.720004393306    -0.564304050592     0.000941644772    12.000000000000
         H           -1.779484393306     1.537795949408    -0.002008355228     1.007825032230
         H           -0.091034393306     0.773605949408    -0.001518355228     1.007825032230
         H           -1.110974393306    -1.457744050592     0.003671644772     1.007825032230
         H           -2.792454393306    -0.699054050592     0.001471644772     1.007825032230
      Gh(N)           2.320855606694    -0.024444050592    -0.002188355228    14.003074004430
      Gh(H)           3.211665606694     0.454805949408    -0.031898355228     1.007825032230
      Gh(H)           2.342705606694    -0.590584050592     0.836401644772     1.007825032230
      Gh(H)           2.328625606694    -0.674744050592    -0.777658355228     1.007825032230

  Running in c1 symmetry.

  Rotational constants: A =      1.00256  B =      0.10390  C =      0.09555 [cm^-1]
  Rotational constants: A =  30055.98051  B =   3114.97782  C =   2864.55598 [MHz]
  Nuclear repulsion =   33.410895154627127

  Charge       = 0
  Multiplicity = 1
  Electrons    = 16
  Nalpha       = 8
  Nbeta        = 8

  ==> Algorithm <==

  SCF Algorithm Type is DF.
  DIIS enabled.
  MOM disabled.
  Fractional occupation disabled.
  Guess Type is SAD.
  Energy threshold   = 1.00e-08
  Density threshold  = 1.00e-08
  Integral threshold = 0.00e+00

  ==> Primary Basis <==

  Basis Set: AUG-CC-PVDZ
    Blend: AUG-CC-PVDZ
    Number of shells: 62
    Number of basis function: 132
    Number of Cartesian functions: 138
    Spherical Harmonics?: true
    Max angular momentum: 2

   => Loading Basis Set <=

    Name: (AUG-CC-PVDZ AUX)
    Role: JKFIT
    Keyword: DF_BASIS_SCF
    atoms 1-2       entry C          line   154 file /home/liuchw/anaconda3/envs/psi4env/share/psi4/basis/aug-cc-pvdz-jkfit.gbs 
    atoms 3-6, 8-10 entry H          line    70 file /home/liuchw/anaconda3/envs/psi4env/share/psi4/basis/aug-cc-pvdz-jkfit.gbs 
    atoms 7         entry N          line   212 file /home/liuchw/anaconda3/envs/psi4env/share/psi4/basis/aug-cc-pvdz-jkfit.gbs 

  ==> Pre-Iterations <==

   -------------------------------------------------------
    Irrep   Nso     Nmo     Nalpha   Nbeta   Ndocc  Nsocc
   -------------------------------------------------------
     A        132     132       0       0       0       0
   -------------------------------------------------------
    Total     132     132       8       8       8       0
   -------------------------------------------------------

  ==> Integral Setup <==

  ==> DiskDFJK: Density-Fitted J/K Matrices <==

    J tasked:                  Yes
    K tasked:                  Yes
    wK tasked:                  No
    OpenMP threads:              8
    Integrals threads:           8
    Memory [MiB]:            14305
    Algorithm:                Core
    Integral Cache:           LOAD
    Schwarz Cutoff:          1E-12
    Fitting Condition:       1E-10

   => Auxiliary Basis Set <=

  Basis Set: (AUG-CC-PVDZ AUX)
    Blend: AUG-CC-PVDZ-JKFIT
    Number of shells: 168
    Number of basis function: 482
    Number of Cartesian functions: 548
    Spherical Harmonics?: true
    Max angular momentum: 3

  Minimum eigenvalue in the overlap matrix is 9.5133219065E-05.
  Using Symmetric Orthogonalization.

  SCF Guess: Superposition of Atomic Densities via on-the-fly atomic UHF.

  ==> Iterations <==

                           Total Energy        Delta E     RMS |[F,P]|

   @DF-RHF iter SAD:   -77.25839173901647   -7.72584e+01   0.00000e+00 
   @DF-RHF iter   1:   -77.96636133156785   -7.07970e-01   2.64187e-03 DIIS
   @DF-RHF iter   2:   -78.03244877898979   -6.60874e-02   1.04673e-03 DIIS
   @DF-RHF iter   3:   -78.04306929906740   -1.06205e-02   1.66506e-04 DIIS
   @DF-RHF iter   4:   -78.04359800568673   -5.28707e-04   1.55908e-05 DIIS
   @DF-RHF iter   5:   -78.04360318974162   -5.18405e-06   1.72267e-06 DIIS
   @DF-RHF iter   6:   -78.04360326045368   -7.07121e-08   3.01966e-07 DIIS
   @DF-RHF iter   7:   -78.04360326165963   -1.20595e-09   1.14561e-07 DIIS
   @DF-RHF iter   8:   -78.04360326182528   -1.65656e-10   2.14942e-08 DIIS
   @DF-RHF iter   9:   -78.04360326183344   -8.15703e-12   4.48529e-09 DIIS
  Energy and wave function converged.


  ==> Post-Iterations <==

    Orbital Energies [Eh]
    ---------------------

    Doubly Occupied:                                                      

       1A    -11.238979     2A    -11.237297     3A     -1.036657  
       4A     -0.793847     5A     -0.645033     6A     -0.586749  
       7A     -0.508053     8A     -0.376466  

    Virtual:                                                              

       9A      0.031584    10A      0.044545    11A      0.047758  
      12A      0.062294    13A      0.063364    14A      0.076117  
      15A      0.086665    16A      0.102171    17A      0.132038  
      18A      0.134604    19A      0.140483    20A      0.150919  
      21A      0.174436    22A      0.180671    23A      0.182332  
      24A      0.184427    25A      0.209092    26A      0.210318  
      27A      0.216172    28A      0.235450    29A      0.301961  
      30A      0.306442    31A      0.317582    32A      0.341048  
      33A      0.352049    34A      0.375247    35A      0.389540  
      36A      0.404804    37A      0.417957    38A      0.419781  
      39A      0.430743    40A      0.440091    41A      0.450701  
      42A      0.460787    43A      0.476777    44A      0.480918  
      45A      0.497060    46A      0.501532    47A      0.545976  
      48A      0.553663    49A      0.555364    50A      0.570031  
      51A      0.574487    52A      0.597552    53A      0.615721  
      54A      0.623756    55A      0.630937    56A      0.638108  
      57A      0.651291    58A      0.659224    59A      0.681742  
      60A      0.708583    61A      0.718006    62A      0.759655  
      63A      0.761240    64A      0.804334    65A      0.826351  
      66A      0.857191    67A      0.886239    68A      0.913067  
      69A      0.929835    70A      0.976941    71A      1.004147  
      72A      1.030956    73A      1.051700    74A      1.062397  
      75A      1.084588    76A      1.090025    77A      1.107386  
      78A      1.123422    79A      1.174023    80A      1.247284  
      81A      1.280384    82A      1.377460    83A      1.474576  
      84A      1.516496    85A      1.533446    86A      1.545431  
      87A      1.651881    88A      1.725070    89A      1.782925  
      90A      1.794762    91A      1.866360    92A      1.883649  
      93A      1.957906    94A      1.986789    95A      2.060716  
      96A      2.068152    97A      2.082749    98A      2.105943  
      99A      2.125345   100A      2.163093   101A      2.164026  
     102A      2.185493   103A      2.266262   104A      2.341741  
     105A      2.388437   106A      2.451180   107A      2.456132  
     108A      2.460868   109A      2.497770   110A      2.522853  
     111A      2.600084   112A      2.615267   113A      2.652492  
     114A      2.702737   115A      2.798700   116A      2.842904  
     117A      2.938141   118A      3.143687   119A      3.155122  
     120A      3.232320   121A      3.452742   122A      3.509466  
     123A      3.586415   124A      3.720028   125A      3.720511  
     126A      3.799332   127A      4.201225   128A      4.219213  
     129A      5.204353   130A      6.048417   131A      6.065934  
     132A     25.435926  

    Final Occupation by Irrep:
              A 
    DOCC [     8 ]

  @DF-RHF Final Energy:   -78.04360326183344

   => Energetics <=

    Nuclear Repulsion Energy =             33.4108951546271271
    One-Electron Energy =                -170.0628359529222564
    Two-Electron Energy =                  58.6083375364616899
    Total Energy =                        -78.0436032618334394

Computation Completed


Properties will be evaluated at   0.000000,   0.000000,   0.000000 [a0]

Properties computed using the SCF density matrix

  Nuclear Dipole Moment: [e a0]
     X:   -43.6267      Y:     1.2402      Z:     0.0049

  Electronic Dipole Moment: [e a0]
     X:    43.6252      Y:    -1.2412      Z:    -0.0045

  Dipole Moment: [e a0]
     X:    -0.0016      Y:    -0.0010      Z:     0.0004     Total:     0.0019

  Dipole Moment: [D]
     X:    -0.0040      Y:    -0.0025      Z:     0.0010     Total:     0.0048


*** tstop() called on node99.bme.utexas.edu at Fri Apr 24 00:51:06 2020
Module time:
	user time   =       8.48 seconds =       0.14 minutes
	system time =       0.54 seconds =       0.01 minutes
	total time  =          2 seconds =       0.03 minutes
Total time:
	user time   =      22.13 seconds =       0.37 minutes
	system time =       1.48 seconds =       0.02 minutes
	total time  =          4 seconds =       0.07 minutes

  //>>>>>>>>>>>>>>>>>>>>>>>>>>>>>>>>>>>//
  //            Monomer B HF           //
  //<<<<<<<<<<<<<<<<<<<<<<<<<<<<<<<<<<<//


*** tstart() called on node99.bme.utexas.edu
*** at Fri Apr 24 00:51:06 2020

   => Loading Basis Set <=

    Name: AUG-CC-PVDZ
    Role: ORBITAL
    Keyword: BASIS
    atoms 1-2       entry C          line   182 file /home/liuchw/anaconda3/envs/psi4env/share/psi4/basis/aug-cc-pvdz.gbs 
    atoms 3-6, 8-10 entry H          line    40 file /home/liuchw/anaconda3/envs/psi4env/share/psi4/basis/aug-cc-pvdz.gbs 
    atoms 7         entry N          line   218 file /home/liuchw/anaconda3/envs/psi4env/share/psi4/basis/aug-cc-pvdz.gbs 


         ---------------------------------------------------------
                                   SCF
               by Justin Turney, Rob Parrish, Andy Simmonett
                          and Daniel G. A. Smith
                              RHF Reference
                        8 Threads,  19073 MiB Core
         ---------------------------------------------------------

  ==> Geometry <==

    Molecular point group: c1
    Full point group: C1

    Geometry (in Angstrom), charge = 0, multiplicity = 1:

       Center              X                  Y                   Z               Mass       
    ------------   -----------------  -----------------  -----------------  -----------------
      Gh(C)          -1.165384393306     0.647915949408    -0.000778355228    12.000000000000
      Gh(C)          -1.720004393306    -0.564304050592     0.000941644772    12.000000000000
      Gh(H)          -1.779484393306     1.537795949408    -0.002008355228     1.007825032230
      Gh(H)          -0.091034393306     0.773605949408    -0.001518355228     1.007825032230
      Gh(H)          -1.110974393306    -1.457744050592     0.003671644772     1.007825032230
      Gh(H)          -2.792454393306    -0.699054050592     0.001471644772     1.007825032230
         N            2.320855606694    -0.024444050592    -0.002188355228    14.003074004430
         H            3.211665606694     0.454805949408    -0.031898355228     1.007825032230
         H            2.342705606694    -0.590584050592     0.836401644772     1.007825032230
         H            2.328625606694    -0.674744050592    -0.777658355228     1.007825032230

  Running in c1 symmetry.

  Rotational constants: A =      1.00256  B =      0.10390  C =      0.09555 [cm^-1]
  Rotational constants: A =  30055.98051  B =   3114.97782  C =   2864.55598 [MHz]
  Nuclear repulsion =   11.963487776031322

  Charge       = 0
  Multiplicity = 1
  Electrons    = 10
  Nalpha       = 5
  Nbeta        = 5

  ==> Algorithm <==

  SCF Algorithm Type is DF.
  DIIS enabled.
  MOM disabled.
  Fractional occupation disabled.
  Guess Type is SAD.
  Energy threshold   = 1.00e-08
  Density threshold  = 1.00e-08
  Integral threshold = 0.00e+00

  ==> Primary Basis <==

  Basis Set: AUG-CC-PVDZ
    Blend: AUG-CC-PVDZ
    Number of shells: 62
    Number of basis function: 132
    Number of Cartesian functions: 138
    Spherical Harmonics?: true
    Max angular momentum: 2

   => Loading Basis Set <=

    Name: (AUG-CC-PVDZ AUX)
    Role: JKFIT
    Keyword: DF_BASIS_SCF
    atoms 1-2       entry C          line   154 file /home/liuchw/anaconda3/envs/psi4env/share/psi4/basis/aug-cc-pvdz-jkfit.gbs 
    atoms 3-6, 8-10 entry H          line    70 file /home/liuchw/anaconda3/envs/psi4env/share/psi4/basis/aug-cc-pvdz-jkfit.gbs 
    atoms 7         entry N          line   212 file /home/liuchw/anaconda3/envs/psi4env/share/psi4/basis/aug-cc-pvdz-jkfit.gbs 

  ==> Pre-Iterations <==

   -------------------------------------------------------
    Irrep   Nso     Nmo     Nalpha   Nbeta   Ndocc  Nsocc
   -------------------------------------------------------
     A        132     132       0       0       0       0
   -------------------------------------------------------
    Total     132     132       5       5       5       0
   -------------------------------------------------------

  ==> Integral Setup <==

  ==> DiskDFJK: Density-Fitted J/K Matrices <==

    J tasked:                  Yes
    K tasked:                  Yes
    wK tasked:                  No
    OpenMP threads:              8
    Integrals threads:           8
    Memory [MiB]:            14305
    Algorithm:                Core
    Integral Cache:           LOAD
    Schwarz Cutoff:          1E-12
    Fitting Condition:       1E-10

   => Auxiliary Basis Set <=

  Basis Set: (AUG-CC-PVDZ AUX)
    Blend: AUG-CC-PVDZ-JKFIT
    Number of shells: 168
    Number of basis function: 482
    Number of Cartesian functions: 548
    Spherical Harmonics?: true
    Max angular momentum: 3

  Minimum eigenvalue in the overlap matrix is 9.5133219065E-05.
  Using Symmetric Orthogonalization.

  SCF Guess: Superposition of Atomic Densities via on-the-fly atomic UHF.

  ==> Iterations <==

                           Total Energy        Delta E     RMS |[F,P]|

   @DF-RHF iter SAD:   -55.63930795416857   -5.56393e+01   0.00000e+00 
   @DF-RHF iter   1:   -56.10831453968178   -4.69007e-01   3.43570e-03 DIIS
   @DF-RHF iter   2:   -56.17780092723679   -6.94864e-02   1.92562e-03 DIIS
   @DF-RHF iter   3:   -56.20507969420089   -2.72788e-02   1.82153e-04 DIIS
   @DF-RHF iter   4:   -56.20569287883745   -6.13185e-04   3.20821e-05 DIIS
   @DF-RHF iter   5:   -56.20571129568533   -1.84168e-05   6.01821e-06 DIIS
   @DF-RHF iter   6:   -56.20571234230609   -1.04662e-06   1.25231e-06 DIIS
   @DF-RHF iter   7:   -56.20571239323785   -5.09318e-08   2.34164e-07 DIIS
   @DF-RHF iter   8:   -56.20571239515584   -1.91800e-09   3.57702e-08 DIIS
   @DF-RHF iter   9:   -56.20571239519873   -4.28884e-11   8.91229e-09 DIIS
  Energy and wave function converged.


  ==> Post-Iterations <==

    Orbital Energies [Eh]
    ---------------------

    Doubly Occupied:                                                      

       1A    -15.552090     2A     -1.145788     3A     -0.627879  
       4A     -0.627079     5A     -0.431298  

    Virtual:                                                              

       6A      0.029122     7A      0.041878     8A      0.049351  
       9A      0.059521    10A      0.063544    11A      0.076978  
      12A      0.088629    13A      0.106620    14A      0.122632  
      15A      0.135595    16A      0.145282    17A      0.147445  
      18A      0.161352    19A      0.187016    20A      0.203596  
      21A      0.204440    22A      0.207338    23A      0.223666  
      24A      0.235000    25A      0.293245    26A      0.301940  
      27A      0.317469    28A      0.336023    29A      0.336692  
      30A      0.352614    31A      0.368308    32A      0.397322  
      33A      0.403983    34A      0.426436    35A      0.426850  
      36A      0.430810    37A      0.455271    38A      0.462228  
      39A      0.470590    40A      0.489333    41A      0.516050  
      42A      0.534800    43A      0.542446    44A      0.545879  
      45A      0.547556    46A      0.559080    47A      0.582728  
      48A      0.593641    49A      0.605756    50A      0.635809  
      51A      0.663275    52A      0.665842    53A      0.690770  
      54A      0.704487    55A      0.708901    56A      0.711389  
      57A      0.730965    58A      0.738547    59A      0.745946  
      60A      0.799819    61A      0.828359    62A      0.846494  
      63A      0.862584    64A      0.879975    65A      0.880365  
      66A      0.919729    67A      0.933242    68A      0.942076  
      69A      0.958503    70A      0.972483    71A      0.978653  
      72A      1.042287    73A      1.111052    74A      1.142088  
      75A      1.208451    76A      1.234690    77A      1.239561  
      78A      1.353993    79A      1.661631    80A      1.818383  
      81A      1.893544    82A      1.954253    83A      1.999885  
      84A      2.030732    85A      2.043419    86A      2.085899  
      87A      2.092666    88A      2.110059    89A      2.131672  
      90A      2.147561    91A      2.199161    92A      2.205220  
      93A      2.249383    94A      2.290118    95A      2.306972  
      96A      2.343255    97A      2.365059    98A      2.373007  
      99A      2.400243   100A      2.420278   101A      2.427680  
     102A      2.432496   103A      2.443453   104A      2.449319  
     105A      2.523121   106A      2.581329   107A      2.601061  
     108A      2.626394   109A      2.778115   110A      2.786724  
     111A      2.813333   112A      2.834707   113A      2.890558  
     114A      2.917936   115A      2.922354   116A      2.942921  
     117A      3.076880   118A      3.141478   119A      3.207745  
     120A      3.321364   121A      3.445112   122A      3.495877  
     123A      3.548441   124A      3.604260   125A      3.988103  
     126A      4.033271   127A      4.245711   128A      5.232988  
     129A      5.292023   130A      5.663077   131A     18.156226  
     132A     18.938843  

    Final Occupation by Irrep:
              A 
    DOCC [     5 ]

  @DF-RHF Final Energy:   -56.20571239519873

   => Energetics <=

    Nuclear Repulsion Energy =             11.9634877760313216
    One-Electron Energy =                 -99.5701316056539696
    Two-Electron Energy =                  31.4009314344239101
    Total Energy =                        -56.2057123951987307

Computation Completed


Properties will be evaluated at   0.000000,   0.000000,   0.000000 [a0]

Properties computed using the SCF density matrix

  Nuclear Dipole Moment: [e a0]
     X:    45.5972      Y:    -1.8550      Z:     0.0218

  Electronic Dipole Moment: [e a0]
     X:   -45.0885      Y:     1.4468      Z:    -0.0040

  Dipole Moment: [e a0]
     X:     0.5087      Y:    -0.4082      Z:     0.0178     Total:     0.6524

  Dipole Moment: [D]
     X:     1.2929      Y:    -1.0375      Z:     0.0452     Total:     1.6583


*** tstop() called on node99.bme.utexas.edu at Fri Apr 24 00:51:07 2020
Module time:
	user time   =       8.51 seconds =       0.14 minutes
	system time =       0.54 seconds =       0.01 minutes
	total time  =          1 seconds =       0.02 minutes
Total time:
	user time   =      30.69 seconds =       0.51 minutes
	system time =       2.02 seconds =       0.03 minutes
	total time  =          5 seconds =       0.08 minutes
  Constructing Basis Sets for SAPT...

   => Loading Basis Set <=

    Name: (AUG-CC-PVDZ AUX)
    Role: RIFIT
    Keyword: DF_BASIS_SAPT
    atoms 1-2       entry C          line   112 file /home/liuchw/anaconda3/envs/psi4env/share/psi4/basis/aug-cc-pvdz-ri.gbs 
    atoms 3-6, 8-10 entry H          line    30 file /home/liuchw/anaconda3/envs/psi4env/share/psi4/basis/aug-cc-pvdz-ri.gbs 
    atoms 7         entry N          line   158 file /home/liuchw/anaconda3/envs/psi4env/share/psi4/basis/aug-cc-pvdz-ri.gbs 


  //>>>>>>>>>>>>>>>>>>>>>>>>>>>>>>>>>>>//
  //               SAPT2+              //
  //<<<<<<<<<<<<<<<<<<<<<<<<<<<<<<<<<<<//


*** tstart() called on node99.bme.utexas.edu
*** at Fri Apr 24 00:51:08 2020

        SAPT2+  
    Ed Hohenstein
     6 June 2009

      Orbital Information
  --------------------------
    NSO        =       132
    NMO        =       132
    NRI        =       377
    NOCC A     =         8
    NOCC B     =         5
    FOCC A     =         2
    FOCC B     =         1
    NVIR A     =       124
    NVIR B     =       127

    Estimated memory usage: 73.4 MB

    Natural Orbital Cutoff:   1.000E-06
    Disp(T3) Truncation:            Yes
    CCD (vv|vv) Truncation:         Yes
    MBPT T2 Truncation:             Yes

    Monomer A: 53 virtual orbitals dropped
    Monomer B: 80 virtual orbitals dropped

    Elst10,r            =    -0.003442884553 [Eh]
    Exch10 (S^2)        =     0.004300525395 [Eh]
    Exch10              =     0.004316930963 [Eh]
    Ind20,r (A<-B)      =    -0.000697492727 [Eh]
    Ind20,r (B<-A)      =    -0.000610721092 [Eh]
    Ind20,r             =    -0.001308213819 [Eh]
    Exch-Ind20,r (A<-B) =     0.000183491716 [Eh]
    Exch-Ind20,r (B<-A) =     0.000469281713 [Eh]
    Exch-Ind20,r        =     0.000652773428 [Eh]
    Disp20              =    -0.002483097381 [Eh]
    Disp20 (NO)         =    -0.002214436248 [Eh]
    Exch-Disp20         =     0.000346985798 [Eh]
    Elst12,r            =    -0.000077198563 [Eh]
    Exch11              =     0.000004883246 [Eh]
    Exch12              =     0.000591232546 [Eh]
    Ind22               =    -0.000132855836 [Eh]
    Disp21              =     0.000027262431 [Eh]
    Disp22 (SDQ)        =     0.000041620486 [Eh]

    (i =   1 of   4)          0 seconds
    (i =   2 of   4)          0 seconds
    (i =   3 of   4)          0 seconds
    (i =   4 of   4)          0 seconds

    Disp220 (T)         =    -0.000144217622 [Eh]

    (i =   1 of   6)          1 seconds
    (i =   2 of   6)          1 seconds
    (i =   3 of   6)          1 seconds
    (i =   4 of   6)          1 seconds
    (i =   5 of   6)          1 seconds
    (i =   6 of   6)          1 seconds

    Disp202 (T)         =    -0.000170579413 [Eh]

    Disp22 (T)          =    -0.000314797035 [Eh]

    Est. Disp220 (T)    =    -0.000161714477 [Eh]
    Est. Disp202 (T)    =    -0.000191274548 [Eh]

    Est. Disp22 (T)     =    -0.000352989026 [Eh]

    SAPT Results 
  --------------------------------------------------------------------------------------------------------
    Electrostatics                 -3.52008312 [mEh]      -2.20888550 [kcal/mol]      -9.24197695 [kJ/mol]
      Elst10,r                     -3.44288455 [mEh]      -2.16044267 [kcal/mol]      -9.03929215 [kJ/mol]
      Elst12,r                     -0.07719856 [mEh]      -0.04844283 [kcal/mol]      -0.20268480 [kJ/mol]

    Exchange                        4.91304675 [mEh]       3.08298338 [kcal/mol]      12.89920247 [kJ/mol]
      Exch10                        4.31693096 [mEh]       2.70891508 [kcal/mol]      11.33410068 [kJ/mol]
      Exch10(S^2)                   4.30052540 [mEh]       2.69862043 [kcal/mol]      11.29102787 [kJ/mol]
      Exch11(S^2)                   0.00488325 [mEh]       0.00306428 [kcal/mol]       0.01282096 [kJ/mol]
      Exch12(S^2)                   0.59123255 [mEh]       0.37100402 [kcal/mol]       1.55228083 [kJ/mol]

    Induction                      -1.16580235 [mEh]      -0.73155202 [kcal/mol]      -3.06081366 [kJ/mol]
      Ind20,r                      -1.30821382 [mEh]      -0.82091657 [kcal/mol]      -3.43471491 [kJ/mol]
      Ind22                        -0.13285584 [mEh]      -0.08336830 [kcal/mol]      -0.34881295 [kJ/mol]
      Exch-Ind20,r                  0.65277343 [mEh]       0.40962151 [kcal/mol]       1.71385640 [kJ/mol]
      Exch-Ind22                    0.06629250 [mEh]       0.04159917 [kcal/mol]       0.17405092 [kJ/mol]
      delta HF,r (2)               -0.44379862 [mEh]      -0.27848784 [kcal/mol]      -1.16519312 [kJ/mol]

    Dispersion                     -2.42021769 [mEh]      -1.51870953 [kcal/mol]      -6.35428067 [kJ/mol]
      Disp20                       -2.48309738 [mEh]      -1.55816713 [kcal/mol]      -6.51937128 [kJ/mol]
      Disp21                        0.02726243 [mEh]       0.01710743 [kcal/mol]       0.07157750 [kJ/mol]
      Disp22 (SDQ)                  0.04162049 [mEh]       0.02611725 [kcal/mol]       0.10927457 [kJ/mol]
      Disp22 (T)                   -0.31479704 [mEh]      -0.19753812 [kcal/mol]      -0.82649950 [kJ/mol]
      Est. Disp22 (T)              -0.35298903 [mEh]      -0.22150396 [kcal/mol]      -0.92677256 [kJ/mol]
      Exch-Disp20                   0.34698580 [mEh]       0.21773688 [kcal/mol]       0.91101109 [kJ/mol]

  Total HF                         -0.22519260 [mEh]      -0.14131049 [kcal/mol]      -0.59124310 [kJ/mol]
  Total SAPT0                      -2.36130419 [mEh]      -1.48174075 [kcal/mol]      -6.19960329 [kJ/mol]
  Total SAPT2                      -1.90895030 [mEh]      -1.19788440 [kcal/mol]      -5.01194832 [kJ/mol]
  Total SAPT2+                     -2.19305641 [mEh]      -1.37616367 [kcal/mol]      -5.75786880 [kJ/mol]

  Special recipe for scaled SAPT0 (see Manual):
    Electrostatics sSAPT0          -3.44288455 [mEh]      -2.16044267 [kcal/mol]      -9.03929215 [kJ/mol]
    Exchange sSAPT0                 4.31693096 [mEh]       2.70891508 [kcal/mol]      11.33410068 [kJ/mol]
    Induction sSAPT0               -1.09173991 [mEh]      -0.68507714 [kcal/mol]      -2.86636275 [kJ/mol]
    Dispersion sSAPT0              -2.13212539 [mEh]      -1.33792888 [kcal/mol]      -5.59789444 [kJ/mol]
  Total sSAPT0                     -2.34981889 [mEh]      -1.47453362 [kcal/mol]      -6.16944865 [kJ/mol]
  --------------------------------------------------------------------------------------------------------

*** tstop() called on node99.bme.utexas.edu at Fri Apr 24 00:51:13 2020
Module time:
	user time   =      37.40 seconds =       0.62 minutes
	system time =       3.09 seconds =       0.05 minutes
	total time  =          5 seconds =       0.08 minutes
Total time:
	user time   =      68.67 seconds =       1.14 minutes
	system time =       5.15 seconds =       0.09 minutes
	total time  =         11 seconds =       0.18 minutes

    Psi4 stopped on: Friday, 24 April 2020 12:51AM
    Psi4 wall time for execution: 0:00:10.98

*** Psi4 exiting successfully. Buy a developer a beer!
