
    -----------------------------------------------------------------------
          Psi4: An Open-Source Ab Initio Electronic Structure Package
                               Psi4 1.4a2.dev224 

                         Git: Rev {master} e453b16 


    R. M. Parrish, L. A. Burns, D. G. A. Smith, A. C. Simmonett,
    A. E. DePrince III, E. G. Hohenstein, U. Bozkaya, A. Yu. Sokolov,
    R. Di Remigio, R. M. Richard, J. F. Gonthier, A. M. James,
    H. R. McAlexander, A. Kumar, M. Saitow, X. Wang, B. P. Pritchard,
    P. Verma, H. F. Schaefer III, K. Patkowski, R. A. King, E. F. Valeev,
    F. A. Evangelista, J. M. Turney, T. D. Crawford, and C. D. Sherrill,
    J. Chem. Theory Comput. 13(7) pp 3185--3197 (2017).
    (doi: 10.1021/acs.jctc.7b00174)


                         Additional Contributions by
    P. Kraus, H. Kruse, M. H. Lechner, M. C. Schieber, R. A. Shaw,
    A. Alenaizan, R. Galvelis, Z. L. Glick, S. Lehtola, and J. P. Misiewicz

    -----------------------------------------------------------------------


    Psi4 started on: Friday, 24 April 2020 12:51AM

    Process ID: 85895
    Host:       node101.bme.utexas.edu
    PSIDATADIR: /home/liuchw/anaconda3/envs/psi4env/share/psi4
    Memory:     500.0 MiB
    Threads:    8
    
  ==> Input File <==

--------------------------------------------------------------------------
#Generated by lconvert.py for sapt job

memory 20 GB

molecule  {
0 1
  C      -1.259210    0.661370   -0.001290
  C      -1.813830   -0.550850    0.000430
  H      -1.873310    1.551250   -0.002520
  H      -0.184860    0.787060   -0.002030
  H      -1.204800   -1.444290    0.003160
  H      -2.886280   -0.685600    0.000960
--
0 1
  N       2.366710   -0.013440   -0.002780
  H       3.257520    0.465820   -0.032490
  H       2.388560   -0.579570    0.835800
  H       2.374480   -0.663730   -0.778260
units angstrom
no_reorient
symmetry c1
}

set {
scf_type DF
basis aug-cc-pvdz
freeze_core True
guess SAD
}
energy('sapt2+')
--------------------------------------------------------------------------

  Memory set to  18.626 GiB by Python driver.

Scratch directory: /scratch/liuchw/

  //>>>>>>>>>>>>>>>>>>>>>>>>>>>>>>>>>>>//
  //              Dimer HF             //
  //<<<<<<<<<<<<<<<<<<<<<<<<<<<<<<<<<<<//


*** tstart() called on node101.bme.utexas.edu
*** at Fri Apr 24 00:51:01 2020

   => Loading Basis Set <=

    Name: AUG-CC-PVDZ
    Role: ORBITAL
    Keyword: BASIS
    atoms 1-2       entry C          line   182 file /home/liuchw/anaconda3/envs/psi4env/share/psi4/basis/aug-cc-pvdz.gbs 
    atoms 3-6, 8-10 entry H          line    40 file /home/liuchw/anaconda3/envs/psi4env/share/psi4/basis/aug-cc-pvdz.gbs 
    atoms 7         entry N          line   218 file /home/liuchw/anaconda3/envs/psi4env/share/psi4/basis/aug-cc-pvdz.gbs 


         ---------------------------------------------------------
                                   SCF
               by Justin Turney, Rob Parrish, Andy Simmonett
                          and Daniel G. A. Smith
                              RHF Reference
                        8 Threads,  19073 MiB Core
         ---------------------------------------------------------

  ==> Geometry <==

    Molecular point group: c1
    Full point group: C1

    Geometry (in Angstrom), charge = 0, multiplicity = 1:

       Center              X                  Y                   Z               Mass       
    ------------   -----------------  -----------------  -----------------  -----------------
         C           -1.218166947712     0.648841089229    -0.000747677322    12.000000000000
         C           -1.772786947712    -0.563378910771     0.000972322678    12.000000000000
         H           -1.832266947712     1.538721089229    -0.001977677322     1.007825032230
         H           -0.143816947712     0.774531089229    -0.001487677322     1.007825032230
         H           -1.163756947712    -1.456818910771     0.003702322678     1.007825032230
         H           -2.845236947712    -0.698128910771     0.001502322678     1.007825032230
         N            2.407753052288    -0.025968910771    -0.002237677322    14.003074004430
         H            3.298563052288     0.453291089229    -0.031947677322     1.007825032230
         H            2.429603052288    -0.592098910771     0.836342322678     1.007825032230
         H            2.415523052288    -0.676258910771    -0.777717677322     1.007825032230

  Running in c1 symmetry.

  Rotational constants: A =      1.00200  B =      0.09703  C =      0.08970 [cm^-1]
  Rotational constants: A =  30039.17756  B =   2908.77385  C =   2689.10632 [MHz]
  Nuclear repulsion =   66.446885330043500

  Charge       = 0
  Multiplicity = 1
  Electrons    = 26
  Nalpha       = 13
  Nbeta        = 13

  ==> Algorithm <==

  SCF Algorithm Type is DF.
  DIIS enabled.
  MOM disabled.
  Fractional occupation disabled.
  Guess Type is SAD.
  Energy threshold   = 1.00e-08
  Density threshold  = 1.00e-08
  Integral threshold = 0.00e+00

  ==> Primary Basis <==

  Basis Set: AUG-CC-PVDZ
    Blend: AUG-CC-PVDZ
    Number of shells: 62
    Number of basis function: 132
    Number of Cartesian functions: 138
    Spherical Harmonics?: true
    Max angular momentum: 2

   => Loading Basis Set <=

    Name: (AUG-CC-PVDZ AUX)
    Role: JKFIT
    Keyword: DF_BASIS_SCF
    atoms 1-2       entry C          line   154 file /home/liuchw/anaconda3/envs/psi4env/share/psi4/basis/aug-cc-pvdz-jkfit.gbs 
    atoms 3-6, 8-10 entry H          line    70 file /home/liuchw/anaconda3/envs/psi4env/share/psi4/basis/aug-cc-pvdz-jkfit.gbs 
    atoms 7         entry N          line   212 file /home/liuchw/anaconda3/envs/psi4env/share/psi4/basis/aug-cc-pvdz-jkfit.gbs 

  ==> Pre-Iterations <==

   -------------------------------------------------------
    Irrep   Nso     Nmo     Nalpha   Nbeta   Ndocc  Nsocc
   -------------------------------------------------------
     A        132     132       0       0       0       0
   -------------------------------------------------------
    Total     132     132      13      13      13       0
   -------------------------------------------------------

  ==> Integral Setup <==

  ==> DiskDFJK: Density-Fitted J/K Matrices <==

    J tasked:                  Yes
    K tasked:                  Yes
    wK tasked:                  No
    OpenMP threads:              8
    Integrals threads:           8
    Memory [MiB]:            14305
    Algorithm:                Core
    Integral Cache:           SAVE
    Schwarz Cutoff:          1E-12
    Fitting Condition:       1E-10

   => Auxiliary Basis Set <=

  Basis Set: (AUG-CC-PVDZ AUX)
    Blend: AUG-CC-PVDZ-JKFIT
    Number of shells: 168
    Number of basis function: 482
    Number of Cartesian functions: 548
    Spherical Harmonics?: true
    Max angular momentum: 3

  Minimum eigenvalue in the overlap matrix is 9.6602996694E-05.
  Using Symmetric Orthogonalization.

  SCF Guess: Superposition of Atomic Densities via on-the-fly atomic UHF.

  ==> Iterations <==

                           Total Energy        Delta E     RMS |[F,P]|

   @DF-RHF iter SAD:  -132.93281994868457   -1.32933e+02   0.00000e+00 
   @DF-RHF iter   1:  -134.07815893904657   -1.14534e+00   4.28566e-03 DIIS
   @DF-RHF iter   2:  -134.21248183487378   -1.34323e-01   2.13702e-03 DIIS
   @DF-RHF iter   3:  -134.24853581161176   -3.60540e-02   2.82476e-04 DIIS
   @DF-RHF iter   4:  -134.24978791643207   -1.25210e-03   8.95937e-05 DIIS
   @DF-RHF iter   5:  -134.24987897454614   -9.10581e-05   1.55996e-05 DIIS
   @DF-RHF iter   6:  -134.24988416129307   -5.18675e-06   2.84557e-06 DIIS
   @DF-RHF iter   7:  -134.24988440128266   -2.39990e-07   8.09502e-07 DIIS
   @DF-RHF iter   8:  -134.24988442013245   -1.88498e-08   3.75049e-07 DIIS
   @DF-RHF iter   9:  -134.24988442218381   -2.05137e-09   7.91335e-08 DIIS
   @DF-RHF iter  10:  -134.24988442240675   -2.22940e-10   2.67740e-08 DIIS
   @DF-RHF iter  11:  -134.24988442242451   -1.77636e-11   6.70814e-09 DIIS
  Energy and wave function converged.


  ==> Post-Iterations <==

    Orbital Energies [Eh]
    ---------------------

    Doubly Occupied:                                                      

       1A    -15.556321     2A    -11.225987     3A    -11.223046  
       4A     -1.150732     5A     -1.023764     6A     -0.780886  
       7A     -0.634910     8A     -0.632343     9A     -0.629396  
      10A     -0.573800    11A     -0.496047    12A     -0.435660  
      13A     -0.364038  

    Virtual:                                                              

      14A      0.033622    15A      0.047576    16A      0.051061  
      17A      0.060710    18A      0.064132    19A      0.078787  
      20A      0.089352    21A      0.110100    22A      0.136246  
      23A      0.144688    24A      0.155900    25A      0.171769  
      26A      0.185549    27A      0.190546    28A      0.201947  
      29A      0.206391    30A      0.217226    31A      0.220963  
      32A      0.235403    33A      0.247561    34A      0.290222  
      35A      0.290464    36A      0.302652    37A      0.311445  
      38A      0.326677    39A      0.352871    40A      0.377600  
      41A      0.389750    42A      0.421560    43A      0.429164  
      44A      0.432103    45A      0.448834    46A      0.464826  
      47A      0.473570    48A      0.499008    49A      0.521428  
      50A      0.526796    51A      0.540440    52A      0.555815  
      53A      0.562990    54A      0.565651    55A      0.571268  
      56A      0.598619    57A      0.620086    58A      0.621902  
      59A      0.626231    60A      0.635297    61A      0.647610  
      62A      0.662840    63A      0.665443    64A      0.685151  
      65A      0.705639    66A      0.717780    67A      0.723541  
      68A      0.739505    69A      0.774083    70A      0.778567  
      71A      0.812420    72A      0.842709    73A      0.867753  
      74A      0.904714    75A      0.924928    76A      0.925562  
      77A      0.950508    78A      1.023580    79A      1.040791  
      80A      1.104130    81A      1.201412    82A      1.220577  
      83A      1.240177    84A      1.256231    85A      1.325003  
      86A      1.343069    87A      1.479242    88A      1.509106  
      89A      1.528507    90A      1.552070    91A      1.603250  
      92A      1.672774    93A      1.736327    94A      1.795483  
      95A      1.805577    96A      1.816391    97A      1.880008  
      98A      1.895983    99A      1.900563   100A      1.951401  
     101A      1.996720   102A      2.067715   103A      2.073911  
     104A      2.090649   105A      2.096140   106A      2.117321  
     107A      2.118733   108A      2.152432   109A      2.177133  
     110A      2.188085   111A      2.258329   112A      2.349436  
     113A      2.378858   114A      2.413951   115A      2.414855  
     116A      2.427409   117A      2.438655   118A      2.470611  
     119A      2.518543   120A      2.655841   121A      2.709517  
     122A      2.794171   123A      2.818438   124A      2.857115  
     125A      2.914404   126A      2.918839   127A      2.956513  
     128A      3.132661   129A      3.464981   130A      3.522466  
     131A      3.539680   132A      3.596228  

    Final Occupation by Irrep:
              A 
    DOCC [    13 ]

  @DF-RHF Final Energy:  -134.24988442242451

   => Energetics <=

    Nuclear Repulsion Energy =             66.4468853300435001
    One-Electron Energy =                -311.9396816127120360
    Two-Electron Energy =                 111.2429118602440212
    Total Energy =                       -134.2498844224245147

Computation Completed


Properties will be evaluated at   0.000000,   0.000000,   0.000000 [a0]

Properties computed using the SCF density matrix

  Nuclear Dipole Moment: [e a0]
     X:     2.0166      Y:    -0.6156      Z:     0.0266

  Electronic Dipole Moment: [e a0]
     X:    -1.3754      Y:     0.2616      Z:    -0.0100

  Dipole Moment: [e a0]
     X:     0.6412      Y:    -0.3541      Z:     0.0167     Total:     0.7326

  Dipole Moment: [D]
     X:     1.6297      Y:    -0.9000      Z:     0.0424     Total:     1.8622


*** tstop() called on node101.bme.utexas.edu at Fri Apr 24 00:51:04 2020
Module time:
	user time   =      14.39 seconds =       0.24 minutes
	system time =       0.47 seconds =       0.01 minutes
	total time  =          3 seconds =       0.05 minutes
Total time:
	user time   =      14.39 seconds =       0.24 minutes
	system time =       0.47 seconds =       0.01 minutes
	total time  =          3 seconds =       0.05 minutes

  //>>>>>>>>>>>>>>>>>>>>>>>>>>>>>>>>>>>//
  //            Monomer A HF           //
  //<<<<<<<<<<<<<<<<<<<<<<<<<<<<<<<<<<<//


*** tstart() called on node101.bme.utexas.edu
*** at Fri Apr 24 00:51:04 2020

   => Loading Basis Set <=

    Name: AUG-CC-PVDZ
    Role: ORBITAL
    Keyword: BASIS
    atoms 1-2       entry C          line   182 file /home/liuchw/anaconda3/envs/psi4env/share/psi4/basis/aug-cc-pvdz.gbs 
    atoms 3-6, 8-10 entry H          line    40 file /home/liuchw/anaconda3/envs/psi4env/share/psi4/basis/aug-cc-pvdz.gbs 
    atoms 7         entry N          line   218 file /home/liuchw/anaconda3/envs/psi4env/share/psi4/basis/aug-cc-pvdz.gbs 


         ---------------------------------------------------------
                                   SCF
               by Justin Turney, Rob Parrish, Andy Simmonett
                          and Daniel G. A. Smith
                              RHF Reference
                        8 Threads,  19073 MiB Core
         ---------------------------------------------------------

  ==> Geometry <==

    Molecular point group: c1
    Full point group: C1

    Geometry (in Angstrom), charge = 0, multiplicity = 1:

       Center              X                  Y                   Z               Mass       
    ------------   -----------------  -----------------  -----------------  -----------------
         C           -1.218166947712     0.648841089229    -0.000747677322    12.000000000000
         C           -1.772786947712    -0.563378910771     0.000972322678    12.000000000000
         H           -1.832266947712     1.538721089229    -0.001977677322     1.007825032230
         H           -0.143816947712     0.774531089229    -0.001487677322     1.007825032230
         H           -1.163756947712    -1.456818910771     0.003702322678     1.007825032230
         H           -2.845236947712    -0.698128910771     0.001502322678     1.007825032230
      Gh(N)           2.407753052288    -0.025968910771    -0.002237677322    14.003074004430
      Gh(H)           3.298563052288     0.453291089229    -0.031947677322     1.007825032230
      Gh(H)           2.429603052288    -0.592098910771     0.836342322678     1.007825032230
      Gh(H)           2.415523052288    -0.676258910771    -0.777717677322     1.007825032230

  Running in c1 symmetry.

  Rotational constants: A =      1.00200  B =      0.09703  C =      0.08970 [cm^-1]
  Rotational constants: A =  30039.17756  B =   2908.77385  C =   2689.10632 [MHz]
  Nuclear repulsion =   33.410895154627127

  Charge       = 0
  Multiplicity = 1
  Electrons    = 16
  Nalpha       = 8
  Nbeta        = 8

  ==> Algorithm <==

  SCF Algorithm Type is DF.
  DIIS enabled.
  MOM disabled.
  Fractional occupation disabled.
  Guess Type is SAD.
  Energy threshold   = 1.00e-08
  Density threshold  = 1.00e-08
  Integral threshold = 0.00e+00

  ==> Primary Basis <==

  Basis Set: AUG-CC-PVDZ
    Blend: AUG-CC-PVDZ
    Number of shells: 62
    Number of basis function: 132
    Number of Cartesian functions: 138
    Spherical Harmonics?: true
    Max angular momentum: 2

   => Loading Basis Set <=

    Name: (AUG-CC-PVDZ AUX)
    Role: JKFIT
    Keyword: DF_BASIS_SCF
    atoms 1-2       entry C          line   154 file /home/liuchw/anaconda3/envs/psi4env/share/psi4/basis/aug-cc-pvdz-jkfit.gbs 
    atoms 3-6, 8-10 entry H          line    70 file /home/liuchw/anaconda3/envs/psi4env/share/psi4/basis/aug-cc-pvdz-jkfit.gbs 
    atoms 7         entry N          line   212 file /home/liuchw/anaconda3/envs/psi4env/share/psi4/basis/aug-cc-pvdz-jkfit.gbs 

  ==> Pre-Iterations <==

   -------------------------------------------------------
    Irrep   Nso     Nmo     Nalpha   Nbeta   Ndocc  Nsocc
   -------------------------------------------------------
     A        132     132       0       0       0       0
   -------------------------------------------------------
    Total     132     132       8       8       8       0
   -------------------------------------------------------

  ==> Integral Setup <==

  ==> DiskDFJK: Density-Fitted J/K Matrices <==

    J tasked:                  Yes
    K tasked:                  Yes
    wK tasked:                  No
    OpenMP threads:              8
    Integrals threads:           8
    Memory [MiB]:            14305
    Algorithm:                Core
    Integral Cache:           LOAD
    Schwarz Cutoff:          1E-12
    Fitting Condition:       1E-10

   => Auxiliary Basis Set <=

  Basis Set: (AUG-CC-PVDZ AUX)
    Blend: AUG-CC-PVDZ-JKFIT
    Number of shells: 168
    Number of basis function: 482
    Number of Cartesian functions: 548
    Spherical Harmonics?: true
    Max angular momentum: 3

  Minimum eigenvalue in the overlap matrix is 9.6602996694E-05.
  Using Symmetric Orthogonalization.

  SCF Guess: Superposition of Atomic Densities via on-the-fly atomic UHF.

  ==> Iterations <==

                           Total Energy        Delta E     RMS |[F,P]|

   @DF-RHF iter SAD:   -77.25839170127648   -7.72584e+01   0.00000e+00 
   @DF-RHF iter   1:   -77.96635341421192   -7.07962e-01   2.64161e-03 DIIS
   @DF-RHF iter   2:   -78.03243879882879   -6.60854e-02   1.04661e-03 DIIS
   @DF-RHF iter   3:   -78.04305803427773   -1.06192e-02   1.66501e-04 DIIS
   @DF-RHF iter   4:   -78.04358671234732   -5.28678e-04   1.55879e-05 DIIS
   @DF-RHF iter   5:   -78.04359189510917   -5.18276e-06   1.72271e-06 DIIS
   @DF-RHF iter   6:   -78.04359196580310   -7.06939e-08   3.03238e-07 DIIS
   @DF-RHF iter   7:   -78.04359196701367   -1.21057e-09   1.14827e-07 DIIS
   @DF-RHF iter   8:   -78.04359196718077   -1.67105e-10   2.15077e-08 DIIS
   @DF-RHF iter   9:   -78.04359196718906   -8.28493e-12   4.50528e-09 DIIS
  Energy and wave function converged.


  ==> Post-Iterations <==

    Orbital Energies [Eh]
    ---------------------

    Doubly Occupied:                                                      

       1A    -11.238984     2A    -11.237302     3A     -1.036659  
       4A     -0.793847     5A     -0.645033     6A     -0.586747  
       7A     -0.508053     8A     -0.376467  

    Virtual:                                                              

       9A      0.031337    10A      0.044479    11A      0.047743  
      12A      0.062063    13A      0.062957    14A      0.075862  
      15A      0.086135    16A      0.102156    17A      0.131259  
      18A      0.134079    19A      0.140101    20A      0.150783  
      21A      0.174050    22A      0.180495    23A      0.181866  
      24A      0.182642    25A      0.209254    26A      0.210526  
      27A      0.215475    28A      0.234223    29A      0.300064  
      30A      0.303480    31A      0.317224    32A      0.340120  
      33A      0.351760    34A      0.374619    35A      0.388807  
      36A      0.401735    37A      0.417652    38A      0.418593  
      39A      0.429074    40A      0.439955    41A      0.448628  
      42A      0.460044    43A      0.473500    44A      0.480070  
      45A      0.495213    46A      0.496784    47A      0.544748  
      48A      0.547643    49A      0.554805    50A      0.566785  
      51A      0.571004    52A      0.596725    53A      0.614536  
      54A      0.622787    55A      0.625103    56A      0.634021  
      57A      0.649055    58A      0.655661    59A      0.680195  
      60A      0.702782    61A      0.711265    62A      0.755119  
      63A      0.756801    64A      0.792853    65A      0.821268  
      66A      0.856636    67A      0.885080    68A      0.914602  
      69A      0.923456    70A      0.970046    71A      0.997265  
      72A      1.027587    73A      1.048143    74A      1.053917  
      75A      1.081554    76A      1.085782    77A      1.096861  
      78A      1.117782    79A      1.163844    80A      1.247133  
      81A      1.267434    82A      1.370245    83A      1.470938  
      84A      1.516199    85A      1.525783    86A      1.540100  
      87A      1.652758    88A      1.724680    89A      1.782897  
      90A      1.794766    91A      1.867048    92A      1.883634  
      93A      1.947874    94A      1.981186    95A      2.060042  
      96A      2.066876    97A      2.081666    98A      2.103092  
      99A      2.124403   100A      2.158985   101A      2.161538  
     102A      2.186107   103A      2.244845   104A      2.341305  
     105A      2.384521   106A      2.445902   107A      2.456654  
     108A      2.460503   109A      2.494577   110A      2.516074  
     111A      2.596768   112A      2.610257   113A      2.648098  
     114A      2.700609   115A      2.800612   116A      2.839718  
     117A      2.934901   118A      3.139609   119A      3.151090  
     120A      3.218662   121A      3.452164   122A      3.505543  
     123A      3.556716   124A      3.718622   125A      3.719284  
     126A      3.795300   127A      4.198597   128A      4.217559  
     129A      5.181325   130A      6.047907   131A      6.064889  
     132A     25.433945  

    Final Occupation by Irrep:
              A 
    DOCC [     8 ]

  @DF-RHF Final Energy:   -78.04359196718906

   => Energetics <=

    Nuclear Repulsion Energy =             33.4108951546271271
    One-Electron Energy =                -170.0627904592039670
    Two-Electron Energy =                  58.6083033373877882
    Total Energy =                        -78.0435919671890588

Computation Completed


Properties will be evaluated at   0.000000,   0.000000,   0.000000 [a0]

Properties computed using the SCF density matrix

  Nuclear Dipole Moment: [e a0]
     X:   -45.2227      Y:     1.2682      Z:     0.0058

  Electronic Dipole Moment: [e a0]
     X:    45.2212      Y:    -1.2692      Z:    -0.0054

  Dipole Moment: [e a0]
     X:    -0.0015      Y:    -0.0011      Z:     0.0004     Total:     0.0019

  Dipole Moment: [D]
     X:    -0.0037      Y:    -0.0027      Z:     0.0010     Total:     0.0047


*** tstop() called on node101.bme.utexas.edu at Fri Apr 24 00:51:06 2020
Module time:
	user time   =       8.84 seconds =       0.15 minutes
	system time =       0.32 seconds =       0.01 minutes
	total time  =          2 seconds =       0.03 minutes
Total time:
	user time   =      23.27 seconds =       0.39 minutes
	system time =       0.79 seconds =       0.01 minutes
	total time  =          5 seconds =       0.08 minutes

  //>>>>>>>>>>>>>>>>>>>>>>>>>>>>>>>>>>>//
  //            Monomer B HF           //
  //<<<<<<<<<<<<<<<<<<<<<<<<<<<<<<<<<<<//


*** tstart() called on node101.bme.utexas.edu
*** at Fri Apr 24 00:51:06 2020

   => Loading Basis Set <=

    Name: AUG-CC-PVDZ
    Role: ORBITAL
    Keyword: BASIS
    atoms 1-2       entry C          line   182 file /home/liuchw/anaconda3/envs/psi4env/share/psi4/basis/aug-cc-pvdz.gbs 
    atoms 3-6, 8-10 entry H          line    40 file /home/liuchw/anaconda3/envs/psi4env/share/psi4/basis/aug-cc-pvdz.gbs 
    atoms 7         entry N          line   218 file /home/liuchw/anaconda3/envs/psi4env/share/psi4/basis/aug-cc-pvdz.gbs 


         ---------------------------------------------------------
                                   SCF
               by Justin Turney, Rob Parrish, Andy Simmonett
                          and Daniel G. A. Smith
                              RHF Reference
                        8 Threads,  19073 MiB Core
         ---------------------------------------------------------

  ==> Geometry <==

    Molecular point group: c1
    Full point group: C1

    Geometry (in Angstrom), charge = 0, multiplicity = 1:

       Center              X                  Y                   Z               Mass       
    ------------   -----------------  -----------------  -----------------  -----------------
      Gh(C)          -1.218166947712     0.648841089229    -0.000747677322    12.000000000000
      Gh(C)          -1.772786947712    -0.563378910771     0.000972322678    12.000000000000
      Gh(H)          -1.832266947712     1.538721089229    -0.001977677322     1.007825032230
      Gh(H)          -0.143816947712     0.774531089229    -0.001487677322     1.007825032230
      Gh(H)          -1.163756947712    -1.456818910771     0.003702322678     1.007825032230
      Gh(H)          -2.845236947712    -0.698128910771     0.001502322678     1.007825032230
         N            2.407753052288    -0.025968910771    -0.002237677322    14.003074004430
         H            3.298563052288     0.453291089229    -0.031947677322     1.007825032230
         H            2.429603052288    -0.592098910771     0.836342322678     1.007825032230
         H            2.415523052288    -0.676258910771    -0.777717677322     1.007825032230

  Running in c1 symmetry.

  Rotational constants: A =      1.00200  B =      0.09703  C =      0.08970 [cm^-1]
  Rotational constants: A =  30039.17756  B =   2908.77385  C =   2689.10632 [MHz]
  Nuclear repulsion =   11.963516533565222

  Charge       = 0
  Multiplicity = 1
  Electrons    = 10
  Nalpha       = 5
  Nbeta        = 5

  ==> Algorithm <==

  SCF Algorithm Type is DF.
  DIIS enabled.
  MOM disabled.
  Fractional occupation disabled.
  Guess Type is SAD.
  Energy threshold   = 1.00e-08
  Density threshold  = 1.00e-08
  Integral threshold = 0.00e+00

  ==> Primary Basis <==

  Basis Set: AUG-CC-PVDZ
    Blend: AUG-CC-PVDZ
    Number of shells: 62
    Number of basis function: 132
    Number of Cartesian functions: 138
    Spherical Harmonics?: true
    Max angular momentum: 2

   => Loading Basis Set <=

    Name: (AUG-CC-PVDZ AUX)
    Role: JKFIT
    Keyword: DF_BASIS_SCF
    atoms 1-2       entry C          line   154 file /home/liuchw/anaconda3/envs/psi4env/share/psi4/basis/aug-cc-pvdz-jkfit.gbs 
    atoms 3-6, 8-10 entry H          line    70 file /home/liuchw/anaconda3/envs/psi4env/share/psi4/basis/aug-cc-pvdz-jkfit.gbs 
    atoms 7         entry N          line   212 file /home/liuchw/anaconda3/envs/psi4env/share/psi4/basis/aug-cc-pvdz-jkfit.gbs 

  ==> Pre-Iterations <==

   -------------------------------------------------------
    Irrep   Nso     Nmo     Nalpha   Nbeta   Ndocc  Nsocc
   -------------------------------------------------------
     A        132     132       0       0       0       0
   -------------------------------------------------------
    Total     132     132       5       5       5       0
   -------------------------------------------------------

  ==> Integral Setup <==

  ==> DiskDFJK: Density-Fitted J/K Matrices <==

    J tasked:                  Yes
    K tasked:                  Yes
    wK tasked:                  No
    OpenMP threads:              8
    Integrals threads:           8
    Memory [MiB]:            14305
    Algorithm:                Core
    Integral Cache:           LOAD
    Schwarz Cutoff:          1E-12
    Fitting Condition:       1E-10

   => Auxiliary Basis Set <=

  Basis Set: (AUG-CC-PVDZ AUX)
    Blend: AUG-CC-PVDZ-JKFIT
    Number of shells: 168
    Number of basis function: 482
    Number of Cartesian functions: 548
    Spherical Harmonics?: true
    Max angular momentum: 3

  Minimum eigenvalue in the overlap matrix is 9.6602996694E-05.
  Using Symmetric Orthogonalization.

  SCF Guess: Superposition of Atomic Densities via on-the-fly atomic UHF.

  ==> Iterations <==

                           Total Energy        Delta E     RMS |[F,P]|

   @DF-RHF iter SAD:   -55.63931094693542   -5.56393e+01   0.00000e+00 
   @DF-RHF iter   1:   -56.10826262208878   -4.68952e-01   3.43516e-03 DIIS
   @DF-RHF iter   2:   -56.17774716856560   -6.94845e-02   1.92520e-03 DIIS
   @DF-RHF iter   3:   -56.20502621493722   -2.72790e-02   1.82163e-04 DIIS
   @DF-RHF iter   4:   -56.20563946333660   -6.13248e-04   3.20682e-05 DIIS
   @DF-RHF iter   5:   -56.20565786353922   -1.84002e-05   6.01308e-06 DIIS
   @DF-RHF iter   6:   -56.20565890767421   -1.04413e-06   1.25009e-06 DIIS
   @DF-RHF iter   7:   -56.20565895841834   -5.07441e-08   2.33886e-07 DIIS
   @DF-RHF iter   8:   -56.20565896033230   -1.91396e-09   3.56029e-08 DIIS
   @DF-RHF iter   9:   -56.20565896037463   -4.23341e-11   8.88638e-09 DIIS
  Energy and wave function converged.


  ==> Post-Iterations <==

    Orbital Energies [Eh]
    ---------------------

    Doubly Occupied:                                                      

       1A    -15.552093     2A     -1.145779     3A     -0.627893  
       4A     -0.627092     5A     -0.431316  

    Virtual:                                                              

       6A      0.029093     7A      0.041650     8A      0.049315  
       9A      0.059504    10A      0.063146    11A      0.076675  
      12A      0.088390    13A      0.105790    14A      0.122518  
      15A      0.135418    16A      0.145071    17A      0.146726  
      18A      0.160765    19A      0.186648    20A      0.203556  
      21A      0.204124    22A      0.207111    23A      0.223067  
      24A      0.233416    25A      0.293697    26A      0.302410  
      27A      0.315306    28A      0.334285    29A      0.334757  
      30A      0.351848    31A      0.365465    32A      0.396201  
      33A      0.401227    34A      0.424203    35A      0.425298  
      36A      0.428872    37A      0.452853    38A      0.461599  
      39A      0.466153    40A      0.483685    41A      0.512566  
      42A      0.532828    43A      0.538625    44A      0.547374  
      45A      0.549965    46A      0.561722    47A      0.577091  
      48A      0.590610    49A      0.602677    50A      0.633563  
      51A      0.658062    52A      0.664600    53A      0.685763  
      54A      0.697506    55A      0.705123    56A      0.709477  
      57A      0.725402    58A      0.734411    59A      0.740074  
      60A      0.798950    61A      0.817959    62A      0.842944  
      63A      0.858733    64A      0.875514    65A      0.879181  
      66A      0.915805    67A      0.926928    68A      0.934108  
      69A      0.954742    70A      0.969307    71A      0.978204  
      72A      1.024765    73A      1.104992    74A      1.138106  
      75A      1.207659    76A      1.228845    77A      1.234682  
      78A      1.346797    79A      1.609703    80A      1.817565  
      81A      1.884892    82A      1.953434    83A      1.999053  
      84A      2.025599    85A      2.043423    86A      2.080787  
      87A      2.088808    88A      2.111249    89A      2.130816  
      90A      2.133500    91A      2.197557    92A      2.202976  
      93A      2.247549    94A      2.288263    95A      2.305818  
      96A      2.339392    97A      2.357800    98A      2.370321  
      99A      2.386163   100A      2.419363   101A      2.426104  
     102A      2.430734   103A      2.440677   104A      2.450754  
     105A      2.521838   106A      2.569351   107A      2.599875  
     108A      2.622766   109A      2.766479   110A      2.780567  
     111A      2.814535   112A      2.832477   113A      2.882349  
     114A      2.917498   115A      2.920530   116A      2.940681  
     117A      3.063425   118A      3.141067   119A      3.202414  
     120A      3.319197   121A      3.444211   122A      3.491983  
     123A      3.545247   124A      3.600789   125A      3.986092  
     126A      4.030770   127A      4.242827   128A      5.232060  
     129A      5.290725   130A      5.661707   131A     18.154516  
     132A     18.936236  

    Final Occupation by Irrep:
              A 
    DOCC [     5 ]

  @DF-RHF Final Energy:   -56.20565896037463

   => Energetics <=

    Nuclear Repulsion Energy =             11.9635165335652225
    One-Electron Energy =                 -99.5700014604383057
    Two-Electron Energy =                  31.4008259664984486
    Total Energy =                        -56.2056589603746346

Computation Completed


Properties will be evaluated at   0.000000,   0.000000,   0.000000 [a0]

Properties computed using the SCF density matrix

  Nuclear Dipole Moment: [e a0]
     X:    47.2393      Y:    -1.8838      Z:     0.0208

  Electronic Dipole Moment: [e a0]
     X:   -46.7305      Y:     1.4754      Z:    -0.0030

  Dipole Moment: [e a0]
     X:     0.5088      Y:    -0.4083      Z:     0.0178     Total:     0.6527

  Dipole Moment: [D]
     X:     1.2934      Y:    -1.0379      Z:     0.0452     Total:     1.6589


*** tstop() called on node101.bme.utexas.edu at Fri Apr 24 00:51:07 2020
Module time:
	user time   =       8.50 seconds =       0.14 minutes
	system time =       0.30 seconds =       0.01 minutes
	total time  =          1 seconds =       0.02 minutes
Total time:
	user time   =      31.82 seconds =       0.53 minutes
	system time =       1.09 seconds =       0.02 minutes
	total time  =          6 seconds =       0.10 minutes
  Constructing Basis Sets for SAPT...

   => Loading Basis Set <=

    Name: (AUG-CC-PVDZ AUX)
    Role: RIFIT
    Keyword: DF_BASIS_SAPT
    atoms 1-2       entry C          line   112 file /home/liuchw/anaconda3/envs/psi4env/share/psi4/basis/aug-cc-pvdz-ri.gbs 
    atoms 3-6, 8-10 entry H          line    30 file /home/liuchw/anaconda3/envs/psi4env/share/psi4/basis/aug-cc-pvdz-ri.gbs 
    atoms 7         entry N          line   158 file /home/liuchw/anaconda3/envs/psi4env/share/psi4/basis/aug-cc-pvdz-ri.gbs 


  //>>>>>>>>>>>>>>>>>>>>>>>>>>>>>>>>>>>//
  //               SAPT2+              //
  //<<<<<<<<<<<<<<<<<<<<<<<<<<<<<<<<<<<//


*** tstart() called on node101.bme.utexas.edu
*** at Fri Apr 24 00:51:07 2020

        SAPT2+  
    Ed Hohenstein
     6 June 2009

      Orbital Information
  --------------------------
    NSO        =       132
    NMO        =       132
    NRI        =       377
    NOCC A     =         8
    NOCC B     =         5
    FOCC A     =         2
    FOCC B     =         1
    NVIR A     =       124
    NVIR B     =       127

    Estimated memory usage: 73.4 MB

    Natural Orbital Cutoff:   1.000E-06
    Disp(T3) Truncation:            Yes
    CCD (vv|vv) Truncation:         Yes
    MBPT T2 Truncation:             Yes

    Monomer A: 54 virtual orbitals dropped
    Monomer B: 81 virtual orbitals dropped

    Elst10,r            =    -0.002620433020 [Eh]
    Exch10 (S^2)        =     0.002762249329 [Eh]
    Exch10              =     0.002769259750 [Eh]
    Ind20,r (A<-B)      =    -0.000511704280 [Eh]
    Ind20,r (B<-A)      =    -0.000381915004 [Eh]
    Ind20,r             =    -0.000893619284 [Eh]
    Exch-Ind20,r (A<-B) =     0.000101487770 [Eh]
    Exch-Ind20,r (B<-A) =     0.000289139232 [Eh]
    Exch-Ind20,r        =     0.000390627003 [Eh]
    Disp20              =    -0.001926390496 [Eh]
    Disp20 (NO)         =    -0.001692626219 [Eh]
    Exch-Disp20         =     0.000234248401 [Eh]
    Elst12,r            =    -0.000022370086 [Eh]
    Exch11              =    -0.000002815663 [Eh]
    Exch12              =     0.000423244672 [Eh]
    Ind22               =    -0.000084151083 [Eh]
    Disp21              =     0.000014297638 [Eh]
    Disp22 (SDQ)        =     0.000031312878 [Eh]

    (i =   1 of   4)          0 seconds
    (i =   2 of   4)          1 seconds
    (i =   3 of   4)          1 seconds
    (i =   4 of   4)          1 seconds

    Disp220 (T)         =    -0.000111278099 [Eh]

    (i =   1 of   6)          0 seconds
    (i =   2 of   6)          0 seconds
    (i =   3 of   6)          0 seconds
    (i =   4 of   6)          0 seconds
    (i =   5 of   6)          0 seconds
    (i =   6 of   6)          0 seconds

    Disp202 (T)         =    -0.000131049018 [Eh]

    Disp22 (T)          =    -0.000242327117 [Eh]

    Est. Disp220 (T)    =    -0.000126646432 [Eh]
    Est. Disp202 (T)    =    -0.000149147862 [Eh]

    Est. Disp22 (T)     =    -0.000275794295 [Eh]

    SAPT Results 
  --------------------------------------------------------------------------------------------------------
    Electrostatics                 -2.64280311 [mEh]      -1.65838399 [kcal/mol]      -6.93867860 [kJ/mol]
      Elst10,r                     -2.62043302 [mEh]      -1.64434655 [kcal/mol]      -6.87994595 [kJ/mol]
      Elst12,r                     -0.02237009 [mEh]      -0.01403744 [kcal/mol]      -0.05873265 [kJ/mol]

    Exchange                        3.18968876 [mEh]       2.00155992 [kcal/mol]       8.37452668 [kJ/mol]
      Exch10                        2.76925975 [mEh]       1.73773673 [kcal/mol]       7.27069047 [kJ/mol]
      Exch10(S^2)                   2.76224933 [mEh]       1.73333762 [kcal/mol]       7.25228461 [kJ/mol]
      Exch11(S^2)                  -0.00281566 [mEh]      -0.00176685 [kcal/mol]      -0.00739252 [kJ/mol]
      Exch12(S^2)                   0.42324467 [mEh]       0.26559004 [kcal/mol]       1.11122873 [kJ/mol]

    Induction                      -0.82968779 [mEh]      -0.52063695 [kcal/mol]      -2.17834498 [kJ/mol]
      Ind20,r                      -0.89361928 [mEh]      -0.56075457 [kcal/mol]      -2.34619711 [kJ/mol]
      Ind22                        -0.08415108 [mEh]      -0.05280560 [kcal/mol]      -0.22093864 [kJ/mol]
      Exch-Ind20,r                  0.39062700 [mEh]       0.24512214 [kcal/mol]       1.02559105 [kJ/mol]
      Exch-Ind22                    0.03678489 [mEh]       0.02308287 [kcal/mol]       0.09657871 [kJ/mol]
      delta HF,r (2)               -0.27932931 [mEh]      -0.17528179 [kcal/mol]      -0.73337900 [kJ/mol]

    Dispersion                     -1.92232587 [mEh]      -1.20627770 [kcal/mol]      -5.04706588 [kJ/mol]
      Disp20                       -1.92639050 [mEh]      -1.20882829 [kcal/mol]      -5.05773755 [kJ/mol]
      Disp21                        0.01429764 [mEh]       0.00897190 [kcal/mol]       0.03753844 [kJ/mol]
      Disp22 (SDQ)                  0.03131288 [mEh]       0.01964913 [kcal/mol]       0.08221195 [kJ/mol]
      Disp22 (T)                   -0.24232712 [mEh]      -0.15206256 [kcal/mol]      -0.63622976 [kJ/mol]
      Est. Disp22 (T)              -0.27579429 [mEh]      -0.17306353 [kcal/mol]      -0.72409782 [kJ/mol]
      Exch-Disp20                   0.23424840 [mEh]       0.14699309 [kcal/mol]       0.61501909 [kJ/mol]

  Total HF                         -0.63349486 [mEh]      -0.39752403 [kcal/mol]      -1.66324053 [kJ/mol]
  Total SAPT0                      -2.32563696 [mEh]      -1.45935922 [kcal/mol]      -6.10595899 [kJ/mol]
  Total SAPT2                      -1.97494423 [mEh]      -1.23929621 [kcal/mol]      -5.18521535 [kJ/mol]
  Total SAPT2+                     -2.20512801 [mEh]      -1.38373871 [kcal/mol]      -5.78956278 [kJ/mol]

  Special recipe for scaled SAPT0 (see Manual):
    Electrostatics sSAPT0          -2.62043302 [mEh]      -1.64434655 [kcal/mol]      -6.87994595 [kJ/mol]
    Exchange sSAPT0                 2.76925975 [mEh]       1.73773673 [kcal/mol]       7.27069047 [kJ/mol]
    Induction sSAPT0               -0.77933987 [mEh]      -0.48904315 [kcal/mol]      -2.04615656 [kJ/mol]
    Dispersion sSAPT0              -1.69035404 [mEh]      -1.06071317 [kcal/mol]      -4.43802392 [kJ/mol]
  Total sSAPT0                     -2.32086718 [mEh]      -1.45636614 [kcal/mol]      -6.09343595 [kJ/mol]
  --------------------------------------------------------------------------------------------------------

*** tstop() called on node101.bme.utexas.edu at Fri Apr 24 00:51:12 2020
Module time:
	user time   =      37.67 seconds =       0.63 minutes
	system time =       2.02 seconds =       0.03 minutes
	total time  =          5 seconds =       0.08 minutes
Total time:
	user time   =      70.09 seconds =       1.17 minutes
	system time =       3.14 seconds =       0.05 minutes
	total time  =         11 seconds =       0.18 minutes

    Psi4 stopped on: Friday, 24 April 2020 12:51AM
    Psi4 wall time for execution: 0:00:10.68

*** Psi4 exiting successfully. Buy a developer a beer!
