
    -----------------------------------------------------------------------
          Psi4: An Open-Source Ab Initio Electronic Structure Package
                               Psi4 1.4a2.dev224 

                         Git: Rev {master} e453b16 


    R. M. Parrish, L. A. Burns, D. G. A. Smith, A. C. Simmonett,
    A. E. DePrince III, E. G. Hohenstein, U. Bozkaya, A. Yu. Sokolov,
    R. Di Remigio, R. M. Richard, J. F. Gonthier, A. M. James,
    H. R. McAlexander, A. Kumar, M. Saitow, X. Wang, B. P. Pritchard,
    P. Verma, H. F. Schaefer III, K. Patkowski, R. A. King, E. F. Valeev,
    F. A. Evangelista, J. M. Turney, T. D. Crawford, and C. D. Sherrill,
    J. Chem. Theory Comput. 13(7) pp 3185--3197 (2017).
    (doi: 10.1021/acs.jctc.7b00174)


                         Additional Contributions by
    P. Kraus, H. Kruse, M. H. Lechner, M. C. Schieber, R. A. Shaw,
    A. Alenaizan, R. Galvelis, Z. L. Glick, S. Lehtola, and J. P. Misiewicz

    -----------------------------------------------------------------------


    Psi4 started on: Wednesday, 29 June 2011 04:25PM

    Process ID: 84575
    Host:       node142.bme.utexas.edu
    PSIDATADIR: /home/liuchw/anaconda3/envs/psi4env/share/psi4
    Memory:     500.0 MiB
    Threads:    8
    
  ==> Input File <==

--------------------------------------------------------------------------
#Generated by lconvert.py for cbs job

memory 50 GB

molecule  {
0 1
  C      -3.110208    1.144977   -0.620728
  S      -2.707703   -0.583358   -0.238959
  H      -1.379422   -0.424593   -0.239937
  H      -2.704740    1.438707   -1.583687
  H      -2.748134    1.812574    0.154635
  H      -4.193859    1.210314   -0.661830
--
0 1
  O       0.824550    0.240941   -0.328033
  H       1.418677   -0.049953   -1.023097
  H       1.381841    0.267392    0.452637
units angstrom
no_reorient
symmetry c1
}

set {
scf_type DF
mp2_type DF
e_convergence 7
reference rhf
}

energy(cbs, corl_wfn='mp2', corl_basis='aug-cc-pv[tq]z', delta_wfn='ccsd(t)', delta_basis='aug-cc-pv[dt]z', bsse_type='cp')
--------------------------------------------------------------------------

  Memory set to  46.566 GiB by Python driver.

Scratch directory: /scratch/liuchw/


   ===> N-Body Interaction Abacus <===
        BSSE Treatment:                     cp
        Number of 1-body computations:     4
        Number of 2-body computations:     1

   ==> N-Body: Now computing 1-body complexes <==


       N-Body: Computing complex (1/4) with fragments (2,) in the basis of fragments (2,).


Scratch directory: /scratch/liuchw/

  //>>>>>>>>>>>>>>>>>>>>>>>>>>>>>>>>>>>//
  //     CBS Setup: custom function    //
  //<<<<<<<<<<<<<<<<<<<<<<<<<<<<<<<<<<<//

    Naive listing of computations required.
             hf / aug-cc-pvqz              for  HF TOTAL ENERGY
            mp2 / aug-cc-pvtz              for  MP2 TOTAL ENERGY
            mp2 / aug-cc-pvqz              for  MP2 TOTAL ENERGY
             hf / aug-cc-pvtz              for  HF TOTAL ENERGY
             hf / aug-cc-pvqz              for  HF TOTAL ENERGY
        ccsd(t) / aug-cc-pvdz              for  CCSD(T) TOTAL ENERGY
        ccsd(t) / aug-cc-pvtz              for  CCSD(T) TOTAL ENERGY
            mp2 / aug-cc-pvdz              for  MP2 TOTAL ENERGY
            mp2 / aug-cc-pvtz              for  MP2 TOTAL ENERGY

    Enlightened listing of computations required.
            mp2 / aug-cc-pvqz              for  MP2 TOTAL ENERGY
        ccsd(t) / aug-cc-pvdz              for  CCSD(T) TOTAL ENERGY
        ccsd(t) / aug-cc-pvtz              for  CCSD(T) TOTAL ENERGY

    Full listing of computations to be obtained (required and bonus).
             hf / aug-cc-pvqz              for  HF TOTAL ENERGY
            mp2 / aug-cc-pvqz              for  MP2 TOTAL ENERGY
             hf / aug-cc-pvdz              for  HF TOTAL ENERGY
            mp2 / aug-cc-pvdz              for  MP2 TOTAL ENERGY
           ccsd / aug-cc-pvdz              for  CCSD TOTAL ENERGY
        ccsd(t) / aug-cc-pvdz              for  CCSD(T) TOTAL ENERGY
             hf / aug-cc-pvtz              for  HF TOTAL ENERGY
            mp2 / aug-cc-pvtz              for  MP2 TOTAL ENERGY
           ccsd / aug-cc-pvtz              for  CCSD TOTAL ENERGY
        ccsd(t) / aug-cc-pvtz              for  CCSD(T) TOTAL ENERGY

  //>>>>>>>>>>>>>>>>>>>>>>>>>>>>>>>>>>>>//
  // CBS Computation: MP2 / AUG-CC-PVQZ //
  //<<<<<<<<<<<<<<<<<<<<<<<<<<<<<<<<<<<<//


Scratch directory: /scratch/liuchw/

*** tstart() called on node142.bme.utexas.edu
*** at Wed Jun 29 16:25:41 2011

   => Loading Basis Set <=

    Name: AUG-CC-PVQZ
    Role: ORBITAL
    Keyword: BASIS
    atoms 1   entry O          line   423 file /home/liuchw/anaconda3/envs/psi4env/share/psi4/basis/aug-cc-pvqz.gbs 
    atoms 2-3 entry H          line    40 file /home/liuchw/anaconda3/envs/psi4env/share/psi4/basis/aug-cc-pvqz.gbs 


         ---------------------------------------------------------
                                   SCF
               by Justin Turney, Rob Parrish, Andy Simmonett
                          and Daniel G. A. Smith
                              RHF Reference
                        8 Threads,  47683 MiB Core
         ---------------------------------------------------------

  ==> Geometry <==

    Molecular point group: c1
    Full point group: C1

    Geometry (in Angstrom), charge = 0, multiplicity = 1:

       Center              X                  Y                   Z               Mass       
    ------------   -----------------  -----------------  -----------------  -----------------
         O            2.627120370641     0.192010068723     0.024310656486    15.994914619570
         H            3.221247370641    -0.098883931277    -0.670753343514     1.007825032230
         H            3.184411370641     0.218461068723     0.804980656486     1.007825032230

  Running in c1 symmetry.

  Rotational constants: A =     14.01755  B =      0.12801  C =      0.12696 [cm^-1]
  Rotational constants: A = 420235.45349  B =   3837.77868  C =   3806.12717 [MHz]
  Nuclear repulsion =    9.174304243509276

  Charge       = 0
  Multiplicity = 1
  Electrons    = 10
  Nalpha       = 5
  Nbeta        = 5

  ==> Algorithm <==

  SCF Algorithm Type is DF.
  DIIS enabled.
  MOM disabled.
  Fractional occupation disabled.
  Guess Type is SAD.
  Energy threshold   = 1.00e-07
  Density threshold  = 1.00e-08
  Integral threshold = 0.00e+00

  ==> Primary Basis <==

  Basis Set: AUG-CC-PVQZ
    Blend: AUG-CC-PVQZ
    Number of shells: 48
    Number of basis function: 172
    Number of Cartesian functions: 215
    Spherical Harmonics?: true
    Max angular momentum: 4

   => Loading Basis Set <=

    Name: (AUG-CC-PVQZ AUX)
    Role: JKFIT
    Keyword: DF_BASIS_SCF
    atoms 1   entry O          line   318 file /home/liuchw/anaconda3/envs/psi4env/share/psi4/basis/aug-cc-pvqz-jkfit.gbs 
    atoms 2-3 entry H          line    70 file /home/liuchw/anaconda3/envs/psi4env/share/psi4/basis/aug-cc-pvqz-jkfit.gbs 

  ==> Pre-Iterations <==

   -------------------------------------------------------
    Irrep   Nso     Nmo     Nalpha   Nbeta   Ndocc  Nsocc
   -------------------------------------------------------
     A        172     172       0       0       0       0
   -------------------------------------------------------
    Total     172     172       5       5       5       0
   -------------------------------------------------------

  ==> Integral Setup <==

  DFHelper Memory: AOs need 0.074 GiB; user supplied 34.925 GiB. Using in-core AOs.

  ==> MemDFJK: Density-Fitted J/K Matrices <==

    J tasked:                   Yes
    K tasked:                   Yes
    wK tasked:                   No
    OpenMP threads:               8
    Memory [MiB]:             35762
    Algorithm:                 Core
    Schwarz Cutoff:           1E-12
    Mask sparsity (%):       0.0000
    Fitting Condition:        1E-10

   => Auxiliary Basis Set <=

  Basis Set: (AUG-CC-PVQZ AUX)
    Blend: AUG-CC-PVQZ-JKFIT
    Number of shells: 70
    Number of basis function: 294
    Number of Cartesian functions: 400
    Spherical Harmonics?: true
    Max angular momentum: 5

  Minimum eigenvalue in the overlap matrix is 8.7165382486E-05.
  Using Symmetric Orthogonalization.

  SCF Guess: Superposition of Atomic Densities via on-the-fly atomic UHF.

  ==> Iterations <==

                           Total Energy        Delta E     RMS |[F,P]|

   @DF-RHF iter SAD:   -75.48131426294674   -7.54813e+01   0.00000e+00 
   @DF-RHF iter   1:   -75.98105073529428   -4.99736e-01   2.72962e-03 DIIS
   @DF-RHF iter   2:   -76.03366254805479   -5.26118e-02   1.86600e-03 DIIS
   @DF-RHF iter   3:   -76.06534929506415   -3.16867e-02   1.27129e-04 DIIS
   @DF-RHF iter   4:   -76.06573976803151   -3.90473e-04   3.11101e-05 DIIS
   @DF-RHF iter   5:   -76.06576493713739   -2.51691e-05   7.04216e-06 DIIS
   @DF-RHF iter   6:   -76.06576700380865   -2.06667e-06   1.58252e-06 DIIS
   @DF-RHF iter   7:   -76.06576711955864   -1.15750e-07   2.94023e-07 DIIS
   @DF-RHF iter   8:   -76.06576712306799   -3.50934e-09   4.73041e-08 DIIS
   @DF-RHF iter   9:   -76.06576712314111   -7.31291e-11   1.13012e-08 DIIS
   @DF-RHF iter  10:   -76.06576712314506   -3.95062e-12   1.70116e-09 DIIS
  Energy and wave function converged.


  ==> Post-Iterations <==

    Orbital Energies [Eh]
    ---------------------

    Doubly Occupied:                                                      

       1A    -20.565477     2A     -1.352223     3A     -0.715110  
       4A     -0.586005     5A     -0.510520  

    Virtual:                                                              

       6A      0.026881     7A      0.043114     8A      0.114080  
       9A      0.133480    10A      0.151171    11A      0.158724  
      12A      0.184961    13A      0.197109    14A      0.209398  
      15A      0.237300    16A      0.256984    17A      0.291707  
      18A      0.357810    19A      0.390149    20A      0.469740  
      21A      0.508905    22A      0.542043    23A      0.547760  
      24A      0.556310    25A      0.614446    26A      0.632343  
      27A      0.647221    28A      0.663374    29A      0.665656  
      30A      0.684624    31A      0.706485    32A      0.719335  
      33A      0.769833    34A      0.789490    35A      0.802366  
      36A      0.803017    37A      0.843108    38A      0.854016  
      39A      0.967967    40A      1.122903    41A      1.136826  
      42A      1.209276    43A      1.332421    44A      1.440805  
      45A      1.482698    46A      1.509519    47A      1.513569  
      48A      1.526324    49A      1.554052    50A      1.589833  
      51A      1.621157    52A      1.638254    53A      1.662413  
      54A      1.664231    55A      1.688487    56A      1.702824  
      57A      1.736531    58A      1.752011    59A      1.766584  
      60A      1.775971    61A      1.843793    62A      1.864584  
      63A      1.894637    64A      1.916176    65A      1.983412  
      66A      2.008025    67A      2.033811    68A      2.039550  
      69A      2.099517    70A      2.206258    71A      2.216598  
      72A      2.314202    73A      2.437276    74A      2.627592  
      75A      2.632947    76A      2.887973    77A      2.959758  
      78A      2.995388    79A      3.040977    80A      3.056415  
      81A      3.086423    82A      3.268593    83A      3.305025  
      84A      3.309862    85A      3.490191    86A      3.588476  
      87A      3.643535    88A      3.688039    89A      3.720779  
      90A      3.780348    91A      3.923233    92A      4.078568  
      93A      4.166390    94A      4.167310    95A      4.178201  
      96A      4.178806    97A      4.232443    98A      4.330067  
      99A      4.432645   100A      4.581360   101A      4.729190  
     102A      4.746081   103A      4.779876   104A      4.781396  
     105A      4.809843   106A      4.879072   107A      4.995842  
     108A      5.236768   109A      5.313889   110A      5.523987  
     111A      5.535948   112A      5.859680   113A      5.889794  
     114A      6.074559   115A      6.235917   116A      6.824954  
     117A      6.886454   118A      6.889490   119A      6.908606  
     120A      7.731600   121A      7.779941   122A      7.785392  
     123A      7.823202   124A      7.839922   125A      7.900506  
     126A      7.924948   127A      8.022453   128A      8.169784  
     129A      8.202160   130A      8.532931   131A      8.626695  
     132A      8.652626   133A      8.694628   134A      8.789668  
     135A      8.847762   136A      8.986174   137A      9.042307  
     138A      9.222341   139A      9.671103   140A      9.907740  
     141A      9.916323   142A      9.945127   143A      9.993048  
     144A     10.329211   145A     10.452450   146A     10.677247  
     147A     11.018311   148A     11.073893   149A     11.091527  
     150A     11.269428   151A     11.310881   152A     11.414285  
     153A     11.716461   154A     11.796249   155A     11.830889  
     156A     11.990344   157A     12.204136   158A     12.207476  
     159A     12.626234   160A     12.741597   161A     12.832714  
     162A     12.907937   163A     13.176242   164A     14.003277  
     165A     14.017224   166A     14.510578   167A     14.809796  
     168A     14.906775   169A     15.260217   170A     16.844095  
     171A     17.295527   172A     45.505250  

    Final Occupation by Irrep:
              A 
    DOCC [     5 ]

  @DF-RHF Final Energy:   -76.06576712314506

   => Energetics <=

    Nuclear Repulsion Energy =              9.1743042435092761
    One-Electron Energy =                -123.0214752591619600
    Two-Electron Energy =                  37.7814038925076190
    Total Energy =                        -76.0657671231450649

Computation Completed


Properties will be evaluated at   0.000000,   0.000000,   0.000000 [a0]

Properties computed using the SCF density matrix

  Nuclear Dipole Moment: [e a0]
     X:    51.8212      Y:     3.1287      Z:     0.6212

  Electronic Dipole Moment: [e a0]
     X:   -51.0585      Y:    -3.3039      Z:    -0.5645

  Dipole Moment: [e a0]
     X:     0.7628      Y:    -0.1752      Z:     0.0567     Total:     0.7847

  Dipole Moment: [D]
     X:     1.9388      Y:    -0.4453      Z:     0.1441     Total:     1.9945


*** tstop() called on node142.bme.utexas.edu at Wed Jun 29 16:25:44 2011
Module time:
	user time   =      14.41 seconds =       0.24 minutes
	system time =       1.10 seconds =       0.02 minutes
	total time  =          3 seconds =       0.05 minutes
Total time:
	user time   =      14.41 seconds =       0.24 minutes
	system time =       1.10 seconds =       0.02 minutes
	total time  =          3 seconds =       0.05 minutes

*** tstart() called on node142.bme.utexas.edu
*** at Wed Jun 29 16:25:44 2011


  //>>>>>>>>>>>>>>>>>>>>>>>>>>>>>>>>>>>//
  //               DFMP2               //
  //<<<<<<<<<<<<<<<<<<<<<<<<<<<<<<<<<<<//

   => Loading Basis Set <=

    Name: (AUG-CC-PVQZ AUX)
    Role: RIFIT
    Keyword: DF_BASIS_MP2
    atoms 1   entry O          line   332 file /home/liuchw/anaconda3/envs/psi4env/share/psi4/basis/aug-cc-pvqz-ri.gbs 
    atoms 2-3 entry H          line    30 file /home/liuchw/anaconda3/envs/psi4env/share/psi4/basis/aug-cc-pvqz-ri.gbs 

	 --------------------------------------------------------
	                          DF-MP2                         
	      2nd-Order Density-Fitted Moller-Plesset Theory     
	              RMP2 Wavefunction,   8 Threads             
	                                                         
	        Rob Parrish, Justin Turney, Andy Simmonett,      
	           Ed Hohenstein, and C. David Sherrill          
	 --------------------------------------------------------

   => Auxiliary Basis Set <=

  Basis Set: (AUG-CC-PVQZ AUX)
    Blend: AUG-CC-PVQZ-RI
    Number of shells: 76
    Number of basis function: 328
    Number of Cartesian functions: 447
    Spherical Harmonics?: true
    Max angular momentum: 5

	 --------------------------------------------------------
	                 NBF =   172, NAUX =   328
	 --------------------------------------------------------
	   CLASS    FOCC     OCC    AOCC    AVIR     VIR    FVIR
	   PAIRS       0       5       5     167     167       0
	 --------------------------------------------------------

	-----------------------------------------------------------
	 ==================> DF-MP2 Energies <==================== 
	-----------------------------------------------------------
	 Reference Energy          =     -76.0657671231450649 [Eh]
	 Singles Energy            =      -0.0000000000000000 [Eh]
	 Same-Spin Energy          =      -0.0727172105334247 [Eh]
	 Opposite-Spin Energy      =      -0.2442495921174500 [Eh]
	 Correlation Energy        =      -0.3169668026508747 [Eh]
	 Total Energy              =     -76.3827339257959466 [Eh]
	-----------------------------------------------------------
	 ================> DF-SCS-MP2 Energies <================== 
	-----------------------------------------------------------
	 SCS Same-Spin Scale       =       0.3333333333333333 [-]
	 SCS Opposite-Spin Scale   =       1.2000000000000000 [-]
	 SCS Same-Spin Energy      =      -0.0242390701778082 [Eh]
	 SCS Opposite-Spin Energy  =      -0.2930995105409400 [Eh]
	 SCS Correlation Energy    =      -0.3173385807187483 [Eh]
	 SCS Total Energy          =     -76.3831057038638193 [Eh]
	-----------------------------------------------------------


*** tstop() called on node142.bme.utexas.edu at Wed Jun 29 16:25:45 2011
Module time:
	user time   =       4.99 seconds =       0.08 minutes
	system time =       0.32 seconds =       0.01 minutes
	total time  =          1 seconds =       0.02 minutes
Total time:
	user time   =      19.41 seconds =       0.32 minutes
	system time =       1.42 seconds =       0.02 minutes
	total time  =          4 seconds =       0.07 minutes

  //>>>>>>>>>>>>>>>>>>>>>>>>>>>>>>>>>>>>>>>>//
  // CBS Computation: CCSD(T) / AUG-CC-PVDZ //
  //<<<<<<<<<<<<<<<<<<<<<<<<<<<<<<<<<<<<<<<<//


Scratch directory: /scratch/liuchw/

*** tstart() called on node142.bme.utexas.edu
*** at Wed Jun 29 16:25:45 2011

   => Loading Basis Set <=

    Name: AUG-CC-PVDZ
    Role: ORBITAL
    Keyword: BASIS
    atoms 1   entry O          line   254 file /home/liuchw/anaconda3/envs/psi4env/share/psi4/basis/aug-cc-pvdz.gbs 
    atoms 2-3 entry H          line    40 file /home/liuchw/anaconda3/envs/psi4env/share/psi4/basis/aug-cc-pvdz.gbs 


         ---------------------------------------------------------
                                   SCF
               by Justin Turney, Rob Parrish, Andy Simmonett
                          and Daniel G. A. Smith
                              RHF Reference
                        8 Threads,  47683 MiB Core
         ---------------------------------------------------------

  ==> Geometry <==

    Molecular point group: c1
    Full point group: C1

    Geometry (in Angstrom), charge = 0, multiplicity = 1:

       Center              X                  Y                   Z               Mass       
    ------------   -----------------  -----------------  -----------------  -----------------
         O            2.627120370641     0.192010068723     0.024310656486    15.994914619570
         H            3.221247370641    -0.098883931277    -0.670753343514     1.007825032230
         H            3.184411370641     0.218461068723     0.804980656486     1.007825032230

  Running in c1 symmetry.

  Rotational constants: A =     14.01755  B =      0.12801  C =      0.12696 [cm^-1]
  Rotational constants: A = 420235.45349  B =   3837.77868  C =   3806.12717 [MHz]
  Nuclear repulsion =    9.174304243509276

  Charge       = 0
  Multiplicity = 1
  Electrons    = 10
  Nalpha       = 5
  Nbeta        = 5

  ==> Algorithm <==

  SCF Algorithm Type is DF.
  DIIS enabled.
  MOM disabled.
  Fractional occupation disabled.
  Guess Type is SAD.
  Energy threshold   = 1.00e-07
  Density threshold  = 1.00e-08
  Integral threshold = 0.00e+00

  ==> Primary Basis <==

  Basis Set: AUG-CC-PVDZ
    Blend: AUG-CC-PVDZ
    Number of shells: 19
    Number of basis function: 41
    Number of Cartesian functions: 43
    Spherical Harmonics?: true
    Max angular momentum: 2

   => Loading Basis Set <=

    Name: (AUG-CC-PVDZ AUX)
    Role: JKFIT
    Keyword: DF_BASIS_SCF
    atoms 1   entry O          line   270 file /home/liuchw/anaconda3/envs/psi4env/share/psi4/basis/aug-cc-pvdz-jkfit.gbs 
    atoms 2-3 entry H          line    70 file /home/liuchw/anaconda3/envs/psi4env/share/psi4/basis/aug-cc-pvdz-jkfit.gbs 

  ==> Pre-Iterations <==

   -------------------------------------------------------
    Irrep   Nso     Nmo     Nalpha   Nbeta   Ndocc  Nsocc
   -------------------------------------------------------
     A         41      41       0       0       0       0
   -------------------------------------------------------
    Total      41      41       5       5       5       0
   -------------------------------------------------------

  ==> Integral Setup <==

  DFHelper Memory: AOs need 0.002 GiB; user supplied 34.925 GiB. Using in-core AOs.

  ==> MemDFJK: Density-Fitted J/K Matrices <==

    J tasked:                   Yes
    K tasked:                   Yes
    wK tasked:                   No
    OpenMP threads:               8
    Memory [MiB]:             35762
    Algorithm:                 Core
    Schwarz Cutoff:           1E-12
    Mask sparsity (%):       0.0000
    Fitting Condition:        1E-10

   => Auxiliary Basis Set <=

  Basis Set: (AUG-CC-PVDZ AUX)
    Blend: AUG-CC-PVDZ-JKFIT
    Number of shells: 52
    Number of basis function: 150
    Number of Cartesian functions: 171
    Spherical Harmonics?: true
    Max angular momentum: 3

  Minimum eigenvalue in the overlap matrix is 2.6561592251E-03.
  Using Symmetric Orthogonalization.

  SCF Guess: Superposition of Atomic Densities via on-the-fly atomic UHF.

  ==> Iterations <==

                           Total Energy        Delta E     RMS |[F,P]|

   @DF-RHF iter SAD:   -75.46419017271020   -7.54642e+01   0.00000e+00 
   @DF-RHF iter   1:   -75.95694764832807   -4.92757e-01   1.10512e-02 DIIS
   @DF-RHF iter   2:   -76.01015960425568   -5.32120e-02   7.21902e-03 DIIS
   @DF-RHF iter   3:   -76.04081821103672   -3.06586e-02   5.18158e-04 DIIS
   @DF-RHF iter   4:   -76.04119532389106   -3.77113e-04   1.16289e-04 DIIS
   @DF-RHF iter   5:   -76.04121664096090   -2.13171e-05   2.62838e-05 DIIS
   @DF-RHF iter   6:   -76.04121832982521   -1.68886e-06   5.28215e-06 DIIS
   @DF-RHF iter   7:   -76.04121840188471   -7.20595e-08   8.74817e-07 DIIS
   @DF-RHF iter   8:   -76.04121840371101   -1.82631e-09   1.34829e-07 DIIS
   @DF-RHF iter   9:   -76.04121840374928   -3.82698e-11   3.51233e-08 DIIS
   @DF-RHF iter  10:   -76.04121840375178   -2.50111e-12   4.83559e-09 DIIS
  Energy and wave function converged.


  ==> Post-Iterations <==

    Orbital Energies [Eh]
    ---------------------

    Doubly Occupied:                                                      

       1A    -20.577980     2A     -1.355986     3A     -0.716578  
       4A     -0.586661     5A     -0.509456  

    Virtual:                                                              

       6A      0.035358     7A      0.058017     8A      0.173963  
       9A      0.196884    10A      0.222617    11A      0.231790  
      12A      0.289749    13A      0.332309    14A      0.386069  
      15A      0.402376    16A      0.432410    17A      0.539681  
      18A      0.647790    19A      0.658283    20A      0.808918  
      21A      0.931491    22A      1.102028    23A      1.116626  
      24A      1.148738    25A      1.303521    26A      1.465318  
      27A      1.481691    28A      1.583982    29A      2.004457  
      30A      2.008959    31A      2.110751    32A      2.359798  
      33A      2.479612    34A      2.624825    35A      2.713024  
      36A      2.972867    37A      3.673981    38A      3.691441  
      39A      3.702763    40A      4.020314    41A      4.306279  

    Final Occupation by Irrep:
              A 
    DOCC [     5 ]

  @DF-RHF Final Energy:   -76.04121840375178

   => Energetics <=

    Nuclear Repulsion Energy =              9.1743042435092761
    One-Electron Energy =                -122.9377267409307706
    Two-Electron Energy =                  37.7222040936697027
    Total Energy =                        -76.0412184037517846

Computation Completed


Properties will be evaluated at   0.000000,   0.000000,   0.000000 [a0]

Properties computed using the SCF density matrix

  Nuclear Dipole Moment: [e a0]
     X:    51.8212      Y:     3.1287      Z:     0.6212

  Electronic Dipole Moment: [e a0]
     X:   -51.0515      Y:    -3.3055      Z:    -0.5640

  Dipole Moment: [e a0]
     X:     0.7697      Y:    -0.1768      Z:     0.0572     Total:     0.7918

  Dipole Moment: [D]
     X:     1.9564      Y:    -0.4493      Z:     0.1455     Total:     2.0126


*** tstop() called on node142.bme.utexas.edu at Wed Jun 29 16:25:46 2011
Module time:
	user time   =       8.67 seconds =       0.14 minutes
	system time =       0.71 seconds =       0.01 minutes
	total time  =          1 seconds =       0.02 minutes
Total time:
	user time   =      28.16 seconds =       0.47 minutes
	system time =       2.14 seconds =       0.04 minutes
	total time  =          5 seconds =       0.08 minutes
 MINTS: Wrapper to libmints.
   by Justin Turney

   Calculation information:
      Number of threads:                 8
      Number of atoms:                   3
      Number of AO shells:              19
      Number of SO shells:              19
      Number of primitives:             39
      Number of atomic orbitals:        43
      Number of basis functions:        41

      Number of irreps:                  1
      Integral cutoff                 0.00e+00
      Number of functions per irrep: [  41 ]

 OEINTS: Overlap, kinetic, potential, dipole, and quadrupole integrals
         stored in file 35.

      Computing two-electron integrals...done
      Computed 346637 non-zero two-electron integrals.
        Stored in file 33.


*** tstart() called on node142.bme.utexas.edu
*** at Wed Jun 29 16:25:47 2011


	Wfn Parameters:
	--------------------
	Wavefunction         = CCSD_T
	Number of irreps     = 1
	Number of MOs        = 41
	Number of active MOs = 41
	AO-Basis             = NONE
	Semicanonical        = false
	Reference            = RHF
	Print Level          = 1

	IRREP	# MOs	# FZDC	# DOCC	# SOCC	# VIRT	# FZVR
	-----	-----	------	------	------	------	------
	 A	   41	    0	    5	    0	    36	    0
	Transforming integrals...
	IWL integrals will be deleted.
	(OO|OO)...
	Presorting SO-basis two-electron integrals.
	Sorting File: SO Ints (nn|nn) nbuckets = 1
	Transforming the one-electron integrals and constructing Fock matrices
	Starting first half-transformation.
	Sorting half-transformed integrals.
	First half integral transformation complete.
	Starting second half-transformation.
	Two-electron integral transformation complete.
	(OO|OV)...
	Starting second half-transformation.
	Two-electron integral transformation complete.
	(OO|VV)...
	Starting second half-transformation.
	Two-electron integral transformation complete.
	(OV|OO)...
	Starting first half-transformation.
	Sorting half-transformed integrals.
	First half integral transformation complete.
	Starting second half-transformation.
	Two-electron integral transformation complete.
	(OV|OV)...
	Starting second half-transformation.
	Two-electron integral transformation complete.
	(OV|VV)...
	Starting second half-transformation.
	Two-electron integral transformation complete.
	(VV|OO)...
	Starting first half-transformation.
	Sorting half-transformed integrals.
	First half integral transformation complete.
	Starting second half-transformation.
	Two-electron integral transformation complete.
	(VV|OV)...
	Starting second half-transformation.
	Two-electron integral transformation complete.
	(VV|VV)...
	Starting second half-transformation.
	Two-electron integral transformation complete.
	Frozen core energy     =      0.00000000000000

	Size of irrep 0 of <ab|cd> integrals:      1.680 (MW) /     13.437 (MB)
	Total:                                     1.680 (MW) /     13.437 (MB)

	Size of irrep 0 of <ia|bc> integrals:      0.233 (MW) /      1.866 (MB)
	Total:                                     0.233 (MW) /      1.866 (MB)

	Size of irrep 0 of tijab amplitudes:       0.032 (MW) /      0.259 (MB)
	Total:                                     0.032 (MW) /      0.259 (MB)

	Nuclear Rep. energy          =      9.17430424350928
	SCF energy                   =    -76.04121840375178
	One-electron energy          =   -122.93772655169052
	Two-electron energy          =     37.72218354970800
	Reference energy             =    -76.04123875847324

*** tstop() called on node142.bme.utexas.edu at Wed Jun 29 16:25:48 2011
Module time:
	user time   =       5.15 seconds =       0.09 minutes
	system time =       0.60 seconds =       0.01 minutes
	total time  =          1 seconds =       0.02 minutes
Total time:
	user time   =      35.79 seconds =       0.60 minutes
	system time =       2.98 seconds =       0.05 minutes
	total time  =          7 seconds =       0.12 minutes
            **************************
            *                        *
            *        CCENERGY        *
            *                        *
            **************************

    Nuclear Rep. energy (wfn)     =    9.174304243509276
    SCF energy          (wfn)     =  -76.041218403751785
    Reference energy    (file100) =  -76.041238758473241

    Input parameters:
    -----------------
    Wave function   =     CCSD_T
    Reference wfn   =     RHF
    Brueckner       =     No
    Memory (Mbytes) =     50000.0
    Maxiter         =     50
    R_Convergence   =     1.0e-07
    E_Convergence   =     1.0e-07
    Restart         =     Yes
    DIIS            =     Yes
    AO Basis        =     NONE
    ABCD            =     NEW
    Cache Level     =     2
    Cache Type      =     LOW
    Print Level     =     1
    Num. of threads =     8
    # Amps to Print =     10
    Print MP2 Amps? =     No
    Analyze T2 Amps =     No
    Print Pair Ener =     No
    Local CC        =     No
    SCS-MP2         =     False
    SCSN-MP2        =     False
    SCS-CCSD        =     False

MP2 correlation energy -0.2220685943426080
                Solving CC Amplitude Equations
                ------------------------------
  Iter             Energy              RMS        T1Diag      D1Diag    New D1Diag    D2Diag
  ----     ---------------------    ---------   ----------  ----------  ----------   --------
     0        -0.222068594342608    0.000e+00    0.000000    0.000000    0.000000    0.114236
     1        -0.223951460881900    3.832e-02    0.009108    0.021085    0.021085    0.119054
     2        -0.228285788677187    1.287e-02    0.009175    0.021510    0.021510    0.123661
     3        -0.229629798868654    5.439e-03    0.010719    0.025598    0.025598    0.125939
     4        -0.229556749400692    9.996e-04    0.010902    0.026220    0.026220    0.126086
     5        -0.229562511518257    3.320e-04    0.010963    0.026458    0.026458    0.126114
     6        -0.229567350666424    8.919e-05    0.010982    0.026538    0.026538    0.126110
     7        -0.229565615559967    2.733e-05    0.010985    0.026553    0.026553    0.126103
     8        -0.229565285400664    7.839e-06    0.010986    0.026558    0.026558    0.126102
     9        -0.229565377804109    2.653e-06    0.010986    0.026559    0.026559    0.126102
    10        -0.229565251467655    8.998e-07    0.010986    0.026559    0.026559    0.126102
    11        -0.229565260050539    2.983e-07    0.010986    0.026559    0.026559    0.126102
    12        -0.229565254343141    1.216e-07    0.010986    0.026559    0.026559    0.126102
    13        -0.229565256315328    3.327e-08    0.010986    0.026559    0.026559    0.126102

    Iterations converged.


    Largest TIA Amplitudes:
              4   3        -0.0214827612
              4  10        -0.0155533979
              3   2         0.0120654478
              3   9        -0.0116625436
              2  27         0.0075573428
              1   4         0.0045262303
              2   6        -0.0043246434
              3   0        -0.0042121999
              3  28        -0.0040075733
              1  28        -0.0035563285

    Largest TIjAb Amplitudes:
      4   4  21  21        -0.0347056208
      2   2  14  14        -0.0259960289
      3   3  14  14        -0.0209835698
      3   3  22  22        -0.0203027718
      2   2   6   6        -0.0199450953
      2   2   6  14        -0.0190572679
      2   2  14   6        -0.0190572679
      4   4   3  21        -0.0184585004
      4   4  21   3        -0.0184585004
      4   4   3   3        -0.0181731405

    SCF energy       (wfn)                    =  -76.041218403751785
    Reference energy (file100)                =  -76.041238758473241

    Opposite-spin MP2 correlation energy      =   -0.165328687784109
    Same-spin MP2 correlation energy          =   -0.056739906558499
    MP2 correlation energy                    =   -0.222068594342608
      * MP2 total energy                      =  -76.263307352815843

    Opposite-spin CCSD correlation energy     =   -0.179374267199395
    Same-spin CCSD correlation energy         =   -0.050190989115934
    CCSD correlation energy                   =   -0.229565256315328
      * CCSD total energy                     =  -76.270804014788567

            **************************
            *                        *
            *        CCTRIPLES       *
            *                        *
            **************************


    Wave function   =    CCSD_T
    Reference wfn   =      RHF

    Nuclear Rep. energy (wfn)                =    9.174304243509276
    SCF energy          (wfn)                =  -76.041218403751785
    Reference energy    (file100)            =  -76.041238758473241
    CCSD energy         (file100)            =   -0.229565256315328
    Total CCSD energy   (file100)            =  -76.270804014788567

    Number of ijk index combinations:               35
    Memory available in words        :      6250000000
    ~Words needed per explicit thread:          186624
    Number of threads for explicit ijk threading:    8

    MKL num_threads set to 1 for explicit threading.

    (T) energy                                =   -0.005253765590378
      * CCSD(T) total energy                  =  -76.276057780378949


  //>>>>>>>>>>>>>>>>>>>>>>>>>>>>>>>>>>>>>>>>//
  // CBS Computation: CCSD(T) / AUG-CC-PVTZ //
  //<<<<<<<<<<<<<<<<<<<<<<<<<<<<<<<<<<<<<<<<//


Scratch directory: /scratch/liuchw/

*** tstart() called on node142.bme.utexas.edu
*** at Wed Jun 29 16:25:56 2011

   => Loading Basis Set <=

    Name: AUG-CC-PVTZ
    Role: ORBITAL
    Keyword: BASIS
    atoms 1   entry O          line   331 file /home/liuchw/anaconda3/envs/psi4env/share/psi4/basis/aug-cc-pvtz.gbs 
    atoms 2-3 entry H          line    40 file /home/liuchw/anaconda3/envs/psi4env/share/psi4/basis/aug-cc-pvtz.gbs 


         ---------------------------------------------------------
                                   SCF
               by Justin Turney, Rob Parrish, Andy Simmonett
                          and Daniel G. A. Smith
                              RHF Reference
                        8 Threads,  47683 MiB Core
         ---------------------------------------------------------

  ==> Geometry <==

    Molecular point group: c1
    Full point group: C1

    Geometry (in Angstrom), charge = 0, multiplicity = 1:

       Center              X                  Y                   Z               Mass       
    ------------   -----------------  -----------------  -----------------  -----------------
         O            2.627120370641     0.192010068723     0.024310656486    15.994914619570
         H            3.221247370641    -0.098883931277    -0.670753343514     1.007825032230
         H            3.184411370641     0.218461068723     0.804980656486     1.007825032230

  Running in c1 symmetry.

  Rotational constants: A =     14.01755  B =      0.12801  C =      0.12696 [cm^-1]
  Rotational constants: A = 420235.45349  B =   3837.77868  C =   3806.12717 [MHz]
  Nuclear repulsion =    9.174304243509276

  Charge       = 0
  Multiplicity = 1
  Electrons    = 10
  Nalpha       = 5
  Nbeta        = 5

  ==> Algorithm <==

  SCF Algorithm Type is DF.
  DIIS enabled.
  MOM disabled.
  Fractional occupation disabled.
  Guess Type is SAD.
  Energy threshold   = 1.00e-07
  Density threshold  = 1.00e-08
  Integral threshold = 0.00e+00

  ==> Primary Basis <==

  Basis Set: AUG-CC-PVTZ
    Blend: AUG-CC-PVTZ
    Number of shells: 32
    Number of basis function: 92
    Number of Cartesian functions: 105
    Spherical Harmonics?: true
    Max angular momentum: 3

   => Loading Basis Set <=

    Name: (AUG-CC-PVTZ AUX)
    Role: JKFIT
    Keyword: DF_BASIS_SCF
    atoms 1   entry O          line   286 file /home/liuchw/anaconda3/envs/psi4env/share/psi4/basis/aug-cc-pvtz-jkfit.gbs 
    atoms 2-3 entry H          line    70 file /home/liuchw/anaconda3/envs/psi4env/share/psi4/basis/aug-cc-pvtz-jkfit.gbs 

  ==> Pre-Iterations <==

   -------------------------------------------------------
    Irrep   Nso     Nmo     Nalpha   Nbeta   Ndocc  Nsocc
   -------------------------------------------------------
     A         92      92       0       0       0       0
   -------------------------------------------------------
    Total      92      92       5       5       5       0
   -------------------------------------------------------

  ==> Integral Setup <==

  DFHelper Memory: AOs need 0.015 GiB; user supplied 34.925 GiB. Using in-core AOs.

  ==> MemDFJK: Density-Fitted J/K Matrices <==

    J tasked:                   Yes
    K tasked:                   Yes
    wK tasked:                   No
    OpenMP threads:               8
    Memory [MiB]:             35762
    Algorithm:                 Core
    Schwarz Cutoff:           1E-12
    Mask sparsity (%):       0.0000
    Fitting Condition:        1E-10

   => Auxiliary Basis Set <=

  Basis Set: (AUG-CC-PVTZ AUX)
    Blend: AUG-CC-PVTZ-JKFIT
    Number of shells: 58
    Number of basis function: 196
    Number of Cartesian functions: 241
    Spherical Harmonics?: true
    Max angular momentum: 4

  Minimum eigenvalue in the overlap matrix is 3.8778883918E-04.
  Using Symmetric Orthogonalization.

  SCF Guess: Superposition of Atomic Densities via on-the-fly atomic UHF.

  ==> Iterations <==

                           Total Energy        Delta E     RMS |[F,P]|

   @DF-RHF iter SAD:   -75.47617254716180   -7.54762e+01   0.00000e+00 
   @DF-RHF iter   1:   -75.97597095983184   -4.99798e-01   5.09229e-03 DIIS
   @DF-RHF iter   2:   -76.02848235252441   -5.25114e-02   3.47326e-03 DIIS
   @DF-RHF iter   3:   -76.05996997640267   -3.14876e-02   2.35889e-04 DIIS
   @DF-RHF iter   4:   -76.06035836957149   -3.88393e-04   5.64658e-05 DIIS
   @DF-RHF iter   5:   -76.06038264590420   -2.42763e-05   1.28254e-05 DIIS
   @DF-RHF iter   6:   -76.06038463096372   -1.98506e-06   2.80479e-06 DIIS
   @DF-RHF iter   7:   -76.06038473532097   -1.04357e-07   5.03719e-07 DIIS
   @DF-RHF iter   8:   -76.06038473827975   -2.95879e-09   8.43990e-08 DIIS
   @DF-RHF iter   9:   -76.06038473834451   -6.47589e-11   2.06325e-08 DIIS
   @DF-RHF iter  10:   -76.06038473834829   -3.78009e-12   3.04924e-09 DIIS
  Energy and wave function converged.


  ==> Post-Iterations <==

    Orbital Energies [Eh]
    ---------------------

    Doubly Occupied:                                                      

       1A    -20.567928     2A     -1.352952     3A     -0.715144  
       4A     -0.585957     5A     -0.510388  

    Virtual:                                                              

       6A      0.029361     7A      0.047721     8A      0.135835  
       9A      0.158748    10A      0.175289    11A      0.183154  
      12A      0.227176    13A      0.245057    14A      0.265548  
      15A      0.299759    16A      0.309990    17A      0.365918  
      18A      0.437723    19A      0.466380    20A      0.599086  
      21A      0.659016    22A      0.707811    23A      0.722935  
      24A      0.731642    25A      0.831474    26A      0.846893  
      27A      0.892065    28A      0.912917    29A      0.917693  
      30A      0.922807    31A      0.931300    32A      0.960980  
      33A      1.021554    34A      1.043651    35A      1.082678  
      36A      1.108588    37A      1.177035    38A      1.182958  
      39A      1.260466    40A      1.510666    41A      1.532509  
      42A      1.582899    43A      1.805013    44A      1.824787  
      45A      1.985125    46A      2.119616    47A      2.263414  
      48A      2.316294    49A      2.326954    50A      2.418956  
      51A      2.421749    52A      2.443562    53A      2.480563  
      54A      2.675457    55A      2.697614    56A      2.773780  
      57A      2.812922    58A      2.885216    59A      3.656196  
      60A      3.740945    61A      4.021382    62A      4.084701  
      63A      4.160898    64A      4.252206    65A      4.284301  
      66A      4.371909    67A      4.378145    68A      4.407236  
      69A      4.521172    70A      4.728840    71A      4.849942  
      72A      5.152728    73A      5.155576    74A      5.249898  
      75A      5.329720    76A      5.528642    77A      5.661863  
      78A      6.184278    79A      6.514656    80A      6.715074  
      81A      6.910031    82A      7.137322    83A      7.259983  
      84A      7.301123    85A      7.320646    86A      7.338666  
      87A      7.361138    88A      7.539054    89A      7.899517  
      90A      7.933346    91A      8.816811    92A     15.760881  

    Final Occupation by Irrep:
              A 
    DOCC [     5 ]

  @DF-RHF Final Energy:   -76.06038473834829

   => Energetics <=

    Nuclear Repulsion Energy =              9.1743042435092761
    One-Electron Energy =                -123.0046415034546641
    Two-Electron Energy =                  37.7699525215971050
    Total Energy =                        -76.0603847383482901

Computation Completed


Properties will be evaluated at   0.000000,   0.000000,   0.000000 [a0]

Properties computed using the SCF density matrix

  Nuclear Dipole Moment: [e a0]
     X:    51.8212      Y:     3.1287      Z:     0.6212

  Electronic Dipole Moment: [e a0]
     X:   -51.0576      Y:    -3.3041      Z:    -0.5644

  Dipole Moment: [e a0]
     X:     0.7636      Y:    -0.1754      Z:     0.0568     Total:     0.7855

  Dipole Moment: [D]
     X:     1.9409      Y:    -0.4458      Z:     0.1443     Total:     1.9967


*** tstop() called on node142.bme.utexas.edu at Wed Jun 29 16:25:57 2011
Module time:
	user time   =      10.45 seconds =       0.17 minutes
	system time =       0.80 seconds =       0.01 minutes
	total time  =          1 seconds =       0.02 minutes
Total time:
	user time   =      70.79 seconds =       1.18 minutes
	system time =       6.84 seconds =       0.11 minutes
	total time  =         16 seconds =       0.27 minutes
 MINTS: Wrapper to libmints.
   by Justin Turney

   Calculation information:
      Number of threads:                 8
      Number of atoms:                   3
      Number of AO shells:              32
      Number of SO shells:              32
      Number of primitives:             52
      Number of atomic orbitals:       105
      Number of basis functions:        92

      Number of irreps:                  1
      Integral cutoff                 0.00e+00
      Number of functions per irrep: [  92 ]

 OEINTS: Overlap, kinetic, potential, dipole, and quadrupole integrals
         stored in file 35.

      Computing two-electron integrals...done
      Computed 8703176 non-zero two-electron integrals.
        Stored in file 33.


*** tstart() called on node142.bme.utexas.edu
*** at Wed Jun 29 16:25:59 2011


	Wfn Parameters:
	--------------------
	Wavefunction         = CCSD_T
	Number of irreps     = 1
	Number of MOs        = 92
	Number of active MOs = 92
	AO-Basis             = NONE
	Semicanonical        = false
	Reference            = RHF
	Print Level          = 1

	IRREP	# MOs	# FZDC	# DOCC	# SOCC	# VIRT	# FZVR
	-----	-----	------	------	------	------	------
	 A	   92	    0	    5	    0	    87	    0
	Transforming integrals...
	IWL integrals will be deleted.
	(OO|OO)...
	Presorting SO-basis two-electron integrals.
	Sorting File: SO Ints (nn|nn) nbuckets = 1
	Transforming the one-electron integrals and constructing Fock matrices
	Starting first half-transformation.
	Sorting half-transformed integrals.
	First half integral transformation complete.
	Starting second half-transformation.
	Two-electron integral transformation complete.
	(OO|OV)...
	Starting second half-transformation.
	Two-electron integral transformation complete.
	(OO|VV)...
	Starting second half-transformation.
	Two-electron integral transformation complete.
	(OV|OO)...
	Starting first half-transformation.
	Sorting half-transformed integrals.
	First half integral transformation complete.
	Starting second half-transformation.
	Two-electron integral transformation complete.
	(OV|OV)...
	Starting second half-transformation.
	Two-electron integral transformation complete.
	(OV|VV)...
	Starting second half-transformation.
	Two-electron integral transformation complete.
	(VV|OO)...
	Starting first half-transformation.
	Sorting half-transformed integrals.
	First half integral transformation complete.
	Starting second half-transformation.
	Two-electron integral transformation complete.
	(VV|OV)...
	Starting second half-transformation.
	Two-electron integral transformation complete.
	(VV|VV)...
	Starting second half-transformation.
	Two-electron integral transformation complete.
	Frozen core energy     =      0.00000000000000

	Size of irrep 0 of <ab|cd> integrals:     57.290 (MW) /    458.318 (MB)
	Total:                                    57.290 (MW) /    458.318 (MB)

	Size of irrep 0 of <ia|bc> integrals:      3.293 (MW) /     26.340 (MB)
	Total:                                     3.293 (MW) /     26.340 (MB)

	Size of irrep 0 of tijab amplitudes:       0.189 (MW) /      1.514 (MB)
	Total:                                     0.189 (MW) /      1.514 (MB)

	Nuclear Rep. energy          =      9.17430424350928
	SCF energy                   =    -76.06038473834829
	One-electron energy          =   -123.00464117701310
	Two-electron energy          =     37.76994530316633
	Reference energy             =    -76.06039163033748

*** tstop() called on node142.bme.utexas.edu at Wed Jun 29 16:26:09 2011
Module time:
	user time   =      33.45 seconds =       0.56 minutes
	system time =       4.61 seconds =       0.08 minutes
	total time  =         10 seconds =       0.17 minutes
Total time:
	user time   =     107.91 seconds =       1.80 minutes
	system time =      11.89 seconds =       0.20 minutes
	total time  =         28 seconds =       0.47 minutes
            **************************
            *                        *
            *        CCENERGY        *
            *                        *
            **************************

    Nuclear Rep. energy (wfn)     =    9.174304243509276
    SCF energy          (wfn)     =  -76.060384738348290
    Reference energy    (file100) =  -76.060391630337477

    Input parameters:
    -----------------
    Wave function   =     CCSD_T
    Reference wfn   =     RHF
    Brueckner       =     No
    Memory (Mbytes) =     50000.0
    Maxiter         =     50
    R_Convergence   =     1.0e-07
    E_Convergence   =     1.0e-07
    Restart         =     Yes
    DIIS            =     Yes
    AO Basis        =     NONE
    ABCD            =     NEW
    Cache Level     =     2
    Cache Type      =     LOW
    Print Level     =     1
    Num. of threads =     8
    # Amps to Print =     10
    Print MP2 Amps? =     No
    Analyze T2 Amps =     No
    Print Pair Ener =     No
    Local CC        =     No
    SCS-MP2         =     False
    SCSN-MP2        =     False
    SCS-CCSD        =     False

MP2 correlation energy -0.2837244875483774
                Solving CC Amplitude Equations
                ------------------------------
  Iter             Energy              RMS        T1Diag      D1Diag    New D1Diag    D2Diag
  ----     ---------------------    ---------   ----------  ----------  ----------   --------
     0        -0.283724487548377    0.000e+00    0.000000    0.000000    0.000000    0.117690
     1        -0.282092761926658    3.534e-02    0.007581    0.017073    0.017073    0.120281
     2        -0.287101463789451    1.240e-02    0.007434    0.016885    0.016885    0.124711
     3        -0.288432824101081    4.835e-03    0.008621    0.020115    0.020115    0.126824
     4        -0.288296656107488    1.021e-03    0.008777    0.020582    0.020582    0.126992
     5        -0.288310689575463    3.695e-04    0.008861    0.020877    0.020877    0.127043
     6        -0.288316098945588    9.078e-05    0.008882    0.020956    0.020956    0.127038
     7        -0.288313997642822    3.027e-05    0.008886    0.020974    0.020974    0.127030
     8        -0.288313656098143    8.337e-06    0.008887    0.020981    0.020981    0.127028
     9        -0.288313728131498    2.586e-06    0.008887    0.020982    0.020982    0.127028
    10        -0.288313566940219    9.691e-07    0.008887    0.020982    0.020982    0.127028
    11        -0.288313585446395    3.004e-07    0.008887    0.020982    0.020982    0.127028
    12        -0.288313578309671    1.239e-07    0.008887    0.020982    0.020982    0.127028
    13        -0.288313578791387    4.002e-08    0.008887    0.020982    0.020982    0.127028

    Iterations converged.


    Largest TIA Amplitudes:
              4   3        -0.0147898752
              4   9        -0.0128305914
              3   2         0.0081884500
              3  10        -0.0076250641
              2  39         0.0055231767
              4  56         0.0043934058
              2  28         0.0039507920
              2  65         0.0036840984
              4  20        -0.0035201551
              3  64         0.0034653349

    Largest TIjAb Amplitudes:
      2   2  13  13        -0.0215100794
      3   3  21  21        -0.0198190884
      4   4  29  29        -0.0155916058
      2   2  13  28        -0.0155697769
      2   2  28  13        -0.0155697769
      2   2  14  14        -0.0148851659
      3   3  14  14        -0.0137700000
      4   4  23  23        -0.0133472763
      2   2  28  28        -0.0132799469
      2   3  13  21         0.0128009776

    SCF energy       (wfn)                    =  -76.060384738348290
    Reference energy (file100)                =  -76.060391630337477

    Opposite-spin MP2 correlation energy      =   -0.215354478794743
    Same-spin MP2 correlation energy          =   -0.068370008753635
    MP2 correlation energy                    =   -0.283724487548377
      * MP2 total energy                      =  -76.344116117885861

    Opposite-spin CCSD correlation energy     =   -0.227346877354344
    Same-spin CCSD correlation energy         =   -0.060966701437043
    CCSD correlation energy                   =   -0.288313578791387
      * CCSD total energy                     =  -76.348705209128866

            **************************
            *                        *
            *        CCTRIPLES       *
            *                        *
            **************************


    Wave function   =    CCSD_T
    Reference wfn   =      RHF

    Nuclear Rep. energy (wfn)                =    9.174304243509276
    SCF energy          (wfn)                =  -76.060384738348290
    Reference energy    (file100)            =  -76.060391630337477
    CCSD energy         (file100)            =   -0.288313578791387
    Total CCSD energy   (file100)            =  -76.348705209128866

    Number of ijk index combinations:               35
    Memory available in words        :      6250000000
    ~Words needed per explicit thread:         2634012
    Number of threads for explicit ijk threading:    8

    MKL num_threads set to 1 for explicit threading.

    (T) energy                                =   -0.008789038348271
      * CCSD(T) total energy                  =  -76.357494247477135


  //>>>>>>>>>>>>>>>>>>>>>>>>>>>>>>>>>>>//
  //    CBS Results: custom function   //
  //<<<<<<<<<<<<<<<<<<<<<<<<<<<<<<<<<<<//


   ==> HF <==

   HI-zeta (4) Energy:               -76.065767123145


   ==> Helgaker 2-point correlated extrapolation for method: MP2 <==

   LO-zeta (3) Energy:               -76.344116117886
   HI-zeta (4) Energy:               -76.382733925796
   Alpha (exponent) Value:             3.000000000000
   Extrapolated Energy:              -76.410914488325

   @Extrapolated MP2/(T,Q):          -76.410914488325



   ==> Helgaker 2-point correlated extrapolation for method: HF <==

   LO-zeta (3) Energy:               -76.060384738348
   HI-zeta (4) Energy:               -76.065767123145
   Alpha (exponent) Value:             3.000000000000
   Extrapolated Energy:              -76.069694809348

   @Extrapolated HF/(T,Q):           -76.069694809348



   ==> Helgaker 2-point correlated extrapolation for method: CCSD(T) <==

   LO-zeta (2) Energy:               -76.276057780379
   HI-zeta (3) Energy:               -76.357494247477
   Alpha (exponent) Value:             3.000000000000
   Extrapolated Energy:              -76.391783286255

   @Extrapolated CCSD(T)/(D,T):      -76.391783286255



   ==> Helgaker 2-point correlated extrapolation for method: MP2 <==

   LO-zeta (2) Energy:               -76.263307352816
   HI-zeta (3) Energy:               -76.344116117886
   Alpha (exponent) Value:             3.000000000000
   Extrapolated Energy:              -76.378140861073

   @Extrapolated MP2/(D,T):          -76.378140861073


   ==> Components <==

  ---------------------------------------------------------------------------------------------------------
                          Method / Basis                      Rqd      Energy [Eh]   Variable
  ---------------------------------------------------------------------------------------------------------
                              hf / aug-cc-pvqz                  *     -76.06576712   HF TOTAL ENERGY
                             mp2 / aug-cc-pvqz                  *     -76.38273393   MP2 TOTAL ENERGY
                              hf / aug-cc-pvdz                        -76.04121840   HF TOTAL ENERGY
                             mp2 / aug-cc-pvdz                  *     -76.26330735   MP2 TOTAL ENERGY
                            ccsd / aug-cc-pvdz                        -76.27080401   CCSD TOTAL ENERGY
                         ccsd(t) / aug-cc-pvdz                  *     -76.27605778   CCSD(T) TOTAL ENERGY
                              hf / aug-cc-pvtz                  *     -76.06038474   HF TOTAL ENERGY
                             mp2 / aug-cc-pvtz                  *     -76.34411612   MP2 TOTAL ENERGY
                            ccsd / aug-cc-pvtz                        -76.34870521   CCSD TOTAL ENERGY
                         ccsd(t) / aug-cc-pvtz                  *     -76.35749425   CCSD(T) TOTAL ENERGY
  ---------------------------------------------------------------------------------------------------------

   ==> Stages <==

  ---------------------------------------------------------------------------------------------------------
      Stage               Method / Basis                       Wt      Energy [Eh]   Scheme
  ---------------------------------------------------------------------------------------------------------
        scf                   hf / aug-cc-pvqz                  1     -76.06576712   xtpl_highest_1
       corl                  mp2 / aug-cc-pv[tq]z               1     -76.41091449   corl_xtpl_helgaker_2
       corl                   hf / aug-cc-pv[tq]z              -1     -76.06969481   corl_xtpl_helgaker_2
     delta1              ccsd(t) / aug-cc-pv[dt]z               1     -76.39178329   corl_xtpl_helgaker_2
     delta1                  mp2 / aug-cc-pv[dt]z              -1     -76.37814086   corl_xtpl_helgaker_2
  ---------------------------------------------------------------------------------------------------------

   ==> CBS <==

  ---------------------------------------------------------------------------------------------------------
      Stage               Method / Basis                               Energy [Eh]   Scheme
  ---------------------------------------------------------------------------------------------------------
        scf                   hf / aug-cc-pvqz                        -76.06576712   xtpl_highest_1
       corl                  mp2 / aug-cc-pv[tq]z                      -0.34121968   corl_xtpl_helgaker_2
     delta1        ccsd(t) - mp2 / aug-cc-pv[dt]z                      -0.01364243   corl_xtpl_helgaker_2
      total                  CBS                                      -76.42062923   
  ---------------------------------------------------------------------------------------------------------
   => Loading Basis Set <=

    Name: DEF2-SVP
    Role: ORBITAL
    Keyword: BASIS
    atoms 1   entry O          line   130 file /home/liuchw/anaconda3/envs/psi4env/share/psi4/basis/def2-svp.gbs 
    atoms 2-3 entry H          line    15 file /home/liuchw/anaconda3/envs/psi4env/share/psi4/basis/def2-svp.gbs 


       N-Body: Complex Energy (fragments = (2,), basis = (2,):   -76.42062922730393)

       N-Body: Computing complex (2/4) with fragments (2,) in the basis of fragments (1, 2).


Scratch directory: /scratch/liuchw/

  //>>>>>>>>>>>>>>>>>>>>>>>>>>>>>>>>>>>//
  //     CBS Setup: custom function    //
  //<<<<<<<<<<<<<<<<<<<<<<<<<<<<<<<<<<<//

    Naive listing of computations required.
             hf / aug-cc-pvqz              for  HF TOTAL ENERGY
            mp2 / aug-cc-pvtz              for  MP2 TOTAL ENERGY
            mp2 / aug-cc-pvqz              for  MP2 TOTAL ENERGY
             hf / aug-cc-pvtz              for  HF TOTAL ENERGY
             hf / aug-cc-pvqz              for  HF TOTAL ENERGY
        ccsd(t) / aug-cc-pvdz              for  CCSD(T) TOTAL ENERGY
        ccsd(t) / aug-cc-pvtz              for  CCSD(T) TOTAL ENERGY
            mp2 / aug-cc-pvdz              for  MP2 TOTAL ENERGY
            mp2 / aug-cc-pvtz              for  MP2 TOTAL ENERGY

    Enlightened listing of computations required.
            mp2 / aug-cc-pvqz              for  MP2 TOTAL ENERGY
        ccsd(t) / aug-cc-pvdz              for  CCSD(T) TOTAL ENERGY
        ccsd(t) / aug-cc-pvtz              for  CCSD(T) TOTAL ENERGY

    Full listing of computations to be obtained (required and bonus).
             hf / aug-cc-pvqz              for  HF TOTAL ENERGY
            mp2 / aug-cc-pvqz              for  MP2 TOTAL ENERGY
             hf / aug-cc-pvdz              for  HF TOTAL ENERGY
            mp2 / aug-cc-pvdz              for  MP2 TOTAL ENERGY
           ccsd / aug-cc-pvdz              for  CCSD TOTAL ENERGY
        ccsd(t) / aug-cc-pvdz              for  CCSD(T) TOTAL ENERGY
             hf / aug-cc-pvtz              for  HF TOTAL ENERGY
            mp2 / aug-cc-pvtz              for  MP2 TOTAL ENERGY
           ccsd / aug-cc-pvtz              for  CCSD TOTAL ENERGY
        ccsd(t) / aug-cc-pvtz              for  CCSD(T) TOTAL ENERGY

  //>>>>>>>>>>>>>>>>>>>>>>>>>>>>>>>>>>>>//
  // CBS Computation: MP2 / AUG-CC-PVQZ //
  //<<<<<<<<<<<<<<<<<<<<<<<<<<<<<<<<<<<<//


Scratch directory: /scratch/liuchw/

*** tstart() called on node142.bme.utexas.edu
*** at Wed Jun 29 16:26:28 2011

   => Loading Basis Set <=

    Name: AUG-CC-PVQZ
    Role: ORBITAL
    Keyword: BASIS
    atoms 1        entry C          line   303 file /home/liuchw/anaconda3/envs/psi4env/share/psi4/basis/aug-cc-pvqz.gbs 
    atoms 2        entry S          line  1126 file /home/liuchw/anaconda3/envs/psi4env/share/psi4/basis/aug-cc-pvqz.gbs 
    atoms 3-6, 8-9 entry H          line    40 file /home/liuchw/anaconda3/envs/psi4env/share/psi4/basis/aug-cc-pvqz.gbs 
    atoms 7        entry O          line   423 file /home/liuchw/anaconda3/envs/psi4env/share/psi4/basis/aug-cc-pvqz.gbs 


         ---------------------------------------------------------
                                   SCF
               by Justin Turney, Rob Parrish, Andy Simmonett
                          and Daniel G. A. Smith
                              RHF Reference
                        8 Threads,  47683 MiB Core
         ---------------------------------------------------------

  ==> Geometry <==

    Molecular point group: c1
    Full point group: C1

    Geometry (in Angstrom), charge = 0, multiplicity = 1:

       Center              X                  Y                   Z               Mass       
    ------------   -----------------  -----------------  -----------------  -----------------
      Gh(C)          -1.307637629359     1.096046068723    -0.268384343514    12.000000000000
      Gh(S)          -0.905132629359    -0.632288931277     0.113384656486    31.972071174400
      Gh(H)           0.423148370641    -0.473523931277     0.112406656486     1.007825032230
      Gh(H)          -0.902169629359     1.389776068723    -1.231343343514     1.007825032230
      Gh(H)          -0.945563629359     1.763643068723     0.506978656486     1.007825032230
      Gh(H)          -2.391288629359     1.161383068723    -0.309486343514     1.007825032230
         O            2.627120370641     0.192010068723     0.024310656486    15.994914619570
         H            3.221247370641    -0.098883931277    -0.670753343514     1.007825032230
         H            3.184411370641     0.218461068723     0.804980656486     1.007825032230

  Running in c1 symmetry.

  Rotational constants: A =      0.43626  B =      0.08950  C =      0.07610 [cm^-1]
  Rotational constants: A =  13078.68619  B =   2683.19861  C =   2281.56922 [MHz]
  Nuclear repulsion =    9.174304243509276

  Charge       = 0
  Multiplicity = 1
  Electrons    = 10
  Nalpha       = 5
  Nbeta        = 5

  ==> Algorithm <==

  SCF Algorithm Type is DF.
  DIIS enabled.
  MOM disabled.
  Fractional occupation disabled.
  Guess Type is SAD.
  Energy threshold   = 1.00e-07
  Density threshold  = 1.00e-08
  Integral threshold = 0.00e+00

  ==> Primary Basis <==

  Basis Set: AUG-CC-PVQZ
    Blend: AUG-CC-PVQZ
    Number of shells: 146
    Number of basis function: 520
    Number of Cartesian functions: 649
    Spherical Harmonics?: true
    Max angular momentum: 4

   => Loading Basis Set <=

    Name: (AUG-CC-PVQZ AUX)
    Role: JKFIT
    Keyword: DF_BASIS_SCF
    atoms 1        entry C          line   178 file /home/liuchw/anaconda3/envs/psi4env/share/psi4/basis/aug-cc-pvqz-jkfit.gbs 
    atoms 2        entry S          line   810 file /home/liuchw/anaconda3/envs/psi4env/share/psi4/basis/aug-cc-pvqz-jkfit.gbs 
    atoms 3-6, 8-9 entry H          line    70 file /home/liuchw/anaconda3/envs/psi4env/share/psi4/basis/aug-cc-pvqz-jkfit.gbs 
    atoms 7        entry O          line   318 file /home/liuchw/anaconda3/envs/psi4env/share/psi4/basis/aug-cc-pvqz-jkfit.gbs 

  ==> Pre-Iterations <==

   -------------------------------------------------------
    Irrep   Nso     Nmo     Nalpha   Nbeta   Ndocc  Nsocc
   -------------------------------------------------------
     A        520     520       0       0       0       0
   -------------------------------------------------------
    Total     520     520       5       5       5       0
   -------------------------------------------------------

  ==> Integral Setup <==

  DFHelper Memory: AOs need 1.807 GiB; user supplied 34.925 GiB. Using in-core AOs.

  ==> MemDFJK: Density-Fitted J/K Matrices <==

    J tasked:                   Yes
    K tasked:                   Yes
    wK tasked:                   No
    OpenMP threads:               8
    Memory [MiB]:             35762
    Algorithm:                 Core
    Schwarz Cutoff:           1E-12
    Mask sparsity (%):       7.6849
    Fitting Condition:        1E-10

   => Auxiliary Basis Set <=

  Basis Set: (AUG-CC-PVQZ AUX)
    Blend: AUG-CC-PVQZ-JKFIT
    Number of shells: 222
    Number of basis function: 924
    Number of Cartesian functions: 1249
    Spherical Harmonics?: true
    Max angular momentum: 5

  Minimum eigenvalue in the overlap matrix is 1.2324272181E-05.
  Using Symmetric Orthogonalization.

  SCF Guess: Superposition of Atomic Densities via on-the-fly atomic UHF.

  ==> Iterations <==

                           Total Energy        Delta E     RMS |[F,P]|

   @DF-RHF iter SAD:   -75.48131424337359   -7.54813e+01   0.00000e+00 
   @DF-RHF iter   1:   -75.98107447059409   -4.99760e-01   9.02897e-04 DIIS
   @DF-RHF iter   2:   -76.03368941000190   -5.26149e-02   6.17240e-04 DIIS
   @DF-RHF iter   3:   -76.06537603821876   -3.16866e-02   4.20533e-05 DIIS
   @DF-RHF iter   4:   -76.06576656645697   -3.90528e-04   1.02913e-05 DIIS
   @DF-RHF iter   5:   -76.06579173885565   -2.51724e-05   2.32981e-06 DIIS
   @DF-RHF iter   6:   -76.06579380643363   -2.06758e-06   5.23672e-07 DIIS
   @DF-RHF iter   7:   -76.06579392231166   -1.15878e-07   9.73957e-08 DIIS
   @DF-RHF iter   8:   -76.06579392583591   -3.52425e-09   1.56817e-08 DIIS
   @DF-RHF iter   9:   -76.06579392590993   -7.40243e-11   3.74509e-09 DIIS
  Energy and wave function converged.


  ==> Post-Iterations <==

    Orbital Energies [Eh]
    ---------------------

    Doubly Occupied:                                                      

       1A    -20.565444     2A     -1.352193     3A     -0.715081  
       4A     -0.585986     5A     -0.510506  

    Virtual:                                                              

       6A      0.021765     7A      0.031838     8A      0.039760  
       9A      0.043890    10A      0.053418    11A      0.055699  
      12A      0.083429    13A      0.089669    14A      0.091300  
      15A      0.097295    16A      0.114141    17A      0.118398  
      18A      0.118696    19A      0.136606    20A      0.144624  
      21A      0.152529    22A      0.153968    23A      0.182378  
      24A      0.189082    25A      0.202907    26A      0.208933  
      27A      0.225805    28A      0.231529    29A      0.238133  
      30A      0.246210    31A      0.248290    32A      0.257465  
      33A      0.261026    34A      0.265446    35A      0.269464  
      36A      0.276467    37A      0.279790    38A      0.281412  
      39A      0.292595    40A      0.309275    41A      0.315548  
      42A      0.325939    43A      0.333472    44A      0.342055  
      45A      0.353529    46A      0.354004    47A      0.358962  
      48A      0.366552    49A      0.367332    50A      0.383186  
      51A      0.392992    52A      0.407987    53A      0.413632  
      54A      0.432244    55A      0.437867    56A      0.446219  
      57A      0.462295    58A      0.477680    59A      0.482207  
      60A      0.501488    61A      0.506703    62A      0.510855  
      63A      0.539515    64A      0.554838    65A      0.554864  
      66A      0.563124    67A      0.582101    68A      0.594728  
      69A      0.606145    70A      0.621511    71A      0.635470  
      72A      0.653528    73A      0.655688    74A      0.668135  
      75A      0.680147    76A      0.692426    77A      0.705588  
      78A      0.711271    79A      0.720627    80A      0.725516  
      81A      0.731039    82A      0.739319    83A      0.751974  
      84A      0.753252    85A      0.767883    86A      0.774900  
      87A      0.776645    88A      0.789503    89A      0.803059  
      90A      0.803290    91A      0.808538    92A      0.813106  
      93A      0.820932    94A      0.829102    95A      0.829316  
      96A      0.838935    97A      0.853229    98A      0.855784  
      99A      0.865630   100A      0.874056   101A      0.878769  
     102A      0.895334   103A      0.898229   104A      0.906872  
     105A      0.909554   106A      0.922922   107A      0.926496  
     108A      0.949575   109A      0.956031   110A      0.972996  
     111A      0.977635   112A      0.988597   113A      0.999128  
     114A      1.025503   115A      1.032636   116A      1.053347  
     117A      1.054589   118A      1.073206   119A      1.082246  
     120A      1.084340   121A      1.098480   122A      1.110268  
     123A      1.140216   124A      1.147005   125A      1.147342  
     126A      1.185647   127A      1.197776   128A      1.217666  
     129A      1.246716   130A      1.252283   131A      1.283203  
     132A      1.294484   133A      1.303002   134A      1.323619  
     135A      1.337431   136A      1.353906   137A      1.400557  
     138A      1.429811   139A      1.433405   140A      1.456147  
     141A      1.462270   142A      1.469241   143A      1.488801  
     144A      1.511426   145A      1.523538   146A      1.545289  
     147A      1.573583   148A      1.582149   149A      1.584273  
     150A      1.590184   151A      1.600707   152A      1.625612  
     153A      1.633098   154A      1.651126   155A      1.657769  
     156A      1.665723   157A      1.680696   158A      1.694887  
     159A      1.695708   160A      1.722197   161A      1.725191  
     162A      1.744210   163A      1.751327   164A      1.769772  
     165A      1.770993   166A      1.783556   167A      1.789898  
     168A      1.808240   169A      1.809682   170A      1.814084  
     171A      1.825372   172A      1.829842   173A      1.851652  
     174A      1.857268   175A      1.862541   176A      1.878543  
     177A      1.889328   178A      1.894020   179A      1.906488  
     180A      1.922935   181A      1.925325   182A      1.934929  
     183A      1.935965   184A      1.951801   185A      1.962269  
     186A      1.969842   187A      1.981375   188A      1.983203  
     189A      2.002769   190A      2.004063   191A      2.013807  
     192A      2.021918   193A      2.035188   194A      2.042328  
     195A      2.055780   196A      2.062394   197A      2.068434  
     198A      2.082026   199A      2.102170   200A      2.116349  
     201A      2.140592   202A      2.148322   203A      2.149240  
     204A      2.160767   205A      2.189056   206A      2.190073  
     207A      2.228702   208A      2.231291   209A      2.256426  
     210A      2.263582   211A      2.273367   212A      2.277619  
     213A      2.290017   214A      2.291320   215A      2.321539  
     216A      2.325751   217A      2.334080   218A      2.368789  
     219A      2.396693   220A      2.406976   221A      2.413682  
     222A      2.439194   223A      2.443670   224A      2.471299  
     225A      2.484482   226A      2.510113   227A      2.543929  
     228A      2.548978   229A      2.555108   230A      2.588420  
     231A      2.612415   232A      2.615175   233A      2.650767  
     234A      2.666010   235A      2.687429   236A      2.744194  
     237A      2.766271   238A      2.770545   239A      2.784725  
     240A      2.793978   241A      2.827166   242A      2.838321  
     243A      2.866276   244A      2.881505   245A      2.907982  
     246A      2.986099   247A      2.999144   248A      3.049519  
     249A      3.057835   250A      3.064583   251A      3.074072  
     252A      3.085534   253A      3.087675   254A      3.107150  
     255A      3.124653   256A      3.166762   257A      3.176093  
     258A      3.188863   259A      3.233217   260A      3.264094  
     261A      3.275707   262A      3.287670   263A      3.302488  
     264A      3.316374   265A      3.323524   266A      3.347437  
     267A      3.348003   268A      3.369115   269A      3.392265  
     270A      3.417625   271A      3.423867   272A      3.447141  
     273A      3.461691   274A      3.505055   275A      3.510712  
     276A      3.563582   277A      3.568093   278A      3.594331  
     279A      3.641694   280A      3.647747   281A      3.658073  
     282A      3.701112   283A      3.754843   284A      3.760553  
     285A      3.810051   286A      3.857170   287A      3.883200  
     288A      3.889640   289A      3.890591   290A      3.921074  
     291A      3.934614   292A      3.962129   293A      4.036084  
     294A      4.055933   295A      4.079539   296A      4.085695  
     297A      4.087312   298A      4.109756   299A      4.121395  
     300A      4.153270   301A      4.188231   302A      4.211618  
     303A      4.224373   304A      4.268697   305A      4.282515  
     306A      4.310728   307A      4.315919   308A      4.359350  
     309A      4.412424   310A      4.423176   311A      4.445118  
     312A      4.477672   313A      4.528960   314A      4.582781  
     315A      4.616050   316A      4.674424   317A      4.698725  
     318A      4.715668   319A      4.750083   320A      4.751460  
     321A      4.780194   322A      4.795617   323A      4.814431  
     324A      4.821731   325A      4.847015   326A      4.860951  
     327A      4.869433   328A      4.884840   329A      4.906515  
     330A      4.908319   331A      4.968921   332A      4.983232  
     333A      5.044674   334A      5.057334   335A      5.074574  
     336A      5.096611   337A      5.122384   338A      5.163773  
     339A      5.202079   340A      5.295550   341A      5.297983  
     342A      5.328200   343A      5.335491   344A      5.368399  
     345A      5.415705   346A      5.425453   347A      5.532355  
     348A      5.547160   349A      5.591024   350A      5.606225  
     351A      5.659550   352A      5.686359   353A      5.736841  
     354A      5.874274   355A      5.917910   356A      5.987681  
     357A      6.052184   358A      6.114047   359A      6.358316  
     360A      6.571901   361A      6.633635   362A      6.707570  
     363A      6.730374   364A      6.818931   365A      6.824116  
     366A      6.878474   367A      6.898699   368A      6.917236  
     369A      6.928211   370A      6.955753   371A      6.961420  
     372A      6.971969   373A      7.033578   374A      7.044731  
     375A      7.053757   376A      7.082966   377A      7.083378  
     378A      7.145693   379A      7.173353   380A      7.287144  
     381A      7.318402   382A      7.347628   383A      7.380867  
     384A      7.414290   385A      7.479178   386A      7.486912  
     387A      7.495928   388A      7.533920   389A      7.547270  
     390A      7.673808   391A      7.678773   392A      7.732834  
     393A      7.758528   394A      7.784271   395A      7.838855  
     396A      7.850481   397A      7.861838   398A      7.903475  
     399A      7.939082   400A      7.958880   401A      7.976071  
     402A      7.992758   403A      8.007840   404A      8.013741  
     405A      8.040925   406A      8.063754   407A      8.112542  
     408A      8.256003   409A      8.269403   410A      8.286101  
     411A      8.332873   412A      8.355839   413A      8.448179  
     414A      8.531654   415A      8.533857   416A      8.598188  
     417A      8.624798   418A      8.697393   419A      8.708769  
     420A      8.813683   421A      8.832238   422A      8.841576  
     423A      8.859119   424A      8.885760   425A      8.899199  
     426A      8.940982   427A      9.039044   428A      9.101057  
     429A      9.181738   430A      9.240652   431A      9.287547  
     432A      9.327502   433A      9.336799   434A      9.383152  
     435A      9.401277   436A      9.486412   437A      9.544434  
     438A      9.589362   439A      9.642722   440A      9.680070  
     441A      9.708570   442A      9.732053   443A      9.741877  
     444A      9.790325   445A      9.801730   446A      9.822117  
     447A      9.838599   448A      9.874711   449A      9.880613  
     450A      9.960622   451A      9.965465   452A     10.015940  
     453A     10.016374   454A     10.036794   455A     10.059733  
     456A     10.060543   457A     10.213569   458A     10.297758  
     459A     10.347766   460A     10.387928   461A     10.398470  
     462A     10.490152   463A     10.544409   464A     10.651811  
     465A     10.652867   466A     10.702813   467A     10.776304  
     468A     10.803284   469A     10.819694   470A     10.822591  
     471A     10.953267   472A     11.040011   473A     11.138503  
     474A     11.159512   475A     11.222173   476A     11.262826  
     477A     11.263825   478A     11.325925   479A     11.334827  
     480A     11.367654   481A     11.434760   482A     11.533326  
     483A     11.743097   484A     11.857720   485A     12.045437  
     486A     12.065123   487A     12.099235   488A     12.165761  
     489A     12.241236   490A     12.270411   491A     12.302826  
     492A     12.356583   493A     12.703388   494A     12.799784  
     495A     12.875654   496A     12.935326   497A     13.162484  
     498A     13.192331   499A     13.243929   500A     13.435672  
     501A     13.663252   502A     14.008732   503A     14.126853  
     504A     14.528831   505A     14.812720   506A     14.812889  
     507A     14.928666   508A     15.286854   509A     16.535570  
     510A     17.040293   511A     17.359784   512A     17.367133  
     513A     17.377095   514A     25.742194   515A     25.849500  
     516A     25.868784   517A     35.574026   518A     45.770947  
     519A     71.634908   520A    141.480036  

    Final Occupation by Irrep:
              A 
    DOCC [     5 ]

  @DF-RHF Final Energy:   -76.06579392590993

   => Energetics <=

    Nuclear Repulsion Energy =              9.1743042435092761
    One-Electron Energy =                -123.0217741670148968
    Two-Electron Energy =                  37.7816759975956984
    Total Energy =                        -76.0657939259099294

Computation Completed


Properties will be evaluated at   0.000000,   0.000000,   0.000000 [a0]

Properties computed using the SCF density matrix

  Nuclear Dipole Moment: [e a0]
     X:    51.8212      Y:     3.1287      Z:     0.6212

  Electronic Dipole Moment: [e a0]
     X:   -51.0586      Y:    -3.3038      Z:    -0.5645

  Dipole Moment: [e a0]
     X:     0.7626      Y:    -0.1750      Z:     0.0567     Total:     0.7845

  Dipole Moment: [D]
     X:     1.9384      Y:    -0.4449      Z:     0.1440     Total:     1.9940


*** tstop() called on node142.bme.utexas.edu at Wed Jun 29 16:26:42 2011
Module time:
	user time   =      91.64 seconds =       1.53 minutes
	system time =       3.01 seconds =       0.05 minutes
	total time  =         14 seconds =       0.23 minutes
Total time:
	user time   =     283.21 seconds =       4.72 minutes
	system time =      25.55 seconds =       0.43 minutes
	total time  =         61 seconds =       1.02 minutes

*** tstart() called on node142.bme.utexas.edu
*** at Wed Jun 29 16:26:42 2011


  //>>>>>>>>>>>>>>>>>>>>>>>>>>>>>>>>>>>//
  //               DFMP2               //
  //<<<<<<<<<<<<<<<<<<<<<<<<<<<<<<<<<<<//

   => Loading Basis Set <=

    Name: (AUG-CC-PVQZ AUX)
    Role: RIFIT
    Keyword: DF_BASIS_MP2
    atoms 1        entry C          line   184 file /home/liuchw/anaconda3/envs/psi4env/share/psi4/basis/aug-cc-pvqz-ri.gbs 
    atoms 2        entry S          line   824 file /home/liuchw/anaconda3/envs/psi4env/share/psi4/basis/aug-cc-pvqz-ri.gbs 
    atoms 3-6, 8-9 entry H          line    30 file /home/liuchw/anaconda3/envs/psi4env/share/psi4/basis/aug-cc-pvqz-ri.gbs 
[...]
     160A      2.045494   161A      2.102294   162A      2.133171  
     163A      2.169990   164A      2.175509   165A      2.205366  
     166A      2.216524   167A      2.253995   168A      2.309486  
     169A      2.315164   170A      2.351321   171A      2.383584  
     172A      2.407429   173A      2.474131   174A      2.477122  
     175A      2.484812   176A      2.492470   177A      2.534007  
     178A      2.570175   179A      2.601508   180A      2.620421  
     181A      2.664098   182A      2.698059   183A      2.731929  
     184A      2.745500   185A      2.773115   186A      2.781747  
     187A      2.830080   188A      2.846869   189A      2.869006  
     190A      2.893057   191A      2.977177   192A      3.077448  
     193A      3.117325   194A      3.329835   195A      3.375921  
     196A      3.396418   197A      3.544047   198A      3.595187  
     199A      3.605582   200A      3.612453   201A      3.630236  
     202A      3.661289   203A      3.681165   204A      3.725266  
     205A      3.793543   206A      3.796808   207A      3.840064  
     208A      3.939255   209A      3.952841   210A      4.030604  
     211A      4.051275   212A      4.059429   213A      4.108220  
     214A      4.124833   215A      4.144928   216A      4.152974  
     217A      4.186793   218A      4.201677   219A      4.217099  
     220A      4.243028   221A      4.270422   222A      4.276900  
     223A      4.329684   224A      4.407914   225A      4.462969  
     226A      4.481235   227A      4.489460   228A      4.508276  
     229A      4.517656   230A      4.521205   231A      4.537044  
     232A      4.581787   233A      4.613369   234A      4.650857  
     235A      4.705311   236A      4.777597   237A      4.789969  
     238A      4.800759   239A      4.874795   240A      4.923700  
     241A      4.932664   242A      4.967629   243A      4.980741  
     244A      5.031379   245A      5.147725   246A      5.175173  
     247A      5.195646   248A      5.199347   249A      5.247928  
     250A      5.296854   251A      5.359092   252A      5.385844  
     253A      5.536646   254A      5.567912   255A      5.595426  
     256A      5.607742   257A      5.628274   258A      5.787847  
     259A      5.994487   260A      6.095480   261A      6.101904  
     262A      6.258291   263A      6.547538   264A      6.640299  
     265A      6.699569   266A      6.804944   267A      6.944953  
     268A      7.158880   269A      7.301305   270A      7.313193  
     271A      7.346515   272A      7.370284   273A      7.451794  
     274A      7.586412   275A      7.903144   276A      7.925665  
     277A      8.152833   278A      8.820818   279A     15.928490  
     280A     17.089521  

    Final Occupation by Irrep:
              A 
    DOCC [    18 ]

  @DF-RHF Final Energy:  -513.81966851861932

   => Energetics <=

    Nuclear Repulsion Energy =            101.7310789246937475
    One-Electron Energy =                -910.8940873812380232
    Two-Electron Energy =                 295.3433399379249522
    Total Energy =                       -513.8196685186193235

Computation Completed


Properties will be evaluated at   0.000000,   0.000000,   0.000000 [a0]

Properties computed using the SCF density matrix

  Nuclear Dipole Moment: [e a0]
     X:     2.4166      Y:     3.6974      Z:    -0.7349

  Electronic Dipole Moment: [e a0]
     X:    -1.2700      Y:    -3.2342      Z:     0.6639

  Dipole Moment: [e a0]
     X:     1.1466      Y:     0.4632      Z:    -0.0710     Total:     1.2386

  Dipole Moment: [D]
     X:     2.9143      Y:     1.1773      Z:    -0.1805     Total:     3.1483


*** tstop() called on node142.bme.utexas.edu at Wed Jun 29 18:02:56 2011
Module time:
	user time   =      25.47 seconds =       0.42 minutes
	system time =       1.26 seconds =       0.02 minutes
	total time  =          4 seconds =       0.07 minutes
Total time:
	user time   =   16205.91 seconds =     270.10 minutes
	system time =    2033.75 seconds =      33.90 minutes
	total time  =       5835 seconds =      97.25 minutes
 MINTS: Wrapper to libmints.
   by Justin Turney

   Calculation information:
      Number of threads:                 8
      Number of atoms:                   9
      Number of AO shells:              98
      Number of SO shells:              98
      Number of primitives:            190
      Number of atomic orbitals:       319
      Number of basis functions:       280

      Number of irreps:                  1
      Integral cutoff                 0.00e+00
      Number of functions per irrep: [ 280 ]

 OEINTS: Overlap, kinetic, potential, dipole, and quadrupole integrals
         stored in file 35.

      Computing two-electron integrals...done
      Computed 772376209 non-zero two-electron integrals.
        Stored in file 33.


*** tstart() called on node142.bme.utexas.edu
*** at Wed Jun 29 18:06:42 2011


	Wfn Parameters:
	--------------------
	Wavefunction         = CCSD_T
	Number of irreps     = 1
	Number of MOs        = 280
	Number of active MOs = 280
	AO-Basis             = NONE
	Semicanonical        = false
	Reference            = RHF
	Print Level          = 1

	IRREP	# MOs	# FZDC	# DOCC	# SOCC	# VIRT	# FZVR
	-----	-----	------	------	------	------	------
	 A	   280	    0	    18	    0	    262	    0
	Transforming integrals...
	IWL integrals will be deleted.
	(OO|OO)...
	Presorting SO-basis two-electron integrals.
	Sorting File: SO Ints (nn|nn) nbuckets = 1
	Transforming the one-electron integrals and constructing Fock matrices
	Starting first half-transformation.
	Sorting half-transformed integrals.
	First half integral transformation complete.
	Starting second half-transformation.
	Two-electron integral transformation complete.
	(OO|OV)...
	Starting second half-transformation.
	Two-electron integral transformation complete.
	(OO|VV)...
	Starting second half-transformation.
	Two-electron integral transformation complete.
	(OV|OO)...
	Starting first half-transformation.
	Sorting half-transformed integrals.
	First half integral transformation complete.
	Starting second half-transformation.
	Two-electron integral transformation complete.
	(OV|OV)...
	Starting second half-transformation.
	Two-electron integral transformation complete.
	(OV|VV)...
	Starting second half-transformation.
	Two-electron integral transformation complete.
	(VV|OO)...
	Starting first half-transformation.
	Sorting half-transformed integrals.
	First half integral transformation complete.
	Starting second half-transformation.
	Two-electron integral transformation complete.
	(VV|OV)...
	Starting second half-transformation.
	Two-electron integral transformation complete.
	(VV|VV)...
	Starting second half-transformation.
	Two-electron integral transformation complete.
	Frozen core energy     =      0.00000000000000

	Size of irrep 0 of <ab|cd> integrals:   4711.999 (MW) /  37695.990 (MB)
	Total:                                  4711.999 (MW) /  37695.990 (MB)

	Size of irrep 0 of <ia|bc> integrals:    323.725 (MW) /   2589.801 (MB)
	Total:                                   323.725 (MW) /   2589.801 (MB)

	Size of irrep 0 of tijab amplitudes:      22.241 (MW) /    177.925 (MB)
	Total:                                    22.241 (MW) /    177.925 (MB)

	Nuclear Rep. energy          =    101.73107892469375
	SCF energy                   =   -513.81966851861932
	One-electron energy          =   -910.89408873865614
	Two-electron energy          =    295.34331670702755
	Reference energy             =   -513.81969310693489

*** tstop() called on node142.bme.utexas.edu at Wed Jun 29 18:46:30 2011
Module time:
	user time   =    1161.46 seconds =      19.36 minutes
	system time =     245.48 seconds =       4.09 minutes
	total time  =       2388 seconds =      39.80 minutes
Total time:
	user time   =   17467.51 seconds =     291.13 minutes
	system time =    2300.82 seconds =      38.35 minutes
	total time  =       8449 seconds =     140.82 minutes
            **************************
            *                        *
            *        CCENERGY        *
            *                        *
            **************************

    Nuclear Rep. energy (wfn)     =  101.731078924693747
    SCF energy          (wfn)     = -513.819668518619324
    Reference energy    (file100) = -513.819693106934892

    Input parameters:
    -----------------
    Wave function   =     CCSD_T
    Reference wfn   =     RHF
    Brueckner       =     No
    Memory (Mbytes) =     50000.0
    Maxiter         =     50
    R_Convergence   =     1.0e-07
    E_Convergence   =     1.0e-07
    Restart         =     Yes
    DIIS            =     Yes
    AO Basis        =     NONE
    ABCD            =     NEW
    Cache Level     =     2
    Cache Type      =     LOW
    Print Level     =     1
    Num. of threads =     8
    # Amps to Print =     10
    Print MP2 Amps? =     No
    Analyze T2 Amps =     No
    Print Pair Ener =     No
    Local CC        =     No
    SCS-MP2         =     False
    SCSN-MP2        =     False
    SCS-CCSD        =     False

MP2 correlation energy -0.7155354705787373
                Solving CC Amplitude Equations
                ------------------------------
  Iter             Energy              RMS        T1Diag      D1Diag    New D1Diag    D2Diag
  ----     ---------------------    ---------   ----------  ----------  ----------   --------
     0        -0.715535470578737    0.000e+00    0.000000    0.000000    0.000000    0.142412
     1        -0.733880418865510    6.504e-02    0.006155    0.017578    0.017578    0.150303
     2        -0.749366051836154    2.151e-02    0.006516    0.017620    0.017620    0.156880
     3        -0.751768206531932    7.992e-03    0.007428    0.020859    0.020859    0.159050
     4        -0.751561108692576    1.917e-03    0.007574    0.021210    0.021210    0.159410
     5        -0.751607248951430    7.012e-04    0.007644    0.021543    0.021543    0.159559
     6        -0.751618958754204    1.876e-04    0.007662    0.021619    0.021619    0.159574
     7        -0.751614433664713    6.836e-05    0.007667    0.021639    0.021639    0.159574
     8        -0.751613543856880    2.310e-05    0.007668    0.021645    0.021645    0.159575
     9        -0.751614200101779    9.100e-06    0.007668    0.021646    0.021646    0.159575
    10        -0.751613632746338    3.845e-06    0.007668    0.021646    0.021646    0.159575
    11        -0.751613658123041    1.260e-06    0.007668    0.021646    0.021646    0.159575
    12        -0.751613622787121    5.183e-07    0.007668    0.021646    0.021646    0.159575
    13        -0.751613607470087    1.795e-07    0.007668    0.021646    0.021646    0.159575
    14        -0.751613608988180    6.836e-08    0.007668    0.021646    0.021646    0.159575

    Iterations converged.


    Largest TIA Amplitudes:
             14  13        -0.0089310446
             14  15         0.0081607108
             12  23        -0.0064381269
             12  20         0.0064083374
             16  73         0.0062828757
             14  32         0.0061768379
             15  16         0.0056904064
             11  16         0.0056685331
             16  24         0.0055441934
             16  48         0.0051298394

    Largest TIjAb Amplitudes:
     16  16  20  20        -0.0347726471
     15  15  20  20        -0.0224574038
     17  17  62  62        -0.0188595513
     10  10  45  45        -0.0173790844
     17  17  28  28        -0.0140131015
     17  17  28  62        -0.0131903130
     17  17  62  28        -0.0131903130
     16  17  20  28        -0.0126539802
     17  16  28  20        -0.0126539802
     16  16   9  20         0.0120475273

    SCF energy       (wfn)                    = -513.819668518619324
    Reference energy (file100)                = -513.819693106934892

    Opposite-spin MP2 correlation energy      =   -0.552076939258371
    Same-spin MP2 correlation energy          =   -0.163458531320366
    MP2 correlation energy                    =   -0.715535470578737
      * MP2 total energy                      = -514.535228577513635

    Opposite-spin CCSD correlation energy     =   -0.599999494629401
    Same-spin CCSD correlation energy         =   -0.151614114358783
    CCSD correlation energy                   =   -0.751613608988180
      * CCSD total energy                     = -514.571306715923129

            **************************
            *                        *
            *        CCTRIPLES       *
            *                        *
            **************************


    Wave function   =    CCSD_T
    Reference wfn   =      RHF

    Nuclear Rep. energy (wfn)                =  101.731078924693747
    SCF energy          (wfn)                = -513.819668518619324
    Reference energy    (file100)            = -513.819693106934892
    CCSD energy         (file100)            =   -0.751613608988180
    Total CCSD energy   (file100)            = -514.571306715923129

    Number of ijk index combinations:             1140
    Memory available in words        :      6250000000
    ~Words needed per explicit thread:        71938912
    Number of threads for explicit ijk threading:    8

    MKL num_threads set to 1 for explicit threading.

    (T) energy                                =   -0.026710921794589
      * CCSD(T) total energy                  = -514.598017637717703


  //>>>>>>>>>>>>>>>>>>>>>>>>>>>>>>>>>>>//
  //    CBS Results: custom function   //
  //<<<<<<<<<<<<<<<<<<<<<<<<<<<<<<<<<<<//


   ==> HF <==

   HI-zeta (4) Energy:               -513.831650247196


   ==> Helgaker 2-point correlated extrapolation for method: MP2 <==

   LO-zeta (3) Energy:               -514.535228577514
   HI-zeta (4) Energy:               -514.634107072569
   Alpha (exponent) Value:             3.000000000000
   Extrapolated Energy:              -514.706261650042

   @Extrapolated MP2/(T,Q):          -514.706261650042



   ==> Helgaker 2-point correlated extrapolation for method: HF <==

   LO-zeta (3) Energy:               -513.819668518619
   HI-zeta (4) Energy:               -513.831650247196
   Alpha (exponent) Value:             3.000000000000
   Extrapolated Energy:              -513.840393670752

   @Extrapolated HF/(T,Q):           -513.840393670752



   ==> Helgaker 2-point correlated extrapolation for method: CCSD(T) <==

   LO-zeta (2) Energy:               -514.368954003475
   HI-zeta (3) Energy:               -514.598017637718
   Alpha (exponent) Value:             3.000000000000
   Extrapolated Energy:              -514.694465483715

   @Extrapolated CCSD(T)/(D,T):      -514.694465483715



   ==> Helgaker 2-point correlated extrapolation for method: MP2 <==

   LO-zeta (2) Energy:               -514.311592351940
   HI-zeta (3) Energy:               -514.535228577514
   Alpha (exponent) Value:             3.000000000000
   Extrapolated Energy:              -514.629391198808

   @Extrapolated MP2/(D,T):          -514.629391198808


   ==> Components <==

  ---------------------------------------------------------------------------------------------------------
                          Method / Basis                      Rqd      Energy [Eh]   Variable
  ---------------------------------------------------------------------------------------------------------
                              hf / aug-cc-pvqz                  *    -513.83165025   HF TOTAL ENERGY
                             mp2 / aug-cc-pvqz                  *    -514.63410707   MP2 TOTAL ENERGY
                              hf / aug-cc-pvdz                       -513.77343603   HF TOTAL ENERGY
                             mp2 / aug-cc-pvdz                  *    -514.31159235   MP2 TOTAL ENERGY
                            ccsd / aug-cc-pvdz                       -514.35249921   CCSD TOTAL ENERGY
                         ccsd(t) / aug-cc-pvdz                  *    -514.36895400   CCSD(T) TOTAL ENERGY
                              hf / aug-cc-pvtz                  *    -513.81966852   HF TOTAL ENERGY
                             mp2 / aug-cc-pvtz                  *    -514.53522858   MP2 TOTAL ENERGY
                            ccsd / aug-cc-pvtz                       -514.57130672   CCSD TOTAL ENERGY
                         ccsd(t) / aug-cc-pvtz                  *    -514.59801764   CCSD(T) TOTAL ENERGY
  ---------------------------------------------------------------------------------------------------------

   ==> Stages <==

  ---------------------------------------------------------------------------------------------------------
      Stage               Method / Basis                       Wt      Energy [Eh]   Scheme
  ---------------------------------------------------------------------------------------------------------
        scf                   hf / aug-cc-pvqz                  1    -513.83165025   xtpl_highest_1
       corl                  mp2 / aug-cc-pv[tq]z               1    -514.70626165   corl_xtpl_helgaker_2
       corl                   hf / aug-cc-pv[tq]z              -1    -513.84039367   corl_xtpl_helgaker_2
     delta1              ccsd(t) / aug-cc-pv[dt]z               1    -514.69446548   corl_xtpl_helgaker_2
     delta1                  mp2 / aug-cc-pv[dt]z              -1    -514.62939120   corl_xtpl_helgaker_2
  ---------------------------------------------------------------------------------------------------------

   ==> CBS <==

  ---------------------------------------------------------------------------------------------------------
      Stage               Method / Basis                               Energy [Eh]   Scheme
  ---------------------------------------------------------------------------------------------------------
        scf                   hf / aug-cc-pvqz                       -513.83165025   xtpl_highest_1
       corl                  mp2 / aug-cc-pv[tq]z                      -0.86586798   corl_xtpl_helgaker_2
     delta1        ccsd(t) - mp2 / aug-cc-pv[dt]z                      -0.06507428   corl_xtpl_helgaker_2
      total                  CBS                                     -514.76259251   
  ---------------------------------------------------------------------------------------------------------
   => Loading Basis Set <=

    Name: DEF2-SVP
    Role: ORBITAL
    Keyword: BASIS
    atoms 1        entry C          line    90 file /home/liuchw/anaconda3/envs/psi4env/share/psi4/basis/def2-svp.gbs 
    atoms 2        entry S          line   328 file /home/liuchw/anaconda3/envs/psi4env/share/psi4/basis/def2-svp.gbs 
    atoms 3-6, 8-9 entry H          line    15 file /home/liuchw/anaconda3/envs/psi4env/share/psi4/basis/def2-svp.gbs 
    atoms 7        entry O          line   130 file /home/liuchw/anaconda3/envs/psi4env/share/psi4/basis/def2-svp.gbs 


       N-Body: Complex Energy (fragments = (1, 2), basis = (1, 2):  -514.76259251139300)

   ==> N-Body: Counterpoise Corrected (CP) energies <==

   n-Body     Total Energy [Eh]       I.E. [kcal/mol]      Delta [kcal/mol]
        1     -514.758875792577        0.000000000000        0.000000000000
        2     -514.762682622285       -2.388821706452       -2.388821706452

   => Loading Basis Set <=

    Name: DEF2-SVP
    Role: ORBITAL
    Keyword: BASIS
    atoms 1        entry C          line    90 file /home/liuchw/anaconda3/envs/psi4env/share/psi4/basis/def2-svp.gbs 
    atoms 2        entry S          line   328 file /home/liuchw/anaconda3/envs/psi4env/share/psi4/basis/def2-svp.gbs 
    atoms 3-6, 8-9 entry H          line    15 file /home/liuchw/anaconda3/envs/psi4env/share/psi4/basis/def2-svp.gbs 
    atoms 7        entry O          line   130 file /home/liuchw/anaconda3/envs/psi4env/share/psi4/basis/def2-svp.gbs 


    Psi4 stopped on: Wednesday, 29 June 2011 07:35PM
    Psi4 wall time for execution: 3:09:53.92

*** Psi4 exiting successfully. Buy a developer a beer!
