
    -----------------------------------------------------------------------
          Psi4: An Open-Source Ab Initio Electronic Structure Package
                               Psi4 1.4a2.dev224 

                         Git: Rev {master} e453b16 


    R. M. Parrish, L. A. Burns, D. G. A. Smith, A. C. Simmonett,
    A. E. DePrince III, E. G. Hohenstein, U. Bozkaya, A. Yu. Sokolov,
    R. Di Remigio, R. M. Richard, J. F. Gonthier, A. M. James,
    H. R. McAlexander, A. Kumar, M. Saitow, X. Wang, B. P. Pritchard,
    P. Verma, H. F. Schaefer III, K. Patkowski, R. A. King, E. F. Valeev,
    F. A. Evangelista, J. M. Turney, T. D. Crawford, and C. D. Sherrill,
    J. Chem. Theory Comput. 13(7) pp 3185--3197 (2017).
    (doi: 10.1021/acs.jctc.7b00174)


                         Additional Contributions by
    P. Kraus, H. Kruse, M. H. Lechner, M. C. Schieber, R. A. Shaw,
    A. Alenaizan, R. Galvelis, Z. L. Glick, S. Lehtola, and J. P. Misiewicz

    -----------------------------------------------------------------------


    Psi4 started on: Thursday, 16 April 2020 07:21AM

    Process ID: 56083
    Host:       node85.bme.utexas.edu
    PSIDATADIR: /home/liuchw/anaconda3/envs/psi4env/share/psi4
    Memory:     500.0 MiB
    Threads:    8
    
  ==> Input File <==

--------------------------------------------------------------------------
#Generated by lconvert.py for cbs job

memory 50 GB

molecule  {
0 1
  C      -3.546776   -0.481931    0.591520
  O      -1.627661    0.158046   -1.132406
  S      -2.263925    0.691077    0.115119
  C      -1.152926    0.298441    1.478987
  H      -3.959576   -0.193985    1.555567
  H      -4.312989   -0.438873   -0.178064
  H      -3.103695   -1.475720    0.616603
  H      -1.627579    0.566204    2.420108
  H      -0.916338   -0.762663    1.427498
  H      -0.250773    0.885377    1.327912
--
0 1
  O      -3.703393    2.290846    2.591135
  H      -3.529850    2.717673    1.747841
  H      -4.121519    2.976509    3.116180
units angstrom
no_reorient
symmetry c1
}

set {
scf_type DF
mp2_type DF
e_convergence 7
reference rhf
}

energy(cbs, corl_wfn='mp2', corl_basis='aug-cc-pv[tq]z', delta_wfn='ccsd(t)', delta_basis='aug-cc-pv[dt]z', bsse_type='cp')
--------------------------------------------------------------------------

  Memory set to  46.566 GiB by Python driver.

Scratch directory: /scratch/liuchw/


   ===> N-Body Interaction Abacus <===
        BSSE Treatment:                     cp
        Number of 1-body computations:     4
        Number of 2-body computations:     1

   ==> N-Body: Now computing 1-body complexes <==


       N-Body: Computing complex (1/4) with fragments (2,) in the basis of fragments (2,).


Scratch directory: /scratch/liuchw/

  //>>>>>>>>>>>>>>>>>>>>>>>>>>>>>>>>>>>//
  //     CBS Setup: custom function    //
  //<<<<<<<<<<<<<<<<<<<<<<<<<<<<<<<<<<<//

    Naive listing of computations required.
             hf / aug-cc-pvqz              for  HF TOTAL ENERGY
            mp2 / aug-cc-pvtz              for  MP2 TOTAL ENERGY
            mp2 / aug-cc-pvqz              for  MP2 TOTAL ENERGY
             hf / aug-cc-pvtz              for  HF TOTAL ENERGY
             hf / aug-cc-pvqz              for  HF TOTAL ENERGY
        ccsd(t) / aug-cc-pvdz              for  CCSD(T) TOTAL ENERGY
        ccsd(t) / aug-cc-pvtz              for  CCSD(T) TOTAL ENERGY
            mp2 / aug-cc-pvdz              for  MP2 TOTAL ENERGY
            mp2 / aug-cc-pvtz              for  MP2 TOTAL ENERGY

    Enlightened listing of computations required.
            mp2 / aug-cc-pvqz              for  MP2 TOTAL ENERGY
        ccsd(t) / aug-cc-pvdz              for  CCSD(T) TOTAL ENERGY
        ccsd(t) / aug-cc-pvtz              for  CCSD(T) TOTAL ENERGY

    Full listing of computations to be obtained (required and bonus).
             hf / aug-cc-pvqz              for  HF TOTAL ENERGY
            mp2 / aug-cc-pvqz              for  MP2 TOTAL ENERGY
             hf / aug-cc-pvdz              for  HF TOTAL ENERGY
            mp2 / aug-cc-pvdz              for  MP2 TOTAL ENERGY
           ccsd / aug-cc-pvdz              for  CCSD TOTAL ENERGY
        ccsd(t) / aug-cc-pvdz              for  CCSD(T) TOTAL ENERGY
             hf / aug-cc-pvtz              for  HF TOTAL ENERGY
            mp2 / aug-cc-pvtz              for  MP2 TOTAL ENERGY
           ccsd / aug-cc-pvtz              for  CCSD TOTAL ENERGY
        ccsd(t) / aug-cc-pvtz              for  CCSD(T) TOTAL ENERGY

  //>>>>>>>>>>>>>>>>>>>>>>>>>>>>>>>>>>>>//
  // CBS Computation: MP2 / AUG-CC-PVQZ //
  //<<<<<<<<<<<<<<<<<<<<<<<<<<<<<<<<<<<<//


Scratch directory: /scratch/liuchw/

*** tstart() called on node85.bme.utexas.edu
*** at Thu Apr 16 07:21:32 2020

   => Loading Basis Set <=

    Name: AUG-CC-PVQZ
    Role: ORBITAL
    Keyword: BASIS
    atoms 1   entry O          line   423 file /home/liuchw/anaconda3/envs/psi4env/share/psi4/basis/aug-cc-pvqz.gbs 
    atoms 2-3 entry H          line    40 file /home/liuchw/anaconda3/envs/psi4env/share/psi4/basis/aug-cc-pvqz.gbs 


         ---------------------------------------------------------
                                   SCF
               by Justin Turney, Rob Parrish, Andy Simmonett
                          and Daniel G. A. Smith
                              RHF Reference
                        8 Threads,  47683 MiB Core
         ---------------------------------------------------------

  ==> Geometry <==

    Molecular point group: c1
    Full point group: C1

    Geometry (in Angstrom), charge = 0, multiplicity = 1:

       Center              X                  Y                   Z               Mass       
    ------------   -----------------  -----------------  -----------------  -----------------
         O           -1.245253395056     1.630899097773     1.924776613524    15.994914619570
         H           -1.071710395056     2.057726097773     1.081482613524     1.007825032230
         H           -1.663379395056     2.316562097773     2.449821613524     1.007825032230

  Running in c1 symmetry.

  Rotational constants: A =     22.65013  B =      0.11491  C =      0.11433 [cm^-1]
  Rotational constants: A = 679033.90537  B =   3444.77796  C =   3427.39061 [MHz]
  Nuclear repulsion =    9.167261046895993

  Charge       = 0
  Multiplicity = 1
  Electrons    = 10
  Nalpha       = 5
  Nbeta        = 5

  ==> Algorithm <==

  SCF Algorithm Type is DF.
  DIIS enabled.
  MOM disabled.
  Fractional occupation disabled.
  Guess Type is SAD.
  Energy threshold   = 1.00e-07
  Density threshold  = 1.00e-08
  Integral threshold = 0.00e+00

  ==> Primary Basis <==

  Basis Set: AUG-CC-PVQZ
    Blend: AUG-CC-PVQZ
    Number of shells: 48
    Number of basis function: 172
    Number of Cartesian functions: 215
    Spherical Harmonics?: true
    Max angular momentum: 4

   => Loading Basis Set <=

    Name: (AUG-CC-PVQZ AUX)
    Role: JKFIT
    Keyword: DF_BASIS_SCF
    atoms 1   entry O          line   318 file /home/liuchw/anaconda3/envs/psi4env/share/psi4/basis/aug-cc-pvqz-jkfit.gbs 
    atoms 2-3 entry H          line    70 file /home/liuchw/anaconda3/envs/psi4env/share/psi4/basis/aug-cc-pvqz-jkfit.gbs 

  ==> Pre-Iterations <==

   -------------------------------------------------------
    Irrep   Nso     Nmo     Nalpha   Nbeta   Ndocc  Nsocc
   -------------------------------------------------------
     A        172     172       0       0       0       0
   -------------------------------------------------------
    Total     172     172       5       5       5       0
   -------------------------------------------------------

  ==> Integral Setup <==

  DFHelper Memory: AOs need 0.074 GiB; user supplied 34.925 GiB. Using in-core AOs.

  ==> MemDFJK: Density-Fitted J/K Matrices <==

    J tasked:                   Yes
    K tasked:                   Yes
    wK tasked:                   No
    OpenMP threads:               8
    Memory [MiB]:             35762
    Algorithm:                 Core
    Schwarz Cutoff:           1E-12
    Mask sparsity (%):       0.0000
    Fitting Condition:        1E-10

   => Auxiliary Basis Set <=

  Basis Set: (AUG-CC-PVQZ AUX)
    Blend: AUG-CC-PVQZ-JKFIT
    Number of shells: 70
    Number of basis function: 294
    Number of Cartesian functions: 400
    Spherical Harmonics?: true
    Max angular momentum: 5

  Minimum eigenvalue in the overlap matrix is 8.7330138308E-05.
  Using Symmetric Orthogonalization.

  SCF Guess: Superposition of Atomic Densities via on-the-fly atomic UHF.

  ==> Iterations <==

                           Total Energy        Delta E     RMS |[F,P]|

   @DF-RHF iter SAD:   -75.48031167344782   -7.54803e+01   0.00000e+00 
   @DF-RHF iter   1:   -75.98100784106407   -5.00696e-01   2.72920e-03 DIIS
   @DF-RHF iter   2:   -76.03358919217368   -5.25814e-02   1.86678e-03 DIIS
   @DF-RHF iter   3:   -76.06531125785716   -3.17221e-02   1.27211e-04 DIIS
   @DF-RHF iter   4:   -76.06570288193461   -3.91624e-04   3.11782e-05 DIIS
   @DF-RHF iter   5:   -76.06572820182078   -2.53199e-05   7.05887e-06 DIIS
   @DF-RHF iter   6:   -76.06573028270597   -2.08089e-06   1.58763e-06 DIIS
   @DF-RHF iter   7:   -76.06573039945194   -1.16746e-07   2.95382e-07 DIIS
   @DF-RHF iter   8:   -76.06573040300172   -3.54979e-09   4.75776e-08 DIIS
   @DF-RHF iter   9:   -76.06573040307605   -7.43228e-11   1.13990e-08 DIIS
   @DF-RHF iter  10:   -76.06573040308012   -4.07852e-12   1.70920e-09 DIIS
  Energy and wave function converged.


  ==> Post-Iterations <==

    Orbital Energies [Eh]
    ---------------------

    Doubly Occupied:                                                      

       1A    -20.565509     2A     -1.351723     3A     -0.715129  
       4A     -0.585477     5A     -0.510404  

    Virtual:                                                              

       6A      0.026885     7A      0.043101     8A      0.114106  
       9A      0.133479    10A      0.151121    11A      0.158683  
      12A      0.184970    13A      0.197085    14A      0.209340  
      15A      0.237430    16A      0.257062    17A      0.291620  
      18A      0.357679    19A      0.390021    20A      0.469789  
      21A      0.508775    22A      0.542085    23A      0.547623  
      24A      0.556255    25A      0.614342    26A      0.632475  
      27A      0.647288    28A      0.663382    29A      0.665770  
      30A      0.684852    31A      0.706453    32A      0.719029  
      33A      0.769735    34A      0.789125    35A      0.802466  
      36A      0.802907    37A      0.843254    38A      0.854163  
      39A      0.968054    40A      1.123764    41A      1.136543  
      42A      1.209234    43A      1.332160    44A      1.439540  
      45A      1.482287    46A      1.509350    47A      1.513517  
      48A      1.526408    49A      1.554089    50A      1.590350  
      51A      1.620908    52A      1.637823    53A      1.662795  
      54A      1.664119    55A      1.688567    56A      1.702801  
      57A      1.735817    58A      1.752525    59A      1.767092  
      60A      1.776494    61A      1.842771    62A      1.864664  
      63A      1.893921    64A      1.915301    65A      1.981707  
      66A      2.008581    67A      2.033732    68A      2.038795  
      69A      2.099874    70A      2.206602    71A      2.217194  
      72A      2.313519    73A      2.438984    74A      2.627322  
      75A      2.632376    76A      2.887047    77A      2.958886  
      78A      2.995528    79A      3.040059    80A      3.056112  
      81A      3.085777    82A      3.269764    83A      3.301235  
      84A      3.308156    85A      3.491418    86A      3.588621  
      87A      3.643661    88A      3.688117    89A      3.720833  
      90A      3.776419    91A      3.923309    92A      4.078183  
      93A      4.166805    94A      4.167215    95A      4.178096  
      96A      4.178996    97A      4.233705    98A      4.330152  
      99A      4.432355   100A      4.579646   101A      4.725375  
     102A      4.746208   103A      4.781748   104A      4.782059  
     105A      4.808480   106A      4.878087   107A      4.995803  
     108A      5.238043   109A      5.313934   110A      5.522851  
     111A      5.532532   112A      5.858860   113A      5.887549  
     114A      6.073377   115A      6.233567   116A      6.826063  
     117A      6.884286   118A      6.885285   119A      6.910342  
     120A      7.728275   121A      7.780210   122A      7.785052  
     123A      7.823729   124A      7.837468   125A      7.900111  
     126A      7.924808   127A      8.021590   128A      8.176661  
     129A      8.201858   130A      8.531393   131A      8.628604  
     132A      8.648901   133A      8.697739   134A      8.786799  
     135A      8.847025   136A      8.986424   137A      9.041709  
     138A      9.216832   139A      9.665397   140A      9.905923  
     141A      9.907392   142A      9.942196   143A      9.990696  
     144A     10.330744   145A     10.452112   146A     10.679708  
     147A     11.016595   148A     11.077526   149A     11.087667  
     150A     11.269111   151A     11.312346   152A     11.414303  
     153A     11.714030   154A     11.795011   155A     11.831516  
     156A     11.989904   157A     12.202531   158A     12.204874  
     159A     12.619425   160A     12.736810   161A     12.830676  
     162A     12.904463   163A     13.178654   164A     13.996010  
     165A     14.014705   166A     14.503363   167A     14.804907  
     168A     14.898139   169A     15.253235   170A     16.841445  
     171A     17.287635   172A     45.496256  

    Final Occupation by Irrep:
              A 
    DOCC [     5 ]

  @DF-RHF Final Energy:   -76.06573040308012

   => Energetics <=

    Nuclear Repulsion Energy =              9.1672610468959927
    One-Electron Energy =                -123.0094983483434987
    Two-Electron Energy =                  37.7765068983673729
    Total Energy =                        -76.0657304030801384

Computation Completed


Properties will be evaluated at   0.000000,   0.000000,   0.000000 [a0]

Properties computed using the SCF density matrix

  Nuclear Dipole Moment: [e a0]
     X:   -23.9941      Y:    32.9218      Z:    35.7716

  Electronic Dipole Moment: [e a0]
     X:    23.8319      Y:   -32.1847      Z:   -35.9822

  Dipole Moment: [e a0]
     X:    -0.1622      Y:     0.7372      Z:    -0.2106     Total:     0.7836

  Dipole Moment: [D]
     X:    -0.4122      Y:     1.8737      Z:    -0.5354     Total:     1.9918


*** tstop() called on node85.bme.utexas.edu at Thu Apr 16 07:21:34 2020
Module time:
	user time   =      10.27 seconds =       0.17 minutes
	system time =       0.44 seconds =       0.01 minutes
	total time  =          2 seconds =       0.03 minutes
Total time:
	user time   =      10.27 seconds =       0.17 minutes
	system time =       0.44 seconds =       0.01 minutes
	total time  =          2 seconds =       0.03 minutes

*** tstart() called on node85.bme.utexas.edu
*** at Thu Apr 16 07:21:34 2020


  //>>>>>>>>>>>>>>>>>>>>>>>>>>>>>>>>>>>//
  //               DFMP2               //
  //<<<<<<<<<<<<<<<<<<<<<<<<<<<<<<<<<<<//

   => Loading Basis Set <=

    Name: (AUG-CC-PVQZ AUX)
    Role: RIFIT
    Keyword: DF_BASIS_MP2
    atoms 1   entry O          line   332 file /home/liuchw/anaconda3/envs/psi4env/share/psi4/basis/aug-cc-pvqz-ri.gbs 
    atoms 2-3 entry H          line    30 file /home/liuchw/anaconda3/envs/psi4env/share/psi4/basis/aug-cc-pvqz-ri.gbs 

	 --------------------------------------------------------
	                          DF-MP2                         
	      2nd-Order Density-Fitted Moller-Plesset Theory     
	              RMP2 Wavefunction,   8 Threads             
	                                                         
	        Rob Parrish, Justin Turney, Andy Simmonett,      
	           Ed Hohenstein, and C. David Sherrill          
	 --------------------------------------------------------

   => Auxiliary Basis Set <=

  Basis Set: (AUG-CC-PVQZ AUX)
    Blend: AUG-CC-PVQZ-RI
    Number of shells: 76
    Number of basis function: 328
    Number of Cartesian functions: 447
    Spherical Harmonics?: true
    Max angular momentum: 5

	 --------------------------------------------------------
	                 NBF =   172, NAUX =   328
	 --------------------------------------------------------
	   CLASS    FOCC     OCC    AOCC    AVIR     VIR    FVIR
	   PAIRS       0       5       5     167     167       0
	 --------------------------------------------------------

	-----------------------------------------------------------
	 ==================> DF-MP2 Energies <==================== 
	-----------------------------------------------------------
	 Reference Energy          =     -76.0657304030801242 [Eh]
	 Singles Energy            =      -0.0000000000000000 [Eh]
	 Same-Spin Energy          =      -0.0727241846268853 [Eh]
	 Opposite-Spin Energy      =      -0.2442766020155340 [Eh]
	 Correlation Energy        =      -0.3170007866424193 [Eh]
	 Total Energy              =     -76.3827311897225485 [Eh]
	-----------------------------------------------------------
	 ================> DF-SCS-MP2 Energies <================== 
	-----------------------------------------------------------
	 SCS Same-Spin Scale       =       0.3333333333333333 [-]
	 SCS Opposite-Spin Scale   =       1.2000000000000000 [-]
	 SCS Same-Spin Energy      =      -0.0242413948756284 [Eh]
	 SCS Opposite-Spin Energy  =      -0.2931319224186408 [Eh]
	 SCS Correlation Energy    =      -0.3173733172942692 [Eh]
	 SCS Total Energy          =     -76.3831037203743932 [Eh]
	-----------------------------------------------------------


*** tstop() called on node85.bme.utexas.edu at Thu Apr 16 07:21:35 2020
Module time:
	user time   =       4.46 seconds =       0.07 minutes
	system time =       0.14 seconds =       0.00 minutes
	total time  =          1 seconds =       0.02 minutes
Total time:
	user time   =      14.74 seconds =       0.25 minutes
	system time =       0.58 seconds =       0.01 minutes
	total time  =          3 seconds =       0.05 minutes

  //>>>>>>>>>>>>>>>>>>>>>>>>>>>>>>>>>>>>>>>>//
  // CBS Computation: CCSD(T) / AUG-CC-PVDZ //
  //<<<<<<<<<<<<<<<<<<<<<<<<<<<<<<<<<<<<<<<<//


Scratch directory: /scratch/liuchw/

*** tstart() called on node85.bme.utexas.edu
*** at Thu Apr 16 07:21:35 2020

   => Loading Basis Set <=

    Name: AUG-CC-PVDZ
    Role: ORBITAL
    Keyword: BASIS
    atoms 1   entry O          line   254 file /home/liuchw/anaconda3/envs/psi4env/share/psi4/basis/aug-cc-pvdz.gbs 
    atoms 2-3 entry H          line    40 file /home/liuchw/anaconda3/envs/psi4env/share/psi4/basis/aug-cc-pvdz.gbs 


         ---------------------------------------------------------
                                   SCF
               by Justin Turney, Rob Parrish, Andy Simmonett
                          and Daniel G. A. Smith
                              RHF Reference
                        8 Threads,  47683 MiB Core
         ---------------------------------------------------------

  ==> Geometry <==

    Molecular point group: c1
    Full point group: C1

    Geometry (in Angstrom), charge = 0, multiplicity = 1:

       Center              X                  Y                   Z               Mass       
    ------------   -----------------  -----------------  -----------------  -----------------
         O           -1.245253395056     1.630899097773     1.924776613524    15.994914619570
         H           -1.071710395056     2.057726097773     1.081482613524     1.007825032230
         H           -1.663379395056     2.316562097773     2.449821613524     1.007825032230

  Running in c1 symmetry.

  Rotational constants: A =     22.65013  B =      0.11491  C =      0.11433 [cm^-1]
  Rotational constants: A = 679033.90537  B =   3444.77796  C =   3427.39061 [MHz]
  Nuclear repulsion =    9.167261046895993

  Charge       = 0
  Multiplicity = 1
  Electrons    = 10
  Nalpha       = 5
  Nbeta        = 5

  ==> Algorithm <==

  SCF Algorithm Type is DF.
  DIIS enabled.
  MOM disabled.
  Fractional occupation disabled.
  Guess Type is SAD.
  Energy threshold   = 1.00e-07
  Density threshold  = 1.00e-08
  Integral threshold = 0.00e+00

  ==> Primary Basis <==

  Basis Set: AUG-CC-PVDZ
    Blend: AUG-CC-PVDZ
    Number of shells: 19
    Number of basis function: 41
    Number of Cartesian functions: 43
    Spherical Harmonics?: true
    Max angular momentum: 2

   => Loading Basis Set <=

    Name: (AUG-CC-PVDZ AUX)
    Role: JKFIT
    Keyword: DF_BASIS_SCF
    atoms 1   entry O          line   270 file /home/liuchw/anaconda3/envs/psi4env/share/psi4/basis/aug-cc-pvdz-jkfit.gbs 
    atoms 2-3 entry H          line    70 file /home/liuchw/anaconda3/envs/psi4env/share/psi4/basis/aug-cc-pvdz-jkfit.gbs 

  ==> Pre-Iterations <==

   -------------------------------------------------------
    Irrep   Nso     Nmo     Nalpha   Nbeta   Ndocc  Nsocc
   -------------------------------------------------------
     A         41      41       0       0       0       0
   -------------------------------------------------------
    Total      41      41       5       5       5       0
   -------------------------------------------------------

  ==> Integral Setup <==

  DFHelper Memory: AOs need 0.002 GiB; user supplied 34.925 GiB. Using in-core AOs.

  ==> MemDFJK: Density-Fitted J/K Matrices <==

    J tasked:                   Yes
    K tasked:                   Yes
    wK tasked:                   No
    OpenMP threads:               8
    Memory [MiB]:             35762
    Algorithm:                 Core
    Schwarz Cutoff:           1E-12
    Mask sparsity (%):       0.0000
    Fitting Condition:        1E-10

   => Auxiliary Basis Set <=

  Basis Set: (AUG-CC-PVDZ AUX)
    Blend: AUG-CC-PVDZ-JKFIT
    Number of shells: 52
    Number of basis function: 150
    Number of Cartesian functions: 171
    Spherical Harmonics?: true
    Max angular momentum: 3

  Minimum eigenvalue in the overlap matrix is 2.6724978359E-03.
  Using Symmetric Orthogonalization.

  SCF Guess: Superposition of Atomic Densities via on-the-fly atomic UHF.

  ==> Iterations <==

                           Total Energy        Delta E     RMS |[F,P]|

   @DF-RHF iter SAD:   -75.46317545161754   -7.54632e+01   0.00000e+00 
   @DF-RHF iter   1:   -75.95691167554631   -4.93736e-01   1.10496e-02 DIIS
   @DF-RHF iter   2:   -76.01009236742900   -5.31807e-02   7.22243e-03 DIIS
   @DF-RHF iter   3:   -76.04078741158554   -3.06950e-02   5.18490e-04 DIIS
   @DF-RHF iter   4:   -76.04116563470012   -3.78223e-04   1.16532e-04 DIIS
   @DF-RHF iter   5:   -76.04118707715138   -2.14425e-05   2.63492e-05 DIIS
   @DF-RHF iter   6:   -76.04118877796824   -1.70082e-06   5.29877e-06 DIIS
   @DF-RHF iter   7:   -76.04118885068411   -7.27159e-08   8.79131e-07 DIIS
   @DF-RHF iter   8:   -76.04118885253273   -1.84862e-09   1.35787e-07 DIIS
   @DF-RHF iter   9:   -76.04118885257139   -3.86677e-11   3.54288e-08 DIIS
   @DF-RHF iter  10:   -76.04118885257415   -2.75691e-12   4.85651e-09 DIIS
  Energy and wave function converged.


  ==> Post-Iterations <==

    Orbital Energies [Eh]
    ---------------------

    Doubly Occupied:                                                      

       1A    -20.578005     2A     -1.355485     3A     -0.716602  
       4A     -0.586129     5A     -0.509341  

    Virtual:                                                              

       6A      0.035363     7A      0.057996     8A      0.174005  
       9A      0.196894    10A      0.222538    11A      0.231749  
      12A      0.289665    13A      0.331906    14A      0.385903  
      15A      0.402663    16A      0.432604    17A      0.539379  
      18A      0.647669    19A      0.658206    20A      0.809100  
      21A      0.930627    22A      1.101901    23A      1.116363  
      24A      1.148684    25A      1.304242    26A      1.465419  
      27A      1.481727    28A      1.583554    29A      2.003373  
      30A      2.009085    31A      2.109661    32A      2.361783  
      33A      2.477919    34A      2.622948    35A      2.713268  
      36A      2.970959    37A      3.673795    38A      3.691047  
      39A      3.702683    40A      4.020633    41A      4.304296  

    Final Occupation by Irrep:
              A 
    DOCC [     5 ]

  @DF-RHF Final Energy:   -76.04118885257415

   => Energetics <=

    Nuclear Repulsion Energy =              9.1672610468959927
    One-Electron Energy =                -122.9257758151937594
    Two-Electron Energy =                  37.7173259157236060
    Total Energy =                        -76.0411888525741659

Computation Completed


Properties will be evaluated at   0.000000,   0.000000,   0.000000 [a0]

Properties computed using the SCF density matrix

  Nuclear Dipole Moment: [e a0]
     X:   -23.9941      Y:    32.9218      Z:    35.7716

  Electronic Dipole Moment: [e a0]
     X:    23.8304      Y:   -32.1780      Z:   -35.9841

  Dipole Moment: [e a0]
     X:    -0.1636      Y:     0.7439      Z:    -0.2125     Total:     0.7907

  Dipole Moment: [D]
     X:    -0.4159      Y:     1.8907      Z:    -0.5402     Total:     2.0099


*** tstop() called on node85.bme.utexas.edu at Thu Apr 16 07:21:36 2020
Module time:
	user time   =       7.57 seconds =       0.13 minutes
	system time =       0.28 seconds =       0.00 minutes
	total time  =          1 seconds =       0.02 minutes
Total time:
	user time   =      22.36 seconds =       0.37 minutes
	system time =       0.87 seconds =       0.01 minutes
	total time  =          4 seconds =       0.07 minutes
 MINTS: Wrapper to libmints.
   by Justin Turney

   Calculation information:
      Number of threads:                 8
      Number of atoms:                   3
      Number of AO shells:              19
      Number of SO shells:              19
      Number of primitives:             39
      Number of atomic orbitals:        43
      Number of basis functions:        41

      Number of irreps:                  1
      Integral cutoff                 0.00e+00
      Number of functions per irrep: [  41 ]

 OEINTS: Overlap, kinetic, potential, dipole, and quadrupole integrals
         stored in file 35.

      Computing two-electron integrals...done
      Computed 345482 non-zero two-electron integrals.
        Stored in file 33.


*** tstart() called on node85.bme.utexas.edu
*** at Thu Apr 16 07:21:36 2020


	Wfn Parameters:
	--------------------
	Wavefunction         = CCSD_T
	Number of irreps     = 1
	Number of MOs        = 41
	Number of active MOs = 41
	AO-Basis             = NONE
	Semicanonical        = false
	Reference            = RHF
	Print Level          = 1

	IRREP	# MOs	# FZDC	# DOCC	# SOCC	# VIRT	# FZVR
	-----	-----	------	------	------	------	------
	 A	   41	    0	    5	    0	    36	    0
	Transforming integrals...
	IWL integrals will be deleted.
	(OO|OO)...
	Presorting SO-basis two-electron integrals.
	Sorting File: SO Ints (nn|nn) nbuckets = 1
	Transforming the one-electron integrals and constructing Fock matrices
	Starting first half-transformation.
	Sorting half-transformed integrals.
	First half integral transformation complete.
	Starting second half-transformation.
	Two-electron integral transformation complete.
	(OO|OV)...
	Starting second half-transformation.
	Two-electron integral transformation complete.
	(OO|VV)...
	Starting second half-transformation.
	Two-electron integral transformation complete.
	(OV|OO)...
	Starting first half-transformation.
	Sorting half-transformed integrals.
	First half integral transformation complete.
	Starting second half-transformation.
	Two-electron integral transformation complete.
	(OV|OV)...
	Starting second half-transformation.
	Two-electron integral transformation complete.
	(OV|VV)...
	Starting second half-transformation.
	Two-electron integral transformation complete.
	(VV|OO)...
	Starting first half-transformation.
	Sorting half-transformed integrals.
	First half integral transformation complete.
	Starting second half-transformation.
	Two-electron integral transformation complete.
	(VV|OV)...
	Starting second half-transformation.
	Two-electron integral transformation complete.
	(VV|VV)...
	Starting second half-transformation.
	Two-electron integral transformation complete.
	Frozen core energy     =      0.00000000000000

	Size of irrep 0 of <ab|cd> integrals:      1.680 (MW) /     13.437 (MB)
	Total:                                     1.680 (MW) /     13.437 (MB)

	Size of irrep 0 of <ia|bc> integrals:      0.233 (MW) /      1.866 (MB)
	Total:                                     0.233 (MW) /      1.866 (MB)

	Size of irrep 0 of tijab amplitudes:       0.032 (MW) /      0.259 (MB)
	Total:                                     0.032 (MW) /      0.259 (MB)

	Nuclear Rep. energy          =      9.16726104689599
	SCF energy                   =    -76.04118885257415
	One-electron energy          =   -122.92577562444222
	Two-electron energy          =     37.71730541699203
	Reference energy             =    -76.04120916055420

*** tstop() called on node85.bme.utexas.edu at Thu Apr 16 07:21:37 2020
Module time:
	user time   =       5.06 seconds =       0.08 minutes
	system time =       0.29 seconds =       0.00 minutes
	total time  =          1 seconds =       0.02 minutes
Total time:
	user time   =      29.64 seconds =       0.49 minutes
	system time =       1.25 seconds =       0.02 minutes
	total time  =          5 seconds =       0.08 minutes
            **************************
            *                        *
            *        CCENERGY        *
            *                        *
            **************************

    Nuclear Rep. energy (wfn)     =    9.167261046895993
    SCF energy          (wfn)     =  -76.041188852574152
    Reference energy    (file100) =  -76.041209160554203

    Input parameters:
    -----------------
    Wave function   =     CCSD_T
    Reference wfn   =     RHF
    Brueckner       =     No
    Memory (Mbytes) =     50000.0
    Maxiter         =     50
    R_Convergence   =     1.0e-07
    E_Convergence   =     1.0e-07
    Restart         =     Yes
    DIIS            =     Yes
    AO Basis        =     NONE
    ABCD            =     NEW
    Cache Level     =     2
    Cache Type      =     LOW
    Print Level     =     1
    Num. of threads =     8
    # Amps to Print =     10
    Print MP2 Amps? =     No
    Analyze T2 Amps =     No
    Print Pair Ener =     No
    Local CC        =     No
    SCS-MP2         =     False
    SCSN-MP2        =     False
    SCS-CCSD        =     False

MP2 correlation energy -0.2221143927575261
                Solving CC Amplitude Equations
                ------------------------------
  Iter             Energy              RMS        T1Diag      D1Diag    New D1Diag    D2Diag
  ----     ---------------------    ---------   ----------  ----------  ----------   --------
     0        -0.222114392757526    0.000e+00    0.000000    0.000000    0.000000    0.114290
     1        -0.223988187292784    3.836e-02    0.009115    0.021101    0.021101    0.119108
     2        -0.228327569506946    1.289e-02    0.009181    0.021523    0.021523    0.123722
     3        -0.229674151198029    5.448e-03    0.010727    0.025616    0.025616    0.126006
     4        -0.229600999451173    1.001e-03    0.010910    0.026237    0.026237    0.126153
     5        -0.229606810350921    3.329e-04    0.010972    0.026476    0.026476    0.126181
     6        -0.229611671853433    8.945e-05    0.010991    0.026556    0.026556    0.126178
     7        -0.229609933240122    2.745e-05    0.010994    0.026571    0.026571    0.126171
     8        -0.229609602170746    7.888e-06    0.010995    0.026576    0.026576    0.126169
     9        -0.229609695752416    2.679e-06    0.010995    0.026577    0.026577    0.126169
    10        -0.229609568254872    9.123e-07    0.010995    0.026577    0.026577    0.126169
    11        -0.229609577203341    3.029e-07    0.010995    0.026577    0.026577    0.126169
    12        -0.229609571521290    1.229e-07    0.010995    0.026577    0.026577    0.126169
    13        -0.229609573532697    3.356e-08    0.010995    0.026577    0.026577    0.126169

    Iterations converged.


    Largest TIA Amplitudes:
              4   3        -0.0215072161
              4  10        -0.0155504960
              3   2         0.0120869015
              3   9        -0.0116650083
              2  27         0.0075760336
              1   4         0.0045328072
              2   6        -0.0043080211
              3   0        -0.0042284264
              3  28        -0.0040129466
              1  28        -0.0035590063

    Largest TIjAb Amplitudes:
      4   4  21  21        -0.0347064292
      2   2  14  14        -0.0259388693
      3   3  14  14        -0.0209463804
      3   3  22  22        -0.0203525118
      2   2   6   6        -0.0199223230
      2   2   6  14         0.0190198846
      2   2  14   6         0.0190198846
      4   4   3  21        -0.0184645059
      4   4  21   3        -0.0184645059
      4   4   3   3        -0.0181834806

    SCF energy       (wfn)                    =  -76.041188852574152
    Reference energy (file100)                =  -76.041209160554203

    Opposite-spin MP2 correlation energy      =   -0.165365131837535
    Same-spin MP2 correlation energy          =   -0.056749260919991
    MP2 correlation energy                    =   -0.222114392757526
      * MP2 total energy                      =  -76.263323553311736

    Opposite-spin CCSD correlation energy     =   -0.179416968718870
    Same-spin CCSD correlation energy         =   -0.050192604813827
    CCSD correlation energy                   =   -0.229609573532697
      * CCSD total energy                     =  -76.270818734086902

            **************************
            *                        *
            *        CCTRIPLES       *
            *                        *
            **************************


    Wave function   =    CCSD_T
    Reference wfn   =      RHF

    Nuclear Rep. energy (wfn)                =    9.167261046895993
    SCF energy          (wfn)                =  -76.041188852574152
    Reference energy    (file100)            =  -76.041209160554203
    CCSD energy         (file100)            =   -0.229609573532697
    Total CCSD energy   (file100)            =  -76.270818734086902

    Number of ijk index combinations:               35
    Memory available in words        :      6250000000
    ~Words needed per explicit thread:          186624
    Number of threads for explicit ijk threading:    8

    MKL num_threads set to 1 for explicit threading.

    (T) energy                                =   -0.005257661173686
      * CCSD(T) total energy                  =  -76.276076395260588


  //>>>>>>>>>>>>>>>>>>>>>>>>>>>>>>>>>>>>>>>>//
  // CBS Computation: CCSD(T) / AUG-CC-PVTZ //
  //<<<<<<<<<<<<<<<<<<<<<<<<<<<<<<<<<<<<<<<<//


Scratch directory: /scratch/liuchw/

*** tstart() called on node85.bme.utexas.edu
*** at Thu Apr 16 07:21:43 2020

   => Loading Basis Set <=

    Name: AUG-CC-PVTZ
    Role: ORBITAL
    Keyword: BASIS
    atoms 1   entry O          line   331 file /home/liuchw/anaconda3/envs/psi4env/share/psi4/basis/aug-cc-pvtz.gbs 
    atoms 2-3 entry H          line    40 file /home/liuchw/anaconda3/envs/psi4env/share/psi4/basis/aug-cc-pvtz.gbs 


         ---------------------------------------------------------
                                   SCF
               by Justin Turney, Rob Parrish, Andy Simmonett
                          and Daniel G. A. Smith
                              RHF Reference
                        8 Threads,  47683 MiB Core
         ---------------------------------------------------------

  ==> Geometry <==

    Molecular point group: c1
    Full point group: C1

    Geometry (in Angstrom), charge = 0, multiplicity = 1:

       Center              X                  Y                   Z               Mass       
    ------------   -----------------  -----------------  -----------------  -----------------
         O           -1.245253395056     1.630899097773     1.924776613524    15.994914619570
         H           -1.071710395056     2.057726097773     1.081482613524     1.007825032230
         H           -1.663379395056     2.316562097773     2.449821613524     1.007825032230

  Running in c1 symmetry.

  Rotational constants: A =     22.65013  B =      0.11491  C =      0.11433 [cm^-1]
  Rotational constants: A = 679033.90537  B =   3444.77796  C =   3427.39061 [MHz]
  Nuclear repulsion =    9.167261046895993

  Charge       = 0
  Multiplicity = 1
  Electrons    = 10
  Nalpha       = 5
  Nbeta        = 5

  ==> Algorithm <==

  SCF Algorithm Type is DF.
  DIIS enabled.
  MOM disabled.
  Fractional occupation disabled.
  Guess Type is SAD.
  Energy threshold   = 1.00e-07
  Density threshold  = 1.00e-08
  Integral threshold = 0.00e+00

  ==> Primary Basis <==

  Basis Set: AUG-CC-PVTZ
    Blend: AUG-CC-PVTZ
    Number of shells: 32
    Number of basis function: 92
    Number of Cartesian functions: 105
    Spherical Harmonics?: true
    Max angular momentum: 3

   => Loading Basis Set <=

    Name: (AUG-CC-PVTZ AUX)
    Role: JKFIT
    Keyword: DF_BASIS_SCF
    atoms 1   entry O          line   286 file /home/liuchw/anaconda3/envs/psi4env/share/psi4/basis/aug-cc-pvtz-jkfit.gbs 
    atoms 2-3 entry H          line    70 file /home/liuchw/anaconda3/envs/psi4env/share/psi4/basis/aug-cc-pvtz-jkfit.gbs 

  ==> Pre-Iterations <==

   -------------------------------------------------------
    Irrep   Nso     Nmo     Nalpha   Nbeta   Ndocc  Nsocc
   -------------------------------------------------------
     A         92      92       0       0       0       0
   -------------------------------------------------------
    Total      92      92       5       5       5       0
   -------------------------------------------------------

  ==> Integral Setup <==

  DFHelper Memory: AOs need 0.015 GiB; user supplied 34.925 GiB. Using in-core AOs.

  ==> MemDFJK: Density-Fitted J/K Matrices <==

    J tasked:                   Yes
    K tasked:                   Yes
    wK tasked:                   No
    OpenMP threads:               8
    Memory [MiB]:             35762
    Algorithm:                 Core
    Schwarz Cutoff:           1E-12
    Mask sparsity (%):       0.0000
    Fitting Condition:        1E-10

   => Auxiliary Basis Set <=

  Basis Set: (AUG-CC-PVTZ AUX)
    Blend: AUG-CC-PVTZ-JKFIT
    Number of shells: 58
    Number of basis function: 196
    Number of Cartesian functions: 241
    Spherical Harmonics?: true
    Max angular momentum: 4

  Minimum eigenvalue in the overlap matrix is 3.8803619972E-04.
  Using Symmetric Orthogonalization.

  SCF Guess: Superposition of Atomic Densities via on-the-fly atomic UHF.

  ==> Iterations <==

                           Total Energy        Delta E     RMS |[F,P]|

   @DF-RHF iter SAD:   -75.47517070718355   -7.54752e+01   0.00000e+00 
   @DF-RHF iter   1:   -75.97593154024837   -5.00761e-01   5.09149e-03 DIIS
   @DF-RHF iter   2:   -76.02841269291405   -5.24812e-02   3.47472e-03 DIIS
   @DF-RHF iter   3:   -76.05993569544252   -3.15230e-02   2.36042e-04 DIIS
   @DF-RHF iter   4:   -76.06032523253711   -3.89537e-04   5.65869e-05 DIIS
   @DF-RHF iter   5:   -76.06034965342688   -2.44209e-05   1.28557e-05 DIIS
   @DF-RHF iter   6:   -76.06035165212553   -1.99870e-06   2.81386e-06 DIIS
   @DF-RHF iter   7:   -76.06035175739332   -1.05268e-07   5.06131e-07 DIIS
   @DF-RHF iter   8:   -76.06035176038688   -2.99356e-09   8.48792e-08 DIIS
   @DF-RHF iter   9:   -76.06035176045266   -6.57820e-11   2.08147e-08 DIIS
   @DF-RHF iter  10:   -76.06035176045654   -3.87956e-12   3.06384e-09 DIIS
  Energy and wave function converged.


  ==> Post-Iterations <==

    Orbital Energies [Eh]
    ---------------------

    Doubly Occupied:                                                      

       1A    -20.567962     2A     -1.352452     3A     -0.715163  
       4A     -0.585429     5A     -0.510272  

    Virtual:                                                              

       6A      0.029365     7A      0.047706     8A      0.135863  
       9A      0.158749    10A      0.175223    11A      0.183107  
      12A      0.227176    13A      0.244996    14A      0.265467  
      15A      0.299933    16A      0.310092    17A      0.365855  
      18A      0.437582    19A      0.466257    20A      0.599173  
      21A      0.658736    22A      0.707936    23A      0.722784  
      24A      0.731685    25A      0.831052    26A      0.846630  
      27A      0.892101    28A      0.912765    29A      0.918047  
      30A      0.922633    31A      0.931042    32A      0.961327  
      33A      1.021292    34A      1.043461    35A      1.082676  
      36A      1.108596    37A      1.176674    38A      1.182431  
      39A      1.260680    40A      1.510501    41A      1.534055  
      42A      1.583006    43A      1.805048    44A      1.822457  
      45A      1.984867    46A      2.118631    47A      2.263169  
      48A      2.316171    49A      2.326857    50A      2.418746  
      51A      2.421330    52A      2.443389    53A      2.480119  
      54A      2.676408    55A      2.697963    56A      2.772481  
      57A      2.814603    58A      2.884782    59A      3.654458  
      60A      3.741523    61A      4.019850    62A      4.084077  
      63A      4.163110    64A      4.249998    65A      4.286441  
      66A      4.373307    67A      4.377854    68A      4.406259  
      69A      4.519332    70A      4.726967    71A      4.846555  
      72A      5.151418    73A      5.151824    74A      5.250720  
      75A      5.326993    76A      5.525598    77A      5.663119  
      78A      6.181338    79A      6.515690    80A      6.714827  
      81A      6.906061    82A      7.136898    83A      7.259122  
      84A      7.302909    85A      7.318659    86A      7.336700  
      87A      7.361187    88A      7.537403    89A      7.901156  
      90A      7.929373    91A      8.811586    92A     15.740364  

    Final Occupation by Irrep:
              A 
    DOCC [     5 ]

  @DF-RHF Final Energy:   -76.06035176045654

   => Energetics <=

    Nuclear Repulsion Energy =              9.1672610468959927
    One-Electron Energy =                -122.9926683134603138
    Two-Electron Energy =                  37.7650555061077782
    Total Energy =                        -76.0603517604565411

Computation Completed


Properties will be evaluated at   0.000000,   0.000000,   0.000000 [a0]

Properties computed using the SCF density matrix

  Nuclear Dipole Moment: [e a0]
     X:   -23.9941      Y:    32.9218      Z:    35.7716

  Electronic Dipole Moment: [e a0]
     X:    23.8317      Y:   -32.1839      Z:   -35.9825

  Dipole Moment: [e a0]
     X:    -0.1623      Y:     0.7380      Z:    -0.2109     Total:     0.7845

  Dipole Moment: [D]
     X:    -0.4126      Y:     1.8757      Z:    -0.5360     Total:     1.9939


*** tstop() called on node85.bme.utexas.edu at Thu Apr 16 07:21:44 2020
Module time:
	user time   =       7.21 seconds =       0.12 minutes
	system time =       0.21 seconds =       0.00 minutes
	total time  =          1 seconds =       0.02 minutes
Total time:
	user time   =      60.32 seconds =       1.01 minutes
	system time =       2.71 seconds =       0.05 minutes
	total time  =         12 seconds =       0.20 minutes
 MINTS: Wrapper to libmints.
   by Justin Turney

   Calculation information:
      Number of threads:                 8
      Number of atoms:                   3
      Number of AO shells:              32
      Number of SO shells:              32
      Number of primitives:             52
      Number of atomic orbitals:       105
      Number of basis functions:        92

      Number of irreps:                  1
      Integral cutoff                 0.00e+00
      Number of functions per irrep: [  92 ]

 OEINTS: Overlap, kinetic, potential, dipole, and quadrupole integrals
         stored in file 35.

      Computing two-electron integrals...done
      Computed 8696689 non-zero two-electron integrals.
        Stored in file 33.


*** tstart() called on node85.bme.utexas.edu
*** at Thu Apr 16 07:21:45 2020


	Wfn Parameters:
	--------------------
	Wavefunction         = CCSD_T
	Number of irreps     = 1
	Number of MOs        = 92
	Number of active MOs = 92
	AO-Basis             = NONE
	Semicanonical        = false
	Reference            = RHF
	Print Level          = 1

	IRREP	# MOs	# FZDC	# DOCC	# SOCC	# VIRT	# FZVR
	-----	-----	------	------	------	------	------
	 A	   92	    0	    5	    0	    87	    0
	Transforming integrals...
	IWL integrals will be deleted.
	(OO|OO)...
	Presorting SO-basis two-electron integrals.
	Sorting File: SO Ints (nn|nn) nbuckets = 1
	Transforming the one-electron integrals and constructing Fock matrices
	Starting first half-transformation.
	Sorting half-transformed integrals.
	First half integral transformation complete.
	Starting second half-transformation.
	Two-electron integral transformation complete.
	(OO|OV)...
	Starting second half-transformation.
	Two-electron integral transformation complete.
	(OO|VV)...
	Starting second half-transformation.
	Two-electron integral transformation complete.
	(OV|OO)...
	Starting first half-transformation.
	Sorting half-transformed integrals.
	First half integral transformation complete.
	Starting second half-transformation.
	Two-electron integral transformation complete.
	(OV|OV)...
	Starting second half-transformation.
	Two-electron integral transformation complete.
	(OV|VV)...
	Starting second half-transformation.
	Two-electron integral transformation complete.
	(VV|OO)...
	Starting first half-transformation.
	Sorting half-transformed integrals.
	First half integral transformation complete.
	Starting second half-transformation.
	Two-electron integral transformation complete.
	(VV|OV)...
	Starting second half-transformation.
	Two-electron integral transformation complete.
	(VV|VV)...
	Starting second half-transformation.
	Two-electron integral transformation complete.
	Frozen core energy     =      0.00000000000000

	Size of irrep 0 of <ab|cd> integrals:     57.290 (MW) /    458.318 (MB)
	Total:                                    57.290 (MW) /    458.318 (MB)

	Size of irrep 0 of <ia|bc> integrals:      3.293 (MW) /     26.340 (MB)
	Total:                                     3.293 (MW) /     26.340 (MB)

	Size of irrep 0 of tijab amplitudes:       0.189 (MW) /      1.514 (MB)
	Total:                                     0.189 (MW) /      1.514 (MB)

	Nuclear Rep. energy          =      9.16726104689599
	SCF energy                   =    -76.06035176045654
	One-electron energy          =   -122.99266798391089
	Two-electron energy          =     37.76504829220509
	Reference energy             =    -76.06035864480981

*** tstop() called on node85.bme.utexas.edu at Thu Apr 16 07:21:52 2020
Module time:
	user time   =      24.92 seconds =       0.42 minutes
	system time =       2.68 seconds =       0.04 minutes
	total time  =          7 seconds =       0.12 minutes
Total time:
	user time   =      88.76 seconds =       1.48 minutes
	system time =       5.62 seconds =       0.09 minutes
	total time  =         20 seconds =       0.33 minutes
            **************************
            *                        *
            *        CCENERGY        *
            *                        *
            **************************

    Nuclear Rep. energy (wfn)     =    9.167261046895993
    SCF energy          (wfn)     =  -76.060351760456541
    Reference energy    (file100) =  -76.060358644809810

    Input parameters:
    -----------------
    Wave function   =     CCSD_T
    Reference wfn   =     RHF
    Brueckner       =     No
    Memory (Mbytes) =     50000.0
    Maxiter         =     50
    R_Convergence   =     1.0e-07
    E_Convergence   =     1.0e-07
    Restart         =     Yes
    DIIS            =     Yes
    AO Basis        =     NONE
    ABCD            =     NEW
    Cache Level     =     2
    Cache Type      =     LOW
    Print Level     =     1
    Num. of threads =     8
    # Amps to Print =     10
    Print MP2 Amps? =     No
    Analyze T2 Amps =     No
    Print Pair Ener =     No
    Local CC        =     No
    SCS-MP2         =     False
    SCSN-MP2        =     False
    SCS-CCSD        =     False

MP2 correlation energy -0.2837574703761547
                Solving CC Amplitude Equations
                ------------------------------
  Iter             Energy              RMS        T1Diag      D1Diag    New D1Diag    D2Diag
  ----     ---------------------    ---------   ----------  ----------  ----------   --------
     0        -0.283757470376155    0.000e+00    0.000000    0.000000    0.000000    0.117758
     1        -0.282113307033132    3.538e-02    0.007588    0.017087    0.017087    0.120331
     2        -0.287127588717354    1.241e-02    0.007440    0.016898    0.016898    0.124769
     3        -0.288461417886561    4.842e-03    0.008629    0.020132    0.020132    0.126886
     4        -0.288325030068949    1.022e-03    0.008785    0.020598    0.020598    0.127055
     5        -0.288339125401486    3.704e-04    0.008869    0.020894    0.020894    0.127106
     6        -0.288344556031723    9.101e-05    0.008890    0.020974    0.020974    0.127101
     7        -0.288342450633385    3.037e-05    0.008894    0.020992    0.020992    0.127093
     8        -0.288342108906270    8.378e-06    0.008895    0.020998    0.020998    0.127091
     9        -0.288342181747666    2.605e-06    0.008895    0.020999    0.020999    0.127091
    10        -0.288342019550619    9.801e-07    0.008896    0.021000    0.021000    0.127091
    11        -0.288342038498591    3.055e-07    0.008896    0.020999    0.020999    0.127091
    12        -0.288342031323021    1.258e-07    0.008896    0.020999    0.020999    0.127091
    13        -0.288342031833021    4.047e-08    0.008896    0.020999    0.020999    0.127091

    Iterations converged.


    Largest TIA Amplitudes:
              4   3        -0.0148119911
              4   9        -0.0128357793
              3   2         0.0082025829
              3  10        -0.0076427286
              2  39         0.0055341204
              4  56         0.0043947844
              2  28         0.0039579088
              2  65         0.0036797448
              4  20        -0.0035245832
              3  64         0.0034698403

    Largest TIjAb Amplitudes:
      2   2  13  13        -0.0215260787
      3   3  21  21        -0.0198596218
      4   4  29  29        -0.0156106518
      2   2  13  28         0.0155561263
      2   2  28  13         0.0155561263
      2   2  14  14        -0.0148737413
      3   3  14  14        -0.0137637817
      4   4  23  23        -0.0134050936
      2   2  28  28        -0.0132467693
      2   3  13  21        -0.0128146098

    SCF energy       (wfn)                    =  -76.060351760456541
    Reference energy (file100)                =  -76.060358644809810

    Opposite-spin MP2 correlation energy      =   -0.215379621331003
    Same-spin MP2 correlation energy          =   -0.068377849045152
    MP2 correlation energy                    =   -0.283757470376155
      * MP2 total energy                      =  -76.344116115185969

    Opposite-spin CCSD correlation energy     =   -0.227375007712589
    Same-spin CCSD correlation energy         =   -0.060967024120433
    CCSD correlation energy                   =   -0.288342031833021
      * CCSD total energy                     =  -76.348700676642835

            **************************
            *                        *
            *        CCTRIPLES       *
            *                        *
            **************************


    Wave function   =    CCSD_T
    Reference wfn   =      RHF

    Nuclear Rep. energy (wfn)                =    9.167261046895993
    SCF energy          (wfn)                =  -76.060351760456541
    Reference energy    (file100)            =  -76.060358644809810
    CCSD energy         (file100)            =   -0.288342031833021
    Total CCSD energy   (file100)            =  -76.348700676642835

    Number of ijk index combinations:               35
    Memory available in words        :      6250000000
    ~Words needed per explicit thread:         2634012
    Number of threads for explicit ijk threading:    8

    MKL num_threads set to 1 for explicit threading.

    (T) energy                                =   -0.008794672871766
      * CCSD(T) total energy                  =  -76.357495349514593


  //>>>>>>>>>>>>>>>>>>>>>>>>>>>>>>>>>>>//
  //    CBS Results: custom function   //
  //<<<<<<<<<<<<<<<<<<<<<<<<<<<<<<<<<<<//


   ==> HF <==

   HI-zeta (4) Energy:               -76.065730403080


   ==> Helgaker 2-point correlated extrapolation for method: MP2 <==

   LO-zeta (3) Energy:               -76.344116115186
   HI-zeta (4) Energy:               -76.382731189723
   Alpha (exponent) Value:             3.000000000000
   Extrapolated Energy:              -76.410909757628

   @Extrapolated MP2/(T,Q):          -76.410909757628



   ==> Helgaker 2-point correlated extrapolation for method: HF <==

   LO-zeta (3) Energy:               -76.060351760457
   HI-zeta (4) Energy:               -76.065730403080
   Alpha (exponent) Value:             3.000000000000
   Extrapolated Energy:              -76.069655358508

   @Extrapolated HF/(T,Q):           -76.069655358508



   ==> Helgaker 2-point correlated extrapolation for method: CCSD(T) <==

   LO-zeta (2) Energy:               -76.276076395261
   HI-zeta (3) Energy:               -76.357495349515
   Alpha (exponent) Value:             3.000000000000
   Extrapolated Energy:              -76.391777014464

   @Extrapolated CCSD(T)/(D,T):      -76.391777014464



   ==> Helgaker 2-point correlated extrapolation for method: MP2 <==

   LO-zeta (2) Energy:               -76.263323553312
   HI-zeta (3) Energy:               -76.344116115186
   Alpha (exponent) Value:             3.000000000000
   Extrapolated Energy:              -76.378134035975

   @Extrapolated MP2/(D,T):          -76.378134035975


   ==> Components <==

  ---------------------------------------------------------------------------------------------------------
                          Method / Basis                      Rqd      Energy [Eh]   Variable
  ---------------------------------------------------------------------------------------------------------
                              hf / aug-cc-pvqz                  *     -76.06573040   HF TOTAL ENERGY
                             mp2 / aug-cc-pvqz                  *     -76.38273119   MP2 TOTAL ENERGY
                              hf / aug-cc-pvdz                        -76.04118885   HF TOTAL ENERGY
                             mp2 / aug-cc-pvdz                  *     -76.26332355   MP2 TOTAL ENERGY
                            ccsd / aug-cc-pvdz                        -76.27081873   CCSD TOTAL ENERGY
                         ccsd(t) / aug-cc-pvdz                  *     -76.27607640   CCSD(T) TOTAL ENERGY
                              hf / aug-cc-pvtz                  *     -76.06035176   HF TOTAL ENERGY
                             mp2 / aug-cc-pvtz                  *     -76.34411612   MP2 TOTAL ENERGY
                            ccsd / aug-cc-pvtz                        -76.34870068   CCSD TOTAL ENERGY
                         ccsd(t) / aug-cc-pvtz                  *     -76.35749535   CCSD(T) TOTAL ENERGY
  ---------------------------------------------------------------------------------------------------------

   ==> Stages <==

  ---------------------------------------------------------------------------------------------------------
      Stage               Method / Basis                       Wt      Energy [Eh]   Scheme
  ---------------------------------------------------------------------------------------------------------
        scf                   hf / aug-cc-pvqz                  1     -76.06573040   xtpl_highest_1
       corl                  mp2 / aug-cc-pv[tq]z               1     -76.41090976   corl_xtpl_helgaker_2
       corl                   hf / aug-cc-pv[tq]z              -1     -76.06965536   corl_xtpl_helgaker_2
     delta1              ccsd(t) / aug-cc-pv[dt]z               1     -76.39177701   corl_xtpl_helgaker_2
     delta1                  mp2 / aug-cc-pv[dt]z              -1     -76.37813404   corl_xtpl_helgaker_2
  ---------------------------------------------------------------------------------------------------------

   ==> CBS <==

  ---------------------------------------------------------------------------------------------------------
      Stage               Method / Basis                               Energy [Eh]   Scheme
  ---------------------------------------------------------------------------------------------------------
        scf                   hf / aug-cc-pvqz                        -76.06573040   xtpl_highest_1
       corl                  mp2 / aug-cc-pv[tq]z                      -0.34125440   corl_xtpl_helgaker_2
     delta1        ccsd(t) - mp2 / aug-cc-pv[dt]z                      -0.01364298   corl_xtpl_helgaker_2
      total                  CBS                                      -76.42062778   
  ---------------------------------------------------------------------------------------------------------
   => Loading Basis Set <=

    Name: DEF2-SVP
    Role: ORBITAL
    Keyword: BASIS
    atoms 1   entry O          line   130 file /home/liuchw/anaconda3/envs/psi4env/share/psi4/basis/def2-svp.gbs 
    atoms 2-3 entry H          line    15 file /home/liuchw/anaconda3/envs/psi4env/share/psi4/basis/def2-svp.gbs 


       N-Body: Complex Energy (fragments = (2,), basis = (2,):   -76.42062778068811)

       N-Body: Computing complex (2/4) with fragments (2,) in the basis of fragments (1, 2).


Scratch directory: /scratch/liuchw/

  //>>>>>>>>>>>>>>>>>>>>>>>>>>>>>>>>>>>//
  //     CBS Setup: custom function    //
  //<<<<<<<<<<<<<<<<<<<<<<<<<<<<<<<<<<<//

    Naive listing of computations required.
             hf / aug-cc-pvqz              for  HF TOTAL ENERGY
            mp2 / aug-cc-pvtz              for  MP2 TOTAL ENERGY
            mp2 / aug-cc-pvqz              for  MP2 TOTAL ENERGY
             hf / aug-cc-pvtz              for  HF TOTAL ENERGY
             hf / aug-cc-pvqz              for  HF TOTAL ENERGY
        ccsd(t) / aug-cc-pvdz              for  CCSD(T) TOTAL ENERGY
        ccsd(t) / aug-cc-pvtz              for  CCSD(T) TOTAL ENERGY
            mp2 / aug-cc-pvdz              for  MP2 TOTAL ENERGY
            mp2 / aug-cc-pvtz              for  MP2 TOTAL ENERGY

    Enlightened listing of computations required.
            mp2 / aug-cc-pvqz              for  MP2 TOTAL ENERGY
        ccsd(t) / aug-cc-pvdz              for  CCSD(T) TOTAL ENERGY
        ccsd(t) / aug-cc-pvtz              for  CCSD(T) TOTAL ENERGY

    Full listing of computations to be obtained (required and bonus).
             hf / aug-cc-pvqz              for  HF TOTAL ENERGY
            mp2 / aug-cc-pvqz              for  MP2 TOTAL ENERGY
             hf / aug-cc-pvdz              for  HF TOTAL ENERGY
            mp2 / aug-cc-pvdz              for  MP2 TOTAL ENERGY
           ccsd / aug-cc-pvdz              for  CCSD TOTAL ENERGY
        ccsd(t) / aug-cc-pvdz              for  CCSD(T) TOTAL ENERGY
             hf / aug-cc-pvtz              for  HF TOTAL ENERGY
            mp2 / aug-cc-pvtz              for  MP2 TOTAL ENERGY
           ccsd / aug-cc-pvtz              for  CCSD TOTAL ENERGY
        ccsd(t) / aug-cc-pvtz              for  CCSD(T) TOTAL ENERGY

  //>>>>>>>>>>>>>>>>>>>>>>>>>>>>>>>>>>>>//
  // CBS Computation: MP2 / AUG-CC-PVQZ //
  //<<<<<<<<<<<<<<<<<<<<<<<<<<<<<<<<<<<<//


Scratch directory: /scratch/liuchw/

*** tstart() called on node85.bme.utexas.edu
*** at Thu Apr 16 07:22:04 2020

   => Loading Basis Set <=

    Name: AUG-CC-PVQZ
    Role: ORBITAL
    Keyword: BASIS
    atoms 1, 4        entry C          line   303 file /home/liuchw/anaconda3/envs/psi4env/share/psi4/basis/aug-cc-pvqz.gbs 
    atoms 2, 11       entry O          line   423 file /home/liuchw/anaconda3/envs/psi4env/share/psi4/basis/aug-cc-pvqz.gbs 
    atoms 3           entry S          line  1126 file /home/liuchw/anaconda3/envs/psi4env/share/psi4/basis/aug-cc-pvqz.gbs 
    atoms 5-10, 12-13 entry H          line    40 file /home/liuchw/anaconda3/envs/psi4env/share/psi4/basis/aug-cc-pvqz.gbs 


         ---------------------------------------------------------
                                   SCF
               by Justin Turney, Rob Parrish, Andy Simmonett
                          and Daniel G. A. Smith
                              RHF Reference
                        8 Threads,  47683 MiB Core
         ---------------------------------------------------------

  ==> Geometry <==

    Molecular point group: c1
    Full point group: C1

    Geometry (in Angstrom), charge = 0, multiplicity = 1:

       Center              X                  Y                   Z               Mass       
    ------------   -----------------  -----------------  -----------------  -----------------
      Gh(C)          -1.088636395056    -1.141877902227    -0.074838386476    12.000000000000
      Gh(O)           0.830478604944    -0.501900902227    -1.798764386476    15.994914619570
      Gh(S)           0.194214604944     0.031130097773    -0.551239386476    31.972071174400
      Gh(C)           1.305213604944    -0.361505902227     0.812628613524    12.000000000000
      Gh(H)          -1.501436395056    -0.853931902227     0.889208613524     1.007825032230
      Gh(H)          -1.854849395056    -1.098819902227    -0.844422386476     1.007825032230
      Gh(H)          -0.645555395056    -2.135666902227    -0.049755386476     1.007825032230
      Gh(H)           0.830560604944    -0.093742902227     1.753749613524     1.007825032230
      Gh(H)           1.541801604944    -1.422609902227     0.761139613524     1.007825032230
      Gh(H)           2.207366604944     0.225430097773     0.661553613524     1.007825032230
         O           -1.245253395056     1.630899097773     1.924776613524    15.994914619570
         H           -1.071710395056     2.057726097773     1.081482613524     1.007825032230
         H           -1.663379395056     2.316562097773     2.449821613524     1.007825032230

  Running in c1 symmetry.

  Rotational constants: A =      0.17487  B =      0.06636  C =      0.06093 [cm^-1]
  Rotational constants: A =   5242.41786  B =   1989.44696  C =   1826.77787 [MHz]
  Nuclear repulsion =    9.167261046895993

  Charge       = 0
  Multiplicity = 1
  Electrons    = 10
  Nalpha       = 5
  Nbeta        = 5

  ==> Algorithm <==

  SCF Algorithm Type is DF.
  DIIS enabled.
  MOM disabled.
  Fractional occupation disabled.
  Guess Type is SAD.
  Energy threshold   = 1.00e-07
  Density threshold  = 1.00e-08
  Integral threshold = 0.00e+00

  ==> Primary Basis <==

  Basis Set: AUG-CC-PVQZ
    Blend: AUG-CC-PVQZ
    Number of shells: 214
    Number of basis function: 772
    Number of Cartesian functions: 969
    Spherical Harmonics?: true
    Max angular momentum: 4

   => Loading Basis Set <=

    Name: (AUG-CC-PVQZ AUX)
    Role: JKFIT
    Keyword: DF_BASIS_SCF
    atoms 1, 4        entry C          line   178 file /home/liuchw/anaconda3/envs/psi4env/share/psi4/basis/aug-cc-pvqz-jkfit.gbs 
    atoms 2, 11       entry O          line   318 file /home/liuchw/anaconda3/envs/psi4env/share/psi4/basis/aug-cc-pvqz-jkfit.gbs 
    atoms 3           entry S          line   810 file /home/liuchw/anaconda3/envs/psi4env/share/psi4/basis/aug-cc-pvqz-jkfit.gbs 
    atoms 5-10, 12-13 entry H          line    70 file /home/liuchw/anaconda3/envs/psi4env/share/psi4/basis/aug-cc-pvqz-jkfit.gbs 

  ==> Pre-Iterations <==

   -------------------------------------------------------
    Irrep   Nso     Nmo     Nalpha   Nbeta   Ndocc  Nsocc
   -------------------------------------------------------
     A        772     772       0       0       0       0
   -------------------------------------------------------
    Total     772     772       5       5       5       0
   -------------------------------------------------------

  ==> Integral Setup <==

  DFHelper Memory: AOs need 5.826 GiB; user supplied 34.925 GiB. Using in-core AOs.

  ==> MemDFJK: Density-Fitted J/K Matrices <==

    J tasked:                   Yes
    K tasked:                   Yes
    wK tasked:                   No
    OpenMP threads:               8
    Memory [MiB]:             35762
    Algorithm:                 Core
    Schwarz Cutoff:           1E-12
    Mask sparsity (%):       6.7666
    Fitting Condition:        1E-10

   => Auxiliary Basis Set <=

  Basis Set: (AUG-CC-PVQZ AUX)
    Blend: AUG-CC-PVQZ-JKFIT
    Number of shells: 326
    Number of basis function: 1360
    Number of Cartesian functions: 1847
    Spherical Harmonics?: true
    Max angular momentum: 5

  Minimum eigenvalue in the overlap matrix is 4.7569678484E-06.
  Using Symmetric Orthogonalization.

  SCF Guess: Superposition of Atomic Densities via on-the-fly atomic UHF.

  ==> Iterations <==

                           Total Energy        Delta E     RMS |[F,P]|

   @DF-RHF iter SAD:   -75.48031164379194   -7.54803e+01   0.00000e+00 
   @DF-RHF iter   1:   -75.98103848606621   -5.00727e-01   6.08079e-04 DIIS
   @DF-RHF iter   2:   -76.03362460686508   -5.25861e-02   4.15937e-04 DIIS
   @DF-RHF iter   3:   -76.06534578474236   -3.17212e-02   2.83456e-05 DIIS
   @DF-RHF iter   4:   -76.06573748330869   -3.91699e-04   6.94695e-06 DIIS
   @DF-RHF iter   5:   -76.06576280747039   -2.53242e-05   1.57331e-06 DIIS
   @DF-RHF iter   6:   -76.06576489002259   -2.08255e-06   3.53858e-07 DIIS
   @DF-RHF iter   7:   -76.06576500690981   -1.16887e-07   6.59289e-08 DIIS
   @DF-RHF iter   8:   -76.06576501047918   -3.56937e-09   1.06322e-08 DIIS
   @DF-RHF iter   9:   -76.06576501055284   -7.36549e-11   2.54539e-09 DIIS
  Energy and wave function converged.


  ==> Post-Iterations <==

    Orbital Energies [Eh]
    ---------------------

    Doubly Occupied:                                                      

       1A    -20.565467     2A     -1.351688     3A     -0.715098  
       4A     -0.585453     5A     -0.510385  

    Virtual:                                                              

       6A      0.018361     7A      0.032155     8A      0.033900  
       9A      0.038464    10A      0.054276    11A      0.058379  
      12A      0.060073    13A      0.062283    14A      0.062940  
      15A      0.083426    16A      0.095700    17A      0.096716  
      18A      0.105713    19A      0.106518    20A      0.118139  
      21A      0.120813    22A      0.123801    23A      0.128163  
      24A      0.134460    25A      0.144732    26A      0.162819  
      27A      0.165604    28A      0.172868    29A      0.175493  
      30A      0.181767    31A      0.187035    32A      0.189067  
      33A      0.200120    34A      0.220523    35A      0.229352  
      36A      0.233208    37A      0.236639    38A      0.239552  
      39A      0.247469    40A      0.252386    41A      0.263395  
      42A      0.264740    43A      0.276592    44A      0.276964  
      45A      0.282791    46A      0.290019    47A      0.290423  
      48A      0.293162    49A      0.302056    50A      0.302246  
      51A      0.315045    52A      0.318253    53A      0.329673  
      54A      0.329783    55A      0.343119    56A      0.348249  
      57A      0.360668    58A      0.361027    59A      0.368648  
      60A      0.375122    61A      0.376478    62A      0.379825  
      63A      0.392410    64A      0.400956    65A      0.401271  
      66A      0.406365    67A      0.416528    68A      0.428406  
      69A      0.435760    70A      0.439481    71A      0.442042  
      72A      0.444354    73A      0.448629    74A      0.453508  
      75A      0.465858    76A      0.474740    77A      0.475138  
      78A      0.489075    79A      0.490432    80A      0.493949  
      81A      0.503322    82A      0.514379    83A      0.515094  
      84A      0.518902    85A      0.523661    86A      0.542780  
      87A      0.546146    88A      0.554839    89A      0.556627  
      90A      0.571851    91A      0.586345    92A      0.590652  
      93A      0.598252    94A      0.600014    95A      0.610394  
      96A      0.631392    97A      0.635464    98A      0.644925  
      99A      0.653100   100A      0.655227   101A      0.662104  
     102A      0.678912   103A      0.687489   104A      0.702565  
     105A      0.721061   106A      0.725191   107A      0.726594  
     108A      0.739588   109A      0.753761   110A      0.758039  
     111A      0.761339   112A      0.771590   113A      0.772072  
     114A      0.780178   115A      0.780997   116A      0.786541  
     117A      0.797654   118A      0.801978   119A      0.808089  
     120A      0.812144   121A      0.813300   122A      0.832002  
     123A      0.832569   124A      0.841916   125A      0.845864  
     126A      0.853281   127A      0.856645   128A      0.869278  
     129A      0.875463   130A      0.880152   131A      0.880783  
     132A      0.888779   133A      0.898274   134A      0.900777  
     135A      0.913586   136A      0.931795   137A      0.936389  
     138A      0.940826   139A      0.945438   140A      0.952504  
     141A      0.961043   142A      0.969840   143A      0.973387  
     144A      0.979152   145A      0.988294   146A      0.990930  
     147A      0.997813   148A      1.006039   149A      1.019792  
     150A      1.032150   151A      1.037961   152A      1.046158  
     153A      1.048708   154A      1.061102   155A      1.064111  
     156A      1.065746   157A      1.078613   158A      1.089414  
     159A      1.104300   160A      1.106531   161A      1.121734  
     162A      1.129341   163A      1.135340   164A      1.139787  
     165A      1.149098   166A      1.151959   167A      1.154863  
     168A      1.168103   169A      1.176383   170A      1.179475  
     171A      1.193736   172A      1.214483   173A      1.228853  
     174A      1.237681   175A      1.244835   176A      1.262520  
     177A      1.278597   178A      1.282311   179A      1.291199  
     180A      1.303044   181A      1.306730   182A      1.326926  
     183A      1.329168   184A      1.336453   185A      1.350042  
     186A      1.358553   187A      1.360641   188A      1.385980  
     189A      1.392215   190A      1.396969   191A      1.402323  
     192A      1.451422   193A      1.454705   194A      1.462643  
     195A      1.488971   196A      1.490954   197A      1.505326  
     198A      1.508361   199A      1.513475   200A      1.522293  
     201A      1.539707   202A      1.548018   203A      1.562848  
     204A      1.581913   205A      1.585525   206A      1.589784  
     207A      1.598943   208A      1.605387   209A      1.610693  
     210A      1.622549   211A      1.628628   212A      1.648490  
     213A      1.652985   214A      1.661891   215A      1.667641  
     216A      1.668180   217A      1.676760   218A      1.689767  
     219A      1.701681   220A      1.721505   221A      1.732515  
     222A      1.739247   223A      1.744572   224A      1.747906  
     225A      1.761175   226A      1.768375   227A      1.785138  
     228A      1.792927   229A      1.807165   230A      1.809652  
     231A      1.814610   232A      1.814720   233A      1.822414  
     234A      1.840337   235A      1.845242   236A      1.853985  
     237A      1.865981   238A      1.872050   239A      1.875173  
     240A      1.876875   241A      1.891329   242A      1.898277  
     243A      1.902565   244A      1.914045   245A      1.929578  
     246A      1.933088   247A      1.936397   248A      1.941908  
     249A      1.942718   250A      1.970209   251A      1.970617  
     252A      1.976923   253A      1.979051   254A      1.984670  
     255A      2.015371   256A      2.025713   257A      2.037918  
     258A      2.043085   259A      2.055093   260A      2.061384  
     261A      2.073995   262A      2.084067   263A      2.087938  
     264A      2.093524   265A      2.096176   266A      2.114603  
     267A      2.119327   268A      2.134887   269A      2.148409  
     270A      2.152161   271A      2.159143   272A      2.166854  
     273A      2.168094   274A      2.182408   275A      2.191905  
     276A      2.200531   277A      2.205651   278A      2.211059  
     279A      2.223506   280A      2.238182   281A      2.244210  
     282A      2.265093   283A      2.267795   284A      2.279141  
     285A      2.282678   286A      2.292437   287A      2.294656  
     288A      2.294749   289A      2.306913   290A      2.335675  
     291A      2.340981   292A      2.363905   293A      2.371508  
     294A      2.372505   295A      2.375490   296A      2.399374  
     297A      2.404495   298A      2.408008   299A      2.422763  
     300A      2.436812   301A      2.440267   302A      2.448623  
     303A      2.478152   304A      2.481711   305A      2.488553  
     306A      2.496121   307A      2.505178   308A      2.511318  
     309A      2.537447   310A      2.543881   311A      2.551372  
     312A      2.564414   313A      2.574115   314A      2.583167  
     315A      2.594706   316A      2.595378   317A      2.615732  
     318A      2.635015   319A      2.643674   320A      2.653983  
     321A      2.656186   322A      2.669986   323A      2.682218  
     324A      2.694483   325A      2.737348   326A      2.750037  
     327A      2.766322   328A      2.777771   329A      2.796864  
     330A      2.798261   331A      2.819389   332A      2.830321  
     333A      2.833628   334A      2.835312   335A      2.868229  
     336A      2.874713   337A      2.887541   338A      2.891662  
     339A      2.906639   340A      2.928579   341A      2.952633  
     342A      2.968055   343A      2.991414   344A      3.001795  
     345A      3.009756   346A      3.016202   347A      3.042984  
     348A      3.068792   349A      3.075914   350A      3.084281  
     351A      3.105832   352A      3.112738   353A      3.132218  
     354A      3.146747   355A      3.150965   356A      3.156851  
     357A      3.174527   358A      3.186056   359A      3.211248  
     360A      3.217153   361A      3.223766   362A      3.248692  
     363A      3.260807   364A      3.280473   365A      3.293031  
     366A      3.306819   367A      3.313746   368A      3.345203  
     369A      3.351498   370A      3.354896   371A      3.369255  
     372A      3.375218   373A      3.388786   374A      3.404185  
     375A      3.413479   376A      3.417797   377A      3.440228  
     378A      3.454069   379A      3.469704   380A      3.483272  
     381A      3.512943   382A      3.513601   383A      3.525909  
     384A      3.555517   385A      3.555560   386A      3.572535  
     387A      3.582566   388A      3.608852   389A      3.622939  
     390A      3.647052   391A      3.654743   392A      3.668452  
     393A      3.684505   394A      3.689162   395A      3.723890  
     396A      3.743581   397A      3.756901   398A      3.767539  
     399A      3.810515   400A      3.812915   401A      3.839772  
     402A      3.846351   403A      3.874044   404A      3.888546  
     405A      3.889327   406A      3.915395   407A      3.920014  
     408A      3.936533   409A      3.940199   410A      3.960456  
     411A      3.975484   412A      4.013570   413A      4.015906  
     414A      4.031824   415A      4.053922   416A      4.075914  
     417A      4.093317   418A      4.106454   419A      4.131473  
     420A      4.134893   421A      4.142357   422A      4.178288  
     423A      4.180504   424A      4.198394   425A      4.200176  
     426A      4.231886   427A      4.247190   428A      4.247507  
     429A      4.266482   430A      4.275732   431A      4.278020  
     432A      4.304589   433A      4.312455   434A      4.339411  
     435A      4.341980   436A      4.359996   437A      4.363280  
     438A      4.377114   439A      4.416115   440A      4.420650  
     441A      4.433749   442A      4.468028   443A      4.505723  
     444A      4.513911   445A      4.531286   446A      4.535321  
     447A      4.568011   448A      4.590872   449A      4.594616  
     450A      4.604311   451A      4.638876   452A      4.658016  
     453A      4.662997   454A      4.695307   455A      4.714092  
     456A      4.716341   457A      4.740189   458A      4.749305  
     459A      4.794272   460A      4.811214   461A      4.822605  
     462A      4.835669   463A      4.843349   464A      4.847651  
     465A      4.867651   466A      4.899910   467A      4.920129  
     468A      4.924047   469A      4.952240   470A      4.956620  
     471A      4.967618   472A      4.969635   473A      4.977344  
     474A      5.025234   475A      5.036187   476A      5.055442  
     477A      5.084260   478A      5.102226   479A      5.108192  
     480A      5.120431   481A      5.143742   482A      5.158390  
     483A      5.249835   484A      5.269914   485A      5.298364  
     486A      5.335187   487A      5.347007   488A      5.356494  
     489A      5.372392   490A      5.390438   491A      5.459899  
     492A      5.475656   493A      5.481900   494A      5.510570  
     495A      5.521031   496A      5.569753   497A      5.585174  
     498A      5.601821   499A      5.607125   500A      5.621550  
     501A      5.643076   502A      5.654227   503A      5.699712  
     504A      5.726796   505A      5.774353   506A      5.787888  
     507A      5.825065   508A      5.847847   509A      5.925990  
     510A      5.952275   511A      5.999653   512A      6.021373  
     513A      6.026635   514A      6.148327   515A      6.152891  
     516A      6.161393   517A      6.221715   518A      6.298977  
     519A      6.379206   520A      6.440946   521A      6.474092  
     522A      6.530438   523A      6.552696   524A      6.764174  
     525A      6.765806   526A      6.814942   527A      6.826825  
     528A      6.868408   529A      6.871652   530A      6.931325  
     531A      6.933298   532A      6.942417   533A      6.958726  
     534A      6.970625   535A      6.977088   536A      6.999037  
     537A      7.011386   538A      7.040070   539A      7.071156  
     540A      7.073936   541A      7.139643   542A      7.173679  
     543A      7.177993   544A      7.199696   545A      7.221596  
     546A      7.248986   547A      7.254452   548A      7.310299  
     549A      7.310965   550A      7.319254   551A      7.352002  
     552A      7.358054   553A      7.371682   554A      7.406074  
     555A      7.418978   556A      7.447123   557A      7.466285  
     558A      7.485902   559A      7.541953   560A      7.546311  
     561A      7.576105   562A      7.613261   563A      7.658889  
     564A      7.697855   565A      7.700406   566A      7.723067  
     567A      7.748519   568A      7.776253   569A      7.793334  
     570A      7.811893   571A      7.828075   572A      7.829391  
     573A      7.833675   574A      7.859810   575A      7.873603  
     576A      7.888802   577A      7.902333   578A      7.966287  
     579A      7.989537   580A      8.007043   581A      8.007094  
     582A      8.022354   583A      8.024572   584A      8.084112  
     585A      8.086533   586A      8.097454   587A      8.102103  
[...]
     315A      4.171064   316A      4.188063   317A      4.192698  
     318A      4.219029   319A      4.239482   320A      4.247945  
     321A      4.260475   322A      4.294406   323A      4.312090  
     324A      4.373384   325A      4.375315   326A      4.409491  
     327A      4.413479   328A      4.468578   329A      4.493533  
     330A      4.496323   331A      4.528544   332A      4.535244  
     333A      4.545102   334A      4.585245   335A      4.595800  
     336A      4.602989   337A      4.622068   338A      4.645680  
     339A      4.707894   340A      4.718717   341A      4.773927  
     342A      4.798717   343A      4.824463   344A      4.841453  
     345A      4.850652   346A      4.867982   347A      4.899132  
     348A      4.930669   349A      4.976044   350A      4.977181  
     351A      5.005555   352A      5.021631   353A      5.041020  
     354A      5.116272   355A      5.153866   356A      5.162321  
     357A      5.188765   358A      5.199793   359A      5.216577  
     360A      5.241827   361A      5.251016   362A      5.276386  
     363A      5.323933   364A      5.330077   365A      5.338455  
     366A      5.378477   367A      5.524984   368A      5.532336  
     369A      5.544441   370A      5.564438   371A      5.619756  
     372A      5.644512   373A      5.704644   374A      5.724848  
     375A      5.774226   376A      5.809788   377A      5.844566  
     378A      5.980786   379A      6.005260   380A      6.079795  
     381A      6.081743   382A      6.089130   383A      6.116073  
     384A      6.241059   385A      6.599602   386A      6.686208  
     387A      6.691349   388A      6.725468   389A      6.742388  
     390A      6.752192   391A      6.778034   392A      6.829314  
     393A      6.903972   394A      6.946931   395A      6.967577  
     396A      6.976108   397A      6.995122   398A      7.040821  
     399A      7.162353   400A      7.284077   401A      7.309086  
     402A      7.326832   403A      7.329313   404A      7.350197  
     405A      7.443024   406A      7.448821   407A      7.565409  
     408A      7.614960   409A      7.654794   410A      7.656822  
     411A      7.930649   412A      7.987968   413A      8.843564  
     414A      9.699504   415A     12.640288   416A     15.962691  
     417A     17.352932   418A     17.446162  

    Final Occupation by Irrep:
              A 
    DOCC [    26 ]

  @DF-RHF Final Energy:  -627.71735350832921

   => Energetics <=

    Nuclear Repulsion Energy =            255.0991324246247416
    One-Electron Energy =               -1371.3707475839064500
    Two-Electron Energy =                 488.5542616509524692
    Total Energy =                       -627.7173535083293245

Computation Completed


Properties will be evaluated at   0.000000,   0.000000,   0.000000 [a0]

Properties computed using the SCF density matrix

  Nuclear Dipole Moment: [e a0]
     X:    -2.0192      Y:    -0.9360      Z:     6.2697

  Electronic Dipole Moment: [e a0]
     X:     1.1963      Y:     1.5824      Z:    -4.6183

  Dipole Moment: [e a0]
     X:    -0.8229      Y:     0.6465      Z:     1.6514     Total:     1.9551

  Dipole Moment: [D]
     X:    -2.0917      Y:     1.6432      Z:     4.1975     Total:     4.9693


*** tstop() called on node85.bme.utexas.edu at Sat Apr 18 10:53:22 2020
Module time:
	user time   =      51.87 seconds =       0.86 minutes
	system time =       1.54 seconds =       0.03 minutes
	total time  =          8 seconds =       0.13 minutes
Total time:
	user time   =  135765.43 seconds =    2262.76 minutes
	system time =   27704.73 seconds =     461.75 minutes
	total time  =     185510 seconds =    3091.83 minutes
 MINTS: Wrapper to libmints.
   by Justin Turney

   Calculation information:
      Number of threads:                 8
      Number of atoms:                  13
      Number of AO shells:             144
      Number of SO shells:             144
      Number of primitives:            272
      Number of atomic orbitals:       479
      Number of basis functions:       418

      Number of irreps:                  1
      Integral cutoff                 0.00e+00
      Number of functions per irrep: [ 418 ]

 OEINTS: Overlap, kinetic, potential, dipole, and quadrupole integrals
         stored in file 35.

      Computing two-electron integrals...done
      Computed 3832141469 non-zero two-electron integrals.
        Stored in file 33.


*** tstart() called on node85.bme.utexas.edu
*** at Sat Apr 18 11:05:27 2020


	Wfn Parameters:
	--------------------
	Wavefunction         = CCSD_T
	Number of irreps     = 1
	Number of MOs        = 418
	Number of active MOs = 418
	AO-Basis             = NONE
	Semicanonical        = false
	Reference            = RHF
	Print Level          = 1

	IRREP	# MOs	# FZDC	# DOCC	# SOCC	# VIRT	# FZVR
	-----	-----	------	------	------	------	------
	 A	   418	    0	    26	    0	    392	    0
	Transforming integrals...
	IWL integrals will be deleted.
	(OO|OO)...
	Presorting SO-basis two-electron integrals.
	Sorting File: SO Ints (nn|nn) nbuckets = 2
	Transforming the one-electron integrals and constructing Fock matrices
	Starting first half-transformation.
	Sorting half-transformed integrals.
	First half integral transformation complete.
	Starting second half-transformation.
	Two-electron integral transformation complete.
	(OO|OV)...
	Starting second half-transformation.
	Two-electron integral transformation complete.
	(OO|VV)...
	Starting second half-transformation.
	Two-electron integral transformation complete.
	(OV|OO)...
	Starting first half-transformation.
	Sorting half-transformed integrals.
	First half integral transformation complete.
	Starting second half-transformation.
	Two-electron integral transformation complete.
	(OV|OV)...
	Starting second half-transformation.
	Two-electron integral transformation complete.
	(OV|VV)...
	Starting second half-transformation.
	Two-electron integral transformation complete.
	(VV|OO)...
	Starting first half-transformation.
	Sorting half-transformed integrals.
	First half integral transformation complete.
	Starting second half-transformation.
	Two-electron integral transformation complete.
	(VV|OV)...
	Starting second half-transformation.
	Two-electron integral transformation complete.
	(VV|VV)...
	Starting second half-transformation.
	Two-electron integral transformation complete.
	Frozen core energy     =      0.00000000000000

	Size of irrep 0 of <ab|cd> integrals:  23612.625 (MW) / 188900.999 (MB)
	Total:                                 23612.625 (MW) / 188900.999 (MB)

	Size of irrep 0 of <ia|bc> integrals:   1566.143 (MW) /  12529.148 (MB)
	Total:                                  1566.143 (MW) /  12529.148 (MB)

	Size of irrep 0 of tijab amplitudes:     103.877 (MW) /    831.015 (MB)
	Total:                                   103.877 (MW) /    831.015 (MB)

	Nuclear Rep. energy          =    255.09913242462474
	SCF energy                   =   -627.71735350832921
	One-electron energy          =  -1371.37073990931958
	Two-electron energy          =    488.55412541176241
	Reference energy             =   -627.71748207293240

*** tstop() called on node85.bme.utexas.edu at Sat Apr 18 22:50:07 2020
Module time:
	user time   =    6569.91 seconds =     109.50 minutes
	system time =    3343.57 seconds =      55.73 minutes
	total time  =      42280 seconds =     704.67 minutes
Total time:
	user time   =  142668.83 seconds =    2377.81 minutes
	system time =   31135.65 seconds =     518.93 minutes
	total time  =     228515 seconds =    3808.58 minutes
            **************************
            *                        *
            *        CCENERGY        *
            *                        *
            **************************

    Nuclear Rep. energy (wfn)     =  255.099132424624742
    SCF energy          (wfn)     = -627.717353508329211
    Reference energy    (file100) = -627.717482072932398

    Input parameters:
    -----------------
    Wave function   =     CCSD_T
    Reference wfn   =     RHF
    Brueckner       =     No
    Memory (Mbytes) =     50000.0
    Maxiter         =     50
    R_Convergence   =     1.0e-07
    E_Convergence   =     1.0e-07
    Restart         =     Yes
    DIIS            =     Yes
    AO Basis        =     NONE
    ABCD            =     NEW
    Cache Level     =     2
    Cache Type      =     LOW
    Print Level     =     1
    Num. of threads =     8
    # Amps to Print =     10
    Print MP2 Amps? =     No
    Analyze T2 Amps =     No
    Print Pair Ener =     No
    Local CC        =     No
    SCS-MP2         =     False
    SCSN-MP2        =     False
    SCS-CCSD        =     False

MP2 correlation energy -1.1807250349376619
                Solving CC Amplitude Equations
                ------------------------------
  Iter             Energy              RMS        T1Diag      D1Diag    New D1Diag    D2Diag
  ----     ---------------------    ---------   ----------  ----------  ----------   --------
     0        -1.180725034937662    0.000e+00    0.000000    0.000000    0.000000    0.144066
     1        -1.184183201611431    9.738e-02    0.009635    0.036318    0.036318    0.150449
     2        -1.209783991879491    3.707e-02    0.008868    0.030909    0.030909    0.157369
     3        -1.217497752626328    1.700e-02    0.010628    0.039467    0.039467    0.160875
     4        -1.217073938715901    4.468e-03    0.011072    0.041286    0.041286    0.161524
     5        -1.217009203933728    2.408e-03    0.011322    0.042762    0.042762    0.161733
     6        -1.217090415633760    9.925e-04    0.011435    0.043504    0.043504    0.161788
     7        -1.217093180375443    4.393e-04    0.011472    0.043770    0.043770    0.161774
     8        -1.217078572656098    1.731e-04    0.011480    0.043854    0.043854    0.161768
     9        -1.217080566554168    6.537e-05    0.011482    0.043875    0.043875    0.161769
    10        -1.217080968965557    3.183e-05    0.011482    0.043878    0.043878    0.161770
    11        -1.217079378932365    1.696e-05    0.011482    0.043878    0.043878    0.161770
    12        -1.217079312277029    7.577e-06    0.011482    0.043878    0.043878    0.161770
    13        -1.217079131538762    3.871e-06    0.011482    0.043877    0.043877    0.161770
    14        -1.217079001319980    1.659e-06    0.011482    0.043876    0.043876    0.161769
    15        -1.217078976849469    7.485e-07    0.011482    0.043876    0.043876    0.161769
    16        -1.217078973776410    3.744e-07    0.011482    0.043876    0.043876    0.161769
    17        -1.217078968074943    1.771e-07    0.011482    0.043876    0.043876    0.161769
    18        -1.217078969387157    9.333e-08    0.011482    0.043876    0.043876    0.161769

    Iterations converged.


    Largest TIA Amplitudes:
             24  28         0.0204440843
             24   9        -0.0121576937
             25  42        -0.0120684140
             17  28         0.0110395637
             24  23         0.0107772187
             25  24         0.0106631925
             25  22         0.0105983177
             24  53        -0.0103298277
             24  20         0.0098179221
             25  27         0.0094265324

    Largest TIjAb Amplitudes:
     24  24  28  28        -0.0130398447
     25  25  24  24        -0.0089215918
     25  25  28  28        -0.0087361764
      2   2 388 388        -0.0071109309
     17  17  28  28        -0.0070930290
     23  23  27  27        -0.0070512623
     24  24  28  52        -0.0068920263
     24  24  52  28        -0.0068920263
     22  22 124 124        -0.0068702292
     24  24  28  53         0.0068595513

    SCF energy       (wfn)                    = -627.717353508329211
    Reference energy (file100)                = -627.717482072932398

    Opposite-spin MP2 correlation energy      =   -0.900170128836016
    Same-spin MP2 correlation energy          =   -0.280554906101646
    MP2 correlation energy                    =   -1.180725034937662
      * MP2 total energy                      = -628.898207107870007

    Opposite-spin CCSD correlation energy     =   -0.961456330908750
    Same-spin CCSD correlation energy         =   -0.255622638478409
    CCSD correlation energy                   =   -1.217078969387157
      * CCSD total energy                     = -628.934561042319501

            **************************
            *                        *
            *        CCTRIPLES       *
            *                        *
            **************************


    Wave function   =    CCSD_T
    Reference wfn   =      RHF

    Nuclear Rep. energy (wfn)                =  255.099132424624742
    SCF energy          (wfn)                = -627.717353508329211
    Reference energy    (file100)            = -627.717482072932398
    CCSD energy         (file100)            =   -1.217078969387157
    Total CCSD energy   (file100)            = -628.934561042319501

    Number of ijk index combinations:             3276
    Memory available in words        :      6250000000
    ~Words needed per explicit thread:       240945152
    Number of threads for explicit ijk threading:    8

    MKL num_threads set to 1 for explicit threading.

    (T) energy                                =   -0.047961082436856
      * CCSD(T) total energy                  = -628.982522124756429


  //>>>>>>>>>>>>>>>>>>>>>>>>>>>>>>>>>>>//
  //    CBS Results: custom function   //
  //<<<<<<<<<<<<<<<<<<<<<<<<<<<<<<<<<<<//


   ==> HF <==

   HI-zeta (4) Energy:               -627.740449761192


   ==> Helgaker 2-point correlated extrapolation for method: MP2 <==

   LO-zeta (3) Energy:               -628.898207107870
   HI-zeta (4) Energy:               -629.059007226545
   Alpha (exponent) Value:             3.000000000000
   Extrapolated Energy:              -629.176347853687

   @Extrapolated MP2/(T,Q):          -629.176347853687



   ==> Helgaker 2-point correlated extrapolation for method: HF <==

   LO-zeta (3) Energy:               -627.717353508329
   HI-zeta (4) Energy:               -627.740449761192
   Alpha (exponent) Value:             3.000000000000
   Extrapolated Energy:              -627.757303783551

   @Extrapolated HF/(T,Q):           -627.757303783551



   ==> Helgaker 2-point correlated extrapolation for method: CCSD(T) <==

   LO-zeta (2) Energy:               -628.606152656614
   HI-zeta (3) Energy:               -628.982522124756
   Alpha (exponent) Value:             3.000000000000
   Extrapolated Energy:              -629.140993479764

   @Extrapolated CCSD(T)/(D,T):      -629.140993479764



   ==> Helgaker 2-point correlated extrapolation for method: MP2 <==

   LO-zeta (2) Energy:               -628.527876009587
   HI-zeta (3) Energy:               -628.898207107870
   Alpha (exponent) Value:             3.000000000000
   Extrapolated Energy:              -629.054135991358

   @Extrapolated MP2/(D,T):          -629.054135991358


   ==> Components <==

  ---------------------------------------------------------------------------------------------------------
                          Method / Basis                      Rqd      Energy [Eh]   Variable
  ---------------------------------------------------------------------------------------------------------
                              hf / aug-cc-pvqz                  *    -627.74044976   HF TOTAL ENERGY
                             mp2 / aug-cc-pvqz                  *    -629.05900723   MP2 TOTAL ENERGY
                              hf / aug-cc-pvdz                       -627.62671312   HF TOTAL ENERGY
                             mp2 / aug-cc-pvdz                  *    -628.52787601   MP2 TOTAL ENERGY
                            ccsd / aug-cc-pvdz                       -628.57456757   CCSD TOTAL ENERGY
                         ccsd(t) / aug-cc-pvdz                  *    -628.60615266   CCSD(T) TOTAL ENERGY
                              hf / aug-cc-pvtz                  *    -627.71735351   HF TOTAL ENERGY
                             mp2 / aug-cc-pvtz                  *    -628.89820711   MP2 TOTAL ENERGY
                            ccsd / aug-cc-pvtz                       -628.93456104   CCSD TOTAL ENERGY
                         ccsd(t) / aug-cc-pvtz                  *    -628.98252212   CCSD(T) TOTAL ENERGY
  ---------------------------------------------------------------------------------------------------------

   ==> Stages <==

  ---------------------------------------------------------------------------------------------------------
      Stage               Method / Basis                       Wt      Energy [Eh]   Scheme
  ---------------------------------------------------------------------------------------------------------
        scf                   hf / aug-cc-pvqz                  1    -627.74044976   xtpl_highest_1
       corl                  mp2 / aug-cc-pv[tq]z               1    -629.17634785   corl_xtpl_helgaker_2
       corl                   hf / aug-cc-pv[tq]z              -1    -627.75730378   corl_xtpl_helgaker_2
     delta1              ccsd(t) / aug-cc-pv[dt]z               1    -629.14099348   corl_xtpl_helgaker_2
     delta1                  mp2 / aug-cc-pv[dt]z              -1    -629.05413599   corl_xtpl_helgaker_2
  ---------------------------------------------------------------------------------------------------------

   ==> CBS <==

  ---------------------------------------------------------------------------------------------------------
      Stage               Method / Basis                               Energy [Eh]   Scheme
  ---------------------------------------------------------------------------------------------------------
        scf                   hf / aug-cc-pvqz                       -627.74044976   xtpl_highest_1
       corl                  mp2 / aug-cc-pv[tq]z                      -1.41904407   corl_xtpl_helgaker_2
     delta1        ccsd(t) - mp2 / aug-cc-pv[dt]z                      -0.08685749   corl_xtpl_helgaker_2
      total                  CBS                                     -629.24635132   
  ---------------------------------------------------------------------------------------------------------
   => Loading Basis Set <=

    Name: DEF2-SVP
    Role: ORBITAL
    Keyword: BASIS
    atoms 1, 4        entry C          line    90 file /home/liuchw/anaconda3/envs/psi4env/share/psi4/basis/def2-svp.gbs 
    atoms 2, 11       entry O          line   130 file /home/liuchw/anaconda3/envs/psi4env/share/psi4/basis/def2-svp.gbs 
    atoms 3           entry S          line   328 file /home/liuchw/anaconda3/envs/psi4env/share/psi4/basis/def2-svp.gbs 
    atoms 5-10, 12-13 entry H          line    15 file /home/liuchw/anaconda3/envs/psi4env/share/psi4/basis/def2-svp.gbs 


       N-Body: Complex Energy (fragments = (1, 2), basis = (1, 2):  -629.24635131973355)

   ==> N-Body: Counterpoise Corrected (CP) energies <==

   n-Body     Total Energy [Eh]       I.E. [kcal/mol]      Delta [kcal/mol]
        1     -629.239578648452        0.000000000000        0.000000000000
        2     -629.246288384585       -4.210422989838       -4.210422989838

   => Loading Basis Set <=

    Name: DEF2-SVP
    Role: ORBITAL
    Keyword: BASIS
    atoms 1, 4        entry C          line    90 file /home/liuchw/anaconda3/envs/psi4env/share/psi4/basis/def2-svp.gbs 
    atoms 2, 11       entry O          line   130 file /home/liuchw/anaconda3/envs/psi4env/share/psi4/basis/def2-svp.gbs 
    atoms 3           entry S          line   328 file /home/liuchw/anaconda3/envs/psi4env/share/psi4/basis/def2-svp.gbs 
    atoms 5-10, 12-13 entry H          line    15 file /home/liuchw/anaconda3/envs/psi4env/share/psi4/basis/def2-svp.gbs 


    Psi4 stopped on: Sunday, 19 April 2020 02:57PM
    Psi4 wall time for execution: 3 days, 7:35:48.80

*** Psi4 exiting successfully. Buy a developer a beer!
