
    -----------------------------------------------------------------------
          Psi4: An Open-Source Ab Initio Electronic Structure Package
                               Psi4 1.4a2.dev224 

                         Git: Rev {master} e453b16 


    R. M. Parrish, L. A. Burns, D. G. A. Smith, A. C. Simmonett,
    A. E. DePrince III, E. G. Hohenstein, U. Bozkaya, A. Yu. Sokolov,
    R. Di Remigio, R. M. Richard, J. F. Gonthier, A. M. James,
    H. R. McAlexander, A. Kumar, M. Saitow, X. Wang, B. P. Pritchard,
    P. Verma, H. F. Schaefer III, K. Patkowski, R. A. King, E. F. Valeev,
    F. A. Evangelista, J. M. Turney, T. D. Crawford, and C. D. Sherrill,
    J. Chem. Theory Comput. 13(7) pp 3185--3197 (2017).
    (doi: 10.1021/acs.jctc.7b00174)


                         Additional Contributions by
    P. Kraus, H. Kruse, M. H. Lechner, M. C. Schieber, R. A. Shaw,
    A. Alenaizan, R. Galvelis, Z. L. Glick, S. Lehtola, and J. P. Misiewicz

    -----------------------------------------------------------------------


    Psi4 started on: Wednesday, 15 April 2020 04:48AM

    Process ID: 93998
    Host:       node73.bme.utexas.edu
    PSIDATADIR: /home/liuchw/anaconda3/envs/psi4env/share/psi4
    Memory:     500.0 MiB
    Threads:    8
    
  ==> Input File <==

--------------------------------------------------------------------------
#Generated by lconvert.py for cbs job

memory 50 GB

molecule  {
-2 1
  P      -0.321200   -0.025860    0.314425
  O       1.132515    0.129154    0.830848
  O      -0.696138    1.645484    0.021781
  O      -1.299463   -0.466424    1.414615
  O      -0.493909   -0.705976   -1.035359
  H       0.114111    2.006678    0.392977
--
0 1
  O       0.251469   -0.474507    3.007944
  H       0.747055   -0.230879    2.193317
  H      -0.595572   -0.534893    2.507262
units angstrom
no_reorient
symmetry c1
}

set {
scf_type DF
mp2_type DF
e_convergence 7
reference rhf
}

energy(cbs, corl_wfn='mp2', corl_basis='aug-cc-pv[tq]z', delta_wfn='ccsd(t)', delta_basis='aug-cc-pv[dt]z', bsse_type='cp')
--------------------------------------------------------------------------

  Memory set to  46.566 GiB by Python driver.

Scratch directory: /scratch/liuchw/


   ===> N-Body Interaction Abacus <===
        BSSE Treatment:                     cp
        Number of 1-body computations:     4
        Number of 2-body computations:     1

   ==> N-Body: Now computing 1-body complexes <==


       N-Body: Computing complex (1/4) with fragments (2,) in the basis of fragments (2,).


Scratch directory: /scratch/liuchw/

  //>>>>>>>>>>>>>>>>>>>>>>>>>>>>>>>>>>>//
  //     CBS Setup: custom function    //
  //<<<<<<<<<<<<<<<<<<<<<<<<<<<<<<<<<<<//

    Naive listing of computations required.
             hf / aug-cc-pvqz              for  HF TOTAL ENERGY
            mp2 / aug-cc-pvtz              for  MP2 TOTAL ENERGY
            mp2 / aug-cc-pvqz              for  MP2 TOTAL ENERGY
             hf / aug-cc-pvtz              for  HF TOTAL ENERGY
             hf / aug-cc-pvqz              for  HF TOTAL ENERGY
        ccsd(t) / aug-cc-pvdz              for  CCSD(T) TOTAL ENERGY
        ccsd(t) / aug-cc-pvtz              for  CCSD(T) TOTAL ENERGY
            mp2 / aug-cc-pvdz              for  MP2 TOTAL ENERGY
            mp2 / aug-cc-pvtz              for  MP2 TOTAL ENERGY

    Enlightened listing of computations required.
            mp2 / aug-cc-pvqz              for  MP2 TOTAL ENERGY
        ccsd(t) / aug-cc-pvdz              for  CCSD(T) TOTAL ENERGY
        ccsd(t) / aug-cc-pvtz              for  CCSD(T) TOTAL ENERGY

    Full listing of computations to be obtained (required and bonus).
             hf / aug-cc-pvqz              for  HF TOTAL ENERGY
            mp2 / aug-cc-pvqz              for  MP2 TOTAL ENERGY
             hf / aug-cc-pvdz              for  HF TOTAL ENERGY
            mp2 / aug-cc-pvdz              for  MP2 TOTAL ENERGY
           ccsd / aug-cc-pvdz              for  CCSD TOTAL ENERGY
        ccsd(t) / aug-cc-pvdz              for  CCSD(T) TOTAL ENERGY
             hf / aug-cc-pvtz              for  HF TOTAL ENERGY
            mp2 / aug-cc-pvtz              for  MP2 TOTAL ENERGY
           ccsd / aug-cc-pvtz              for  CCSD TOTAL ENERGY
        ccsd(t) / aug-cc-pvtz              for  CCSD(T) TOTAL ENERGY

  //>>>>>>>>>>>>>>>>>>>>>>>>>>>>>>>>>>>>//
  // CBS Computation: MP2 / AUG-CC-PVQZ //
  //<<<<<<<<<<<<<<<<<<<<<<<<<<<<<<<<<<<<//


Scratch directory: /scratch/liuchw/

*** tstart() called on node73.bme.utexas.edu
*** at Wed Apr 15 04:48:18 2020

   => Loading Basis Set <=

    Name: AUG-CC-PVQZ
    Role: ORBITAL
    Keyword: BASIS
    atoms 1   entry O          line   423 file /home/liuchw/anaconda3/envs/psi4env/share/psi4/basis/aug-cc-pvqz.gbs 
    atoms 2-3 entry H          line    40 file /home/liuchw/anaconda3/envs/psi4env/share/psi4/basis/aug-cc-pvqz.gbs 


         ---------------------------------------------------------
                                   SCF
               by Justin Turney, Rob Parrish, Andy Simmonett
                          and Daniel G. A. Smith
                              RHF Reference
                        8 Threads,  47683 MiB Core
         ---------------------------------------------------------

  ==> Geometry <==

    Molecular point group: c1
    Full point group: C1

    Geometry (in Angstrom), charge = 0, multiplicity = 1:

       Center              X                  Y                   Z               Mass       
    ------------   -----------------  -----------------  -----------------  -----------------
         O            0.491562528441    -0.496378031786     2.282430900991    15.994914619570
         H            0.987148528441    -0.252750031786     1.467803900991     1.007825032230
         H           -0.355478471559    -0.556764031786     1.781748900991     1.007825032230

  Running in c1 symmetry.

  Rotational constants: A =     16.72787  B =      0.17382  C =      0.17204 [cm^-1]
  Rotational constants: A = 501489.02506  B =   5210.94468  C =   5157.73499 [MHz]
  Nuclear repulsion =    8.970707492172538

  Charge       = 0
  Multiplicity = 1
  Electrons    = 10
  Nalpha       = 5
  Nbeta        = 5

  ==> Algorithm <==

  SCF Algorithm Type is DF.
  DIIS enabled.
  MOM disabled.
  Fractional occupation disabled.
  Guess Type is SAD.
  Energy threshold   = 1.00e-07
  Density threshold  = 1.00e-08
  Integral threshold = 0.00e+00

  ==> Primary Basis <==

  Basis Set: AUG-CC-PVQZ
    Blend: AUG-CC-PVQZ
    Number of shells: 48
    Number of basis function: 172
    Number of Cartesian functions: 215
    Spherical Harmonics?: true
    Max angular momentum: 4

   => Loading Basis Set <=

    Name: (AUG-CC-PVQZ AUX)
    Role: JKFIT
    Keyword: DF_BASIS_SCF
    atoms 1   entry O          line   318 file /home/liuchw/anaconda3/envs/psi4env/share/psi4/basis/aug-cc-pvqz-jkfit.gbs 
    atoms 2-3 entry H          line    70 file /home/liuchw/anaconda3/envs/psi4env/share/psi4/basis/aug-cc-pvqz-jkfit.gbs 

  ==> Pre-Iterations <==

   -------------------------------------------------------
    Irrep   Nso     Nmo     Nalpha   Nbeta   Ndocc  Nsocc
   -------------------------------------------------------
     A        172     172       0       0       0       0
   -------------------------------------------------------
    Total     172     172       5       5       5       0
   -------------------------------------------------------

  ==> Integral Setup <==

  DFHelper Memory: AOs need 0.074 GiB; user supplied 34.925 GiB. Using in-core AOs.

  ==> MemDFJK: Density-Fitted J/K Matrices <==

    J tasked:                   Yes
    K tasked:                   Yes
    wK tasked:                   No
    OpenMP threads:               8
    Memory [MiB]:             35762
    Algorithm:                 Core
    Schwarz Cutoff:           1E-12
    Mask sparsity (%):       0.0000
    Fitting Condition:        1E-10

   => Auxiliary Basis Set <=

  Basis Set: (AUG-CC-PVQZ AUX)
    Blend: AUG-CC-PVQZ-JKFIT
    Number of shells: 70
    Number of basis function: 294
    Number of Cartesian functions: 400
    Spherical Harmonics?: true
    Max angular momentum: 5

  Minimum eigenvalue in the overlap matrix is 9.6568458136E-05.
  Using Symmetric Orthogonalization.

  SCF Guess: Superposition of Atomic Densities via on-the-fly atomic UHF.

  ==> Iterations <==

                           Total Energy        Delta E     RMS |[F,P]|

   @DF-RHF iter SAD:   -75.46572028125891   -7.54657e+01   0.00000e+00 
   @DF-RHF iter   1:   -75.97029719938907   -5.04577e-01   2.72635e-03 DIIS
   @DF-RHF iter   2:   -76.02225244274311   -5.19552e-02   1.94641e-03 DIIS
   @DF-RHF iter   3:   -76.05737794820250   -3.51255e-02   1.31053e-04 DIIS
   @DF-RHF iter   4:   -76.05778797957282   -4.10031e-04   3.44936e-05 DIIS
   @DF-RHF iter   5:   -76.05782074247450   -3.27629e-05   8.42613e-06 DIIS
   @DF-RHF iter   6:   -76.05782374565523   -3.00318e-06   1.83046e-06 DIIS
   @DF-RHF iter   7:   -76.05782389553322   -1.49878e-07   2.85182e-07 DIIS
   @DF-RHF iter   8:   -76.05782389854355   -3.01033e-09   4.33281e-08 DIIS
   @DF-RHF iter   9:   -76.05782389859192   -4.83737e-11   7.38852e-09 DIIS
  Energy and wave function converged.


  ==> Post-Iterations <==

    Orbital Energies [Eh]
    ---------------------

    Doubly Occupied:                                                      

       1A    -20.574896     2A     -1.348424     3A     -0.677073  
       4A     -0.605063     5A     -0.512058  

    Virtual:                                                              

       6A      0.025786     7A      0.043693     8A      0.111871  
       9A      0.136330    10A      0.152071    11A      0.160962  
      12A      0.181059    13A      0.196766    14A      0.212550  
      15A      0.226652    16A      0.252803    17A      0.294415  
      18A      0.350662    19A      0.382899    20A      0.466460  
      21A      0.512907    22A      0.536899    23A      0.553203  
      24A      0.556421    25A      0.621412    26A      0.630762  
      27A      0.647540    28A      0.662027    29A      0.662102  
      30A      0.670784    31A      0.710732    32A      0.728229  
      33A      0.767223    34A      0.779877    35A      0.784222  
      36A      0.801441    37A      0.838758    38A      0.845200  
      39A      0.976962    40A      1.078520    41A      1.151632  
      42A      1.180328    43A      1.335826    44A      1.473741  
      45A      1.486615    46A      1.488122    47A      1.514403  
      48A      1.537390    49A      1.551158    50A      1.577876  
      51A      1.623312    52A      1.623919    53A      1.644473  
      54A      1.682352    55A      1.694024    56A      1.694592  
      57A      1.732308    58A      1.734703    59A      1.748393  
      60A      1.792099    61A      1.871845    62A      1.886959  
      63A      1.925121    64A      1.959644    65A      1.970293  
      66A      2.052287    67A      2.053126    68A      2.084727  
      69A      2.112737    70A      2.164511    71A      2.194253  
      72A      2.313124    73A      2.340667    74A      2.559895  
      75A      2.591160    76A      2.880548    77A      2.889921  
      78A      2.928719    79A      3.020175    80A      3.056329  
      81A      3.084623    82A      3.137721    83A      3.402862  
      84A      3.404738    85A      3.442272    86A      3.546554  
      87A      3.600589    88A      3.669073    89A      3.686012  
      90A      3.935948    91A      3.938065    92A      4.079408  
      93A      4.152292    94A      4.163115    95A      4.171409  
      96A      4.200849    97A      4.210927    98A      4.285606  
      99A      4.431450   100A      4.583968   101A      4.633794  
     102A      4.703989   103A      4.720180   104A      4.724438  
     105A      4.862443   106A      4.932175   107A      4.937893  
     108A      5.180939   109A      5.273252   110A      5.416367  
     111A      5.578338   112A      5.746319   113A      5.867038  
     114A      6.015008   115A      6.122227   116A      6.621238  
     117A      6.734503   118A      6.927395   119A      7.002250  
     120A      7.593229   121A      7.623490   122A      7.730614  
     123A      7.786534   124A      7.802583   125A      7.811936  
     126A      7.892251   127A      7.895266   128A      8.052894  
     129A      8.101972   130A      8.538923   131A      8.592596  
     132A      8.619718   133A      8.657687   134A      8.800832  
     135A      8.855415   136A      9.013881   137A      9.014460  
     138A      9.308538   139A      9.573923   140A      9.726178  
     141A      9.810491   142A      9.860436   143A     10.047711  
     144A     10.258264   145A     10.461136   146A     10.878862  
     147A     11.025491   148A     11.075317   149A     11.132561  
     150A     11.187075   151A     11.294323   152A     11.326194  
     153A     11.742625   154A     11.750170   155A     11.779552  
     156A     11.928038   157A     12.073132   158A     12.231943  
     159A     12.459321   160A     12.660023   161A     12.842842  
     162A     12.912677   163A     12.920016   164A     13.566757  
     165A     13.862371   166A     14.404842   167A     14.525445  
     168A     14.939366   169A     15.033460   170A     16.469792  
     171A     17.190125   172A     45.216940  

    Final Occupation by Irrep:
              A 
    DOCC [     5 ]

  @DF-RHF Final Energy:   -76.05782389859192

   => Energetics <=

    Nuclear Repulsion Energy =              8.9707074921725383
    One-Electron Energy =                -122.6220300968201400
    Two-Electron Energy =                  37.5934987060556836
    Total Energy =                        -76.0578238985919199

Computation Completed


Properties will be evaluated at   0.000000,   0.000000,   0.000000 [a0]

Properties computed using the SCF density matrix

  Nuclear Dipole Moment: [e a0]
     X:     8.6250      Y:    -9.0339      Z:    40.6461

  Electronic Dipole Moment: [e a0]
     X:    -8.8468      Y:     9.1498      Z:   -41.4776

  Dipole Moment: [e a0]
     X:    -0.2218      Y:     0.1159      Z:    -0.8315     Total:     0.8683

  Dipole Moment: [D]
     X:    -0.5638      Y:     0.2946      Z:    -2.1135     Total:     2.2071


*** tstop() called on node73.bme.utexas.edu at Wed Apr 15 04:48:20 2020
Module time:
	user time   =      11.67 seconds =       0.19 minutes
	system time =       0.72 seconds =       0.01 minutes
	total time  =          2 seconds =       0.03 minutes
Total time:
	user time   =      11.67 seconds =       0.19 minutes
	system time =       0.72 seconds =       0.01 minutes
	total time  =          2 seconds =       0.03 minutes

*** tstart() called on node73.bme.utexas.edu
*** at Wed Apr 15 04:48:20 2020


  //>>>>>>>>>>>>>>>>>>>>>>>>>>>>>>>>>>>//
  //               DFMP2               //
  //<<<<<<<<<<<<<<<<<<<<<<<<<<<<<<<<<<<//

   => Loading Basis Set <=

    Name: (AUG-CC-PVQZ AUX)
    Role: RIFIT
    Keyword: DF_BASIS_MP2
    atoms 1   entry O          line   332 file /home/liuchw/anaconda3/envs/psi4env/share/psi4/basis/aug-cc-pvqz-ri.gbs 
    atoms 2-3 entry H          line    30 file /home/liuchw/anaconda3/envs/psi4env/share/psi4/basis/aug-cc-pvqz-ri.gbs 

	 --------------------------------------------------------
	                          DF-MP2                         
	      2nd-Order Density-Fitted Moller-Plesset Theory     
	              RMP2 Wavefunction,   8 Threads             
	                                                         
	        Rob Parrish, Justin Turney, Andy Simmonett,      
	           Ed Hohenstein, and C. David Sherrill          
	 --------------------------------------------------------

   => Auxiliary Basis Set <=

  Basis Set: (AUG-CC-PVQZ AUX)
    Blend: AUG-CC-PVQZ-RI
    Number of shells: 76
    Number of basis function: 328
    Number of Cartesian functions: 447
    Spherical Harmonics?: true
    Max angular momentum: 5

	 --------------------------------------------------------
	                 NBF =   172, NAUX =   328
	 --------------------------------------------------------
	   CLASS    FOCC     OCC    AOCC    AVIR     VIR    FVIR
	   PAIRS       0       5       5     167     167       0
	 --------------------------------------------------------

	-----------------------------------------------------------
	 ==================> DF-MP2 Energies <==================== 
	-----------------------------------------------------------
	 Reference Energy          =     -76.0578238985919199 [Eh]
	 Singles Energy            =      -0.0000000000000000 [Eh]
	 Same-Spin Energy          =      -0.0735662723715531 [Eh]
	 Opposite-Spin Energy      =      -0.2465635162834003 [Eh]
	 Correlation Energy        =      -0.3201297886549534 [Eh]
	 Total Energy              =     -76.3779536872468725 [Eh]
	-----------------------------------------------------------
	 ================> DF-SCS-MP2 Energies <================== 
	-----------------------------------------------------------
	 SCS Same-Spin Scale       =       0.3333333333333333 [-]
	 SCS Opposite-Spin Scale   =       1.2000000000000000 [-]
	 SCS Same-Spin Energy      =      -0.0245220907905177 [Eh]
	 SCS Opposite-Spin Energy  =      -0.2958762195400804 [Eh]
	 SCS Correlation Energy    =      -0.3203983103305981 [Eh]
	 SCS Total Energy          =     -76.3782222089225229 [Eh]
	-----------------------------------------------------------


*** tstop() called on node73.bme.utexas.edu at Wed Apr 15 04:48:21 2020
Module time:
	user time   =       4.85 seconds =       0.08 minutes
	system time =       0.31 seconds =       0.01 minutes
	total time  =          1 seconds =       0.02 minutes
Total time:
	user time   =      16.53 seconds =       0.28 minutes
	system time =       1.03 seconds =       0.02 minutes
	total time  =          3 seconds =       0.05 minutes

  //>>>>>>>>>>>>>>>>>>>>>>>>>>>>>>>>>>>>>>>>//
  // CBS Computation: CCSD(T) / AUG-CC-PVDZ //
  //<<<<<<<<<<<<<<<<<<<<<<<<<<<<<<<<<<<<<<<<//


Scratch directory: /scratch/liuchw/

*** tstart() called on node73.bme.utexas.edu
*** at Wed Apr 15 04:48:21 2020

   => Loading Basis Set <=

    Name: AUG-CC-PVDZ
    Role: ORBITAL
    Keyword: BASIS
    atoms 1   entry O          line   254 file /home/liuchw/anaconda3/envs/psi4env/share/psi4/basis/aug-cc-pvdz.gbs 
    atoms 2-3 entry H          line    40 file /home/liuchw/anaconda3/envs/psi4env/share/psi4/basis/aug-cc-pvdz.gbs 


         ---------------------------------------------------------
                                   SCF
               by Justin Turney, Rob Parrish, Andy Simmonett
                          and Daniel G. A. Smith
                              RHF Reference
                        8 Threads,  47683 MiB Core
         ---------------------------------------------------------

  ==> Geometry <==

    Molecular point group: c1
    Full point group: C1

    Geometry (in Angstrom), charge = 0, multiplicity = 1:

       Center              X                  Y                   Z               Mass       
    ------------   -----------------  -----------------  -----------------  -----------------
         O            0.491562528441    -0.496378031786     2.282430900991    15.994914619570
         H            0.987148528441    -0.252750031786     1.467803900991     1.007825032230
         H           -0.355478471559    -0.556764031786     1.781748900991     1.007825032230

  Running in c1 symmetry.

  Rotational constants: A =     16.72787  B =      0.17382  C =      0.17204 [cm^-1]
  Rotational constants: A = 501489.02506  B =   5210.94468  C =   5157.73499 [MHz]
  Nuclear repulsion =    8.970707492172538

  Charge       = 0
  Multiplicity = 1
  Electrons    = 10
  Nalpha       = 5
  Nbeta        = 5

  ==> Algorithm <==

  SCF Algorithm Type is DF.
  DIIS enabled.
  MOM disabled.
  Fractional occupation disabled.
  Guess Type is SAD.
  Energy threshold   = 1.00e-07
  Density threshold  = 1.00e-08
  Integral threshold = 0.00e+00

  ==> Primary Basis <==

  Basis Set: AUG-CC-PVDZ
    Blend: AUG-CC-PVDZ
    Number of shells: 19
    Number of basis function: 41
    Number of Cartesian functions: 43
    Spherical Harmonics?: true
    Max angular momentum: 2

   => Loading Basis Set <=

    Name: (AUG-CC-PVDZ AUX)
    Role: JKFIT
    Keyword: DF_BASIS_SCF
    atoms 1   entry O          line   270 file /home/liuchw/anaconda3/envs/psi4env/share/psi4/basis/aug-cc-pvdz-jkfit.gbs 
    atoms 2-3 entry H          line    70 file /home/liuchw/anaconda3/envs/psi4env/share/psi4/basis/aug-cc-pvdz-jkfit.gbs 

  ==> Pre-Iterations <==

   -------------------------------------------------------
    Irrep   Nso     Nmo     Nalpha   Nbeta   Ndocc  Nsocc
   -------------------------------------------------------
     A         41      41       0       0       0       0
   -------------------------------------------------------
    Total      41      41       5       5       5       0
   -------------------------------------------------------

  ==> Integral Setup <==

  DFHelper Memory: AOs need 0.002 GiB; user supplied 34.925 GiB. Using in-core AOs.

  ==> MemDFJK: Density-Fitted J/K Matrices <==

    J tasked:                   Yes
    K tasked:                   Yes
    wK tasked:                   No
    OpenMP threads:               8
    Memory [MiB]:             35762
    Algorithm:                 Core
    Schwarz Cutoff:           1E-12
    Mask sparsity (%):       0.0000
    Fitting Condition:        1E-10

   => Auxiliary Basis Set <=

  Basis Set: (AUG-CC-PVDZ AUX)
    Blend: AUG-CC-PVDZ-JKFIT
    Number of shells: 52
    Number of basis function: 150
    Number of Cartesian functions: 171
    Spherical Harmonics?: true
    Max angular momentum: 3

  Minimum eigenvalue in the overlap matrix is 2.3084159303E-03.
  Using Symmetric Orthogonalization.

  SCF Guess: Superposition of Atomic Densities via on-the-fly atomic UHF.

  ==> Iterations <==

                           Total Energy        Delta E     RMS |[F,P]|

   @DF-RHF iter SAD:   -75.44817279539691   -7.54482e+01   0.00000e+00 
   @DF-RHF iter   1:   -75.94658729390328   -4.98414e-01   1.10627e-02 DIIS
   @DF-RHF iter   2:   -75.99924436045029   -5.26571e-02   7.56368e-03 DIIS
   @DF-RHF iter   3:   -76.03331049127959   -3.40661e-02   5.25868e-04 DIIS
   @DF-RHF iter   4:   -76.03370316801896   -3.92677e-04   1.29669e-04 DIIS
   @DF-RHF iter   5:   -76.03373134789416   -2.81799e-05   3.15183e-05 DIIS
   @DF-RHF iter   6:   -76.03373383318421   -2.48529e-06   5.99189e-06 DIIS
   @DF-RHF iter   7:   -76.03373392023033   -8.70461e-08   8.39271e-07 DIIS
   @DF-RHF iter   8:   -76.03373392174547   -1.51513e-09   1.11693e-07 DIIS
   @DF-RHF iter   9:   -76.03373392176732   -2.18563e-11   2.17853e-08 DIIS
   @DF-RHF iter  10:   -76.03373392176842   -1.09424e-12   4.21475e-09 DIIS
  Energy and wave function converged.


  ==> Post-Iterations <==

    Orbital Energies [Eh]
    ---------------------

    Doubly Occupied:                                                      

       1A    -20.587327     2A     -1.352243     3A     -0.678305  
       4A     -0.605943     5A     -0.510931  

    Virtual:                                                              

       6A      0.033716     7A      0.058964     8A      0.172755  
       9A      0.199451    10A      0.221608    11A      0.236237  
      12A      0.276527    13A      0.348813    14A      0.376581  
      15A      0.391519    16A      0.411571    17A      0.547734  
      18A      0.636585    19A      0.658459    20A      0.771440  
      21A      0.951963    22A      1.113689    23A      1.124006  
      24A      1.145453    25A      1.267298    26A      1.436099  
      27A      1.458768    28A      1.591653    29A      1.975533  
      30A      2.018075    31A      2.120297    32A      2.183562  
      33A      2.461316    34A      2.590178    35A      2.669810  
      36A      3.054312    37A      3.677980    38A      3.687170  
      39A      3.692423    40A      3.966057    41A      4.255186  

    Final Occupation by Irrep:
              A 
    DOCC [     5 ]

  @DF-RHF Final Energy:   -76.03373392176842

   => Energetics <=

    Nuclear Repulsion Energy =              8.9707074921725383
    One-Electron Energy =                -122.5393829046348486
    Two-Electron Energy =                  37.5349414906938961
    Total Energy =                        -76.0337339217684161

Computation Completed


Properties will be evaluated at   0.000000,   0.000000,   0.000000 [a0]

Properties computed using the SCF density matrix

  Nuclear Dipole Moment: [e a0]
     X:     8.6250      Y:    -9.0339      Z:    40.6461

  Electronic Dipole Moment: [e a0]
     X:    -8.8484      Y:     9.1506      Z:   -41.4834

  Dipole Moment: [e a0]
     X:    -0.2233      Y:     0.1167      Z:    -0.8373     Total:     0.8744

  Dipole Moment: [D]
     X:    -0.5677      Y:     0.2967      Z:    -2.1282     Total:     2.2225


*** tstop() called on node73.bme.utexas.edu at Wed Apr 15 04:48:23 2020
Module time:
	user time   =      10.17 seconds =       0.17 minutes
	system time =       0.72 seconds =       0.01 minutes
	total time  =          2 seconds =       0.03 minutes
Total time:
	user time   =      26.79 seconds =       0.45 minutes
	system time =       1.76 seconds =       0.03 minutes
	total time  =          5 seconds =       0.08 minutes
 MINTS: Wrapper to libmints.
   by Justin Turney

   Calculation information:
      Number of threads:                 8
      Number of atoms:                   3
      Number of AO shells:              19
      Number of SO shells:              19
      Number of primitives:             39
      Number of atomic orbitals:        43
      Number of basis functions:        41

      Number of irreps:                  1
      Integral cutoff                 0.00e+00
      Number of functions per irrep: [  41 ]

 OEINTS: Overlap, kinetic, potential, dipole, and quadrupole integrals
         stored in file 35.

      Computing two-electron integrals...done
      Computed 345242 non-zero two-electron integrals.
        Stored in file 33.


*** tstart() called on node73.bme.utexas.edu
*** at Wed Apr 15 04:48:24 2020


	Wfn Parameters:
	--------------------
	Wavefunction         = CCSD_T
	Number of irreps     = 1
	Number of MOs        = 41
	Number of active MOs = 41
	AO-Basis             = NONE
	Semicanonical        = false
	Reference            = RHF
	Print Level          = 1

	IRREP	# MOs	# FZDC	# DOCC	# SOCC	# VIRT	# FZVR
	-----	-----	------	------	------	------	------
	 A	   41	    0	    5	    0	    36	    0
	Transforming integrals...
	IWL integrals will be deleted.
	(OO|OO)...
	Presorting SO-basis two-electron integrals.
	Sorting File: SO Ints (nn|nn) nbuckets = 1
	Transforming the one-electron integrals and constructing Fock matrices
	Starting first half-transformation.
	Sorting half-transformed integrals.
	First half integral transformation complete.
	Starting second half-transformation.
	Two-electron integral transformation complete.
	(OO|OV)...
	Starting second half-transformation.
	Two-electron integral transformation complete.
	(OO|VV)...
	Starting second half-transformation.
	Two-electron integral transformation complete.
	(OV|OO)...
	Starting first half-transformation.
	Sorting half-transformed integrals.
	First half integral transformation complete.
	Starting second half-transformation.
	Two-electron integral transformation complete.
	(OV|OV)...
	Starting second half-transformation.
	Two-electron integral transformation complete.
	(OV|VV)...
	Starting second half-transformation.
	Two-electron integral transformation complete.
	(VV|OO)...
	Starting first half-transformation.
	Sorting half-transformed integrals.
	First half integral transformation complete.
	Starting second half-transformation.
	Two-electron integral transformation complete.
	(VV|OV)...
	Starting second half-transformation.
	Two-electron integral transformation complete.
	(VV|VV)...
	Starting second half-transformation.
	Two-electron integral transformation complete.
	Frozen core energy     =      0.00000000000000

	Size of irrep 0 of <ab|cd> integrals:      1.680 (MW) /     13.437 (MB)
	Total:                                     1.680 (MW) /     13.437 (MB)

	Size of irrep 0 of <ia|bc> integrals:      0.233 (MW) /      1.866 (MB)
	Total:                                     0.233 (MW) /      1.866 (MB)

	Size of irrep 0 of tijab amplitudes:       0.032 (MW) /      0.259 (MB)
	Total:                                     0.032 (MW) /      0.259 (MB)

	Nuclear Rep. energy          =      8.97070749217254
	SCF energy                   =    -76.03373392176842
	One-electron energy          =   -122.53938281127991
	Two-electron energy          =     37.53491688969574
	Reference energy             =    -76.03375842941163

*** tstop() called on node73.bme.utexas.edu at Wed Apr 15 04:48:25 2020
Module time:
	user time   =       6.17 seconds =       0.10 minutes
	system time =       0.64 seconds =       0.01 minutes
	total time  =          1 seconds =       0.02 minutes
Total time:
	user time   =      35.38 seconds =       0.59 minutes
	system time =       2.59 seconds =       0.04 minutes
	total time  =          7 seconds =       0.12 minutes
            **************************
            *                        *
            *        CCENERGY        *
            *                        *
            **************************

    Nuclear Rep. energy (wfn)     =    8.970707492172538
    SCF energy          (wfn)     =  -76.033733921768416
    Reference energy    (file100) =  -76.033758429411634

    Input parameters:
    -----------------
    Wave function   =     CCSD_T
    Reference wfn   =     RHF
    Brueckner       =     No
    Memory (Mbytes) =     50000.0
    Maxiter         =     50
    R_Convergence   =     1.0e-07
    E_Convergence   =     1.0e-07
    Restart         =     Yes
    DIIS            =     Yes
    AO Basis        =     NONE
    ABCD            =     NEW
    Cache Level     =     2
    Cache Type      =     LOW
    Print Level     =     1
    Num. of threads =     8
    # Amps to Print =     10
    Print MP2 Amps? =     No
    Analyze T2 Amps =     No
    Print Pair Ener =     No
    Local CC        =     No
    SCS-MP2         =     False
    SCSN-MP2        =     False
    SCS-CCSD        =     False

MP2 correlation energy -0.2255620517306097
                Solving CC Amplitude Equations
                ------------------------------
  Iter             Energy              RMS        T1Diag      D1Diag    New D1Diag    D2Diag
  ----     ---------------------    ---------   ----------  ----------  ----------   --------
     0        -0.225562051730610    0.000e+00    0.000000    0.000000    0.000000    0.118519
     1        -0.226595352368953    3.995e-02    0.009486    0.022238    0.022238    0.123123
     2        -0.231248992660639    1.380e-02    0.009526    0.022678    0.022678    0.128283
     3        -0.232735194810551    5.859e-03    0.011184    0.027154    0.027154    0.130981
     4        -0.232654033911575    1.080e-03    0.011369    0.027806    0.027806    0.131184
     5        -0.232664118995060    3.582e-04    0.011434    0.028069    0.028069    0.131235
     6        -0.232669610798131    9.480e-05    0.011454    0.028156    0.028156    0.131233
     7        -0.232667681805750    2.920e-05    0.011457    0.028173    0.028173    0.131225
     8        -0.232667372909640    7.975e-06    0.011458    0.028178    0.028178    0.131223
     9        -0.232667459357994    2.570e-06    0.011458    0.028180    0.028180    0.131223
    10        -0.232667319572552    8.086e-07    0.011458    0.028180    0.028180    0.131223
    11        -0.232667324137602    2.271e-07    0.011458    0.028180    0.028180    0.131223
    12        -0.232667317776508    9.947e-08    0.011458    0.028180    0.028180    0.131223

    Iterations converged.


    Largest TIA Amplitudes:
              4   3        -0.0225480411
              4  10        -0.0167880564
              3   8        -0.0115604074
              3   2         0.0112549452
              2  27         0.0075019147
              2   6        -0.0059400828
              3  28        -0.0048721354
              3   0        -0.0046367763
              2  24        -0.0042003415
              1   4         0.0039779787

    Largest TIjAb Amplitudes:
      4   4  21  21        -0.0355285792
      2   2   6   6        -0.0260567740
      2   2  14  14        -0.0255798327
      2   2   6  14         0.0209052778
      2   2  14   6         0.0209052778
      3   3  14  14        -0.0207027915
      4   4   3  21        -0.0191643313
      4   4  21   3        -0.0191643313
      4   4   3   3        -0.0186861126
      3   3  22  22        -0.0186209626

    SCF energy       (wfn)                    =  -76.033733921768416
    Reference energy (file100)                =  -76.033758429411634

    Opposite-spin MP2 correlation energy      =   -0.167906160004430
    Same-spin MP2 correlation energy          =   -0.057655891726179
    MP2 correlation energy                    =   -0.225562051730610
      * MP2 total energy                      =  -76.259320481142240

    Opposite-spin CCSD correlation energy     =   -0.182082736825325
    Same-spin CCSD correlation energy         =   -0.050584580951183
    CCSD correlation energy                   =   -0.232667317776508
      * CCSD total energy                     =  -76.266425747188137

            **************************
            *                        *
            *        CCTRIPLES       *
            *                        *
            **************************


    Wave function   =    CCSD_T
    Reference wfn   =      RHF

    Nuclear Rep. energy (wfn)                =    8.970707492172538
    SCF energy          (wfn)                =  -76.033733921768416
    Reference energy    (file100)            =  -76.033758429411634
    CCSD energy         (file100)            =   -0.232667317776508
    Total CCSD energy   (file100)            =  -76.266425747188137

    Number of ijk index combinations:               35
    Memory available in words        :      6250000000
    ~Words needed per explicit thread:          186624
    Number of threads for explicit ijk threading:    8

    MKL num_threads set to 1 for explicit threading.

    (T) energy                                =   -0.005562620062975
      * CCSD(T) total energy                  =  -76.271988367251112


  //>>>>>>>>>>>>>>>>>>>>>>>>>>>>>>>>>>>>>>>>//
  // CBS Computation: CCSD(T) / AUG-CC-PVTZ //
  //<<<<<<<<<<<<<<<<<<<<<<<<<<<<<<<<<<<<<<<<//


Scratch directory: /scratch/liuchw/

*** tstart() called on node73.bme.utexas.edu
*** at Wed Apr 15 04:48:33 2020

   => Loading Basis Set <=

    Name: AUG-CC-PVTZ
    Role: ORBITAL
    Keyword: BASIS
    atoms 1   entry O          line   331 file /home/liuchw/anaconda3/envs/psi4env/share/psi4/basis/aug-cc-pvtz.gbs 
    atoms 2-3 entry H          line    40 file /home/liuchw/anaconda3/envs/psi4env/share/psi4/basis/aug-cc-pvtz.gbs 


         ---------------------------------------------------------
                                   SCF
               by Justin Turney, Rob Parrish, Andy Simmonett
                          and Daniel G. A. Smith
                              RHF Reference
                        8 Threads,  47683 MiB Core
         ---------------------------------------------------------

  ==> Geometry <==

    Molecular point group: c1
    Full point group: C1

    Geometry (in Angstrom), charge = 0, multiplicity = 1:

       Center              X                  Y                   Z               Mass       
    ------------   -----------------  -----------------  -----------------  -----------------
         O            0.491562528441    -0.496378031786     2.282430900991    15.994914619570
         H            0.987148528441    -0.252750031786     1.467803900991     1.007825032230
         H           -0.355478471559    -0.556764031786     1.781748900991     1.007825032230

  Running in c1 symmetry.

  Rotational constants: A =     16.72787  B =      0.17382  C =      0.17204 [cm^-1]
  Rotational constants: A = 501489.02506  B =   5210.94468  C =   5157.73499 [MHz]
  Nuclear repulsion =    8.970707492172538

  Charge       = 0
  Multiplicity = 1
  Electrons    = 10
  Nalpha       = 5
  Nbeta        = 5

  ==> Algorithm <==

  SCF Algorithm Type is DF.
  DIIS enabled.
  MOM disabled.
  Fractional occupation disabled.
  Guess Type is SAD.
  Energy threshold   = 1.00e-07
  Density threshold  = 1.00e-08
  Integral threshold = 0.00e+00

  ==> Primary Basis <==

  Basis Set: AUG-CC-PVTZ
    Blend: AUG-CC-PVTZ
    Number of shells: 32
    Number of basis function: 92
    Number of Cartesian functions: 105
    Spherical Harmonics?: true
    Max angular momentum: 3

   => Loading Basis Set <=

    Name: (AUG-CC-PVTZ AUX)
    Role: JKFIT
    Keyword: DF_BASIS_SCF
    atoms 1   entry O          line   286 file /home/liuchw/anaconda3/envs/psi4env/share/psi4/basis/aug-cc-pvtz-jkfit.gbs 
    atoms 2-3 entry H          line    70 file /home/liuchw/anaconda3/envs/psi4env/share/psi4/basis/aug-cc-pvtz-jkfit.gbs 

  ==> Pre-Iterations <==

   -------------------------------------------------------
    Irrep   Nso     Nmo     Nalpha   Nbeta   Ndocc  Nsocc
   -------------------------------------------------------
     A         92      92       0       0       0       0
   -------------------------------------------------------
    Total      92      92       5       5       5       0
   -------------------------------------------------------

  ==> Integral Setup <==

  DFHelper Memory: AOs need 0.015 GiB; user supplied 34.925 GiB. Using in-core AOs.

  ==> MemDFJK: Density-Fitted J/K Matrices <==

    J tasked:                   Yes
    K tasked:                   Yes
    wK tasked:                   No
    OpenMP threads:               8
    Memory [MiB]:             35762
    Algorithm:                 Core
    Schwarz Cutoff:           1E-12
    Mask sparsity (%):       0.0000
    Fitting Condition:        1E-10

   => Auxiliary Basis Set <=

  Basis Set: (AUG-CC-PVTZ AUX)
    Blend: AUG-CC-PVTZ-JKFIT
    Number of shells: 58
    Number of basis function: 196
    Number of Cartesian functions: 241
    Spherical Harmonics?: true
    Max angular momentum: 4

  Minimum eigenvalue in the overlap matrix is 4.2462863189E-04.
  Using Symmetric Orthogonalization.

  SCF Guess: Superposition of Atomic Densities via on-the-fly atomic UHF.

  ==> Iterations <==

                           Total Energy        Delta E     RMS |[F,P]|

   @DF-RHF iter SAD:   -75.46065990977995   -7.54607e+01   0.00000e+00 
   @DF-RHF iter   1:   -75.96530931637515   -5.04649e-01   5.08546e-03 DIIS
   @DF-RHF iter   2:   -76.01718692170618   -5.18776e-02   3.62407e-03 DIIS
   @DF-RHF iter   3:   -76.05211066732132   -3.49237e-02   2.42894e-04 DIIS
   @DF-RHF iter   4:   -76.05251840940522   -4.07742e-04   6.27663e-05 DIIS
   @DF-RHF iter   5:   -76.05255013935674   -3.17300e-05   1.53760e-05 DIIS
   @DF-RHF iter   6:   -76.05255303786925   -2.89851e-06   3.23222e-06 DIIS
   @DF-RHF iter   7:   -76.05255317114214   -1.33273e-07   4.85235e-07 DIIS
   @DF-RHF iter   8:   -76.05255317363233   -2.49020e-09   7.79618e-08 DIIS
   @DF-RHF iter   9:   -76.05255317367515   -4.28173e-11   1.31709e-08 DIIS
   @DF-RHF iter  10:   -76.05255317367673   -1.57740e-12   2.55244e-09 DIIS
  Energy and wave function converged.


  ==> Post-Iterations <==

    Orbital Energies [Eh]
    ---------------------

    Doubly Occupied:                                                      

       1A    -20.577382     2A     -1.349171     3A     -0.677106  
       4A     -0.605035     5A     -0.511911  

    Virtual:                                                              

       6A      0.028116     7A      0.048413     8A      0.133471  
       9A      0.161756    10A      0.176474    11A      0.186297  
      12A      0.220517    13A      0.245592    14A      0.270103  
      15A      0.286595    16A      0.303272    17A      0.367351  
      18A      0.430098    19A      0.459187    20A      0.590843  
      21A      0.667544    22A      0.697345    23A      0.726622  
      24A      0.733669    25A      0.837797    26A      0.862163  
      27A      0.901269    28A      0.904794    29A      0.906375  
      30A      0.923156    31A      0.939105    32A      0.941638  
      33A      1.008617    34A      1.032794    35A      1.074346  
      36A      1.102386    37A      1.179684    38A      1.194403  
      39A      1.274551    40A      1.449130    41A      1.508404  
      42A      1.537073    43A      1.831066    44A      1.888236  
      45A      1.938073    46A      2.127685    47A      2.266192  
      48A      2.311329    49A      2.332715    50A      2.411130  
      51A      2.412283    52A      2.447626    53A      2.509822  
      54A      2.673270    55A      2.705903    56A      2.717454  
      57A      2.823230    58A      2.865524    59A      3.535599  
      60A      3.652880    61A      4.012327    62A      4.044696  
      63A      4.089114    64A      4.093985    65A      4.282447  
      66A      4.361495    67A      4.369476    68A      4.399409  
      69A      4.560859    70A      4.737961    71A      4.806417  
      72A      5.059603    73A      5.093552    74A      5.152766  
      75A      5.386453    76A      5.485403    77A      5.511204  
      78A      6.258710    79A      6.454132    80A      6.691813  
      81A      6.990987    82A      7.062807    83A      7.094808  
      84A      7.267238    85A      7.276356    86A      7.325756  
      87A      7.422908    88A      7.447261    89A      7.720724  
      90A      7.926518    91A      8.758799    92A     15.044851  

    Final Occupation by Irrep:
              A 
    DOCC [     5 ]

  @DF-RHF Final Energy:   -76.05255317367673

   => Energetics <=

    Nuclear Repulsion Energy =              8.9707074921725383
    One-Electron Energy =                -122.6053098776536103
    Two-Electron Energy =                  37.5820492118043461
    Total Energy =                        -76.0525531736767277

Computation Completed


Properties will be evaluated at   0.000000,   0.000000,   0.000000 [a0]

Properties computed using the SCF density matrix

  Nuclear Dipole Moment: [e a0]
     X:     8.6250      Y:    -9.0339      Z:    40.6461

  Electronic Dipole Moment: [e a0]
     X:    -8.8470      Y:     9.1499      Z:   -41.4785

  Dipole Moment: [e a0]
     X:    -0.2220      Y:     0.1160      Z:    -0.8323     Total:     0.8692

  Dipole Moment: [D]
     X:    -0.5643      Y:     0.2949      Z:    -2.1156     Total:     2.2093


*** tstop() called on node73.bme.utexas.edu at Wed Apr 15 04:48:34 2020
Module time:
	user time   =       7.90 seconds =       0.13 minutes
	system time =       0.48 seconds =       0.01 minutes
	total time  =          1 seconds =       0.02 minutes
Total time:
	user time   =      65.98 seconds =       1.10 minutes
	system time =       5.53 seconds =       0.09 minutes
	total time  =         16 seconds =       0.27 minutes
 MINTS: Wrapper to libmints.
   by Justin Turney

   Calculation information:
      Number of threads:                 8
      Number of atoms:                   3
      Number of AO shells:              32
      Number of SO shells:              32
      Number of primitives:             52
      Number of atomic orbitals:       105
      Number of basis functions:        92

      Number of irreps:                  1
      Integral cutoff                 0.00e+00
      Number of functions per irrep: [  92 ]

 OEINTS: Overlap, kinetic, potential, dipole, and quadrupole integrals
         stored in file 35.

      Computing two-electron integrals...done
      Computed 8712454 non-zero two-electron integrals.
        Stored in file 33.


*** tstart() called on node73.bme.utexas.edu
*** at Wed Apr 15 04:48:36 2020


	Wfn Parameters:
	--------------------
	Wavefunction         = CCSD_T
	Number of irreps     = 1
	Number of MOs        = 92
	Number of active MOs = 92
	AO-Basis             = NONE
	Semicanonical        = false
	Reference            = RHF
	Print Level          = 1

	IRREP	# MOs	# FZDC	# DOCC	# SOCC	# VIRT	# FZVR
	-----	-----	------	------	------	------	------
	 A	   92	    0	    5	    0	    87	    0
	Transforming integrals...
	IWL integrals will be deleted.
	(OO|OO)...
	Presorting SO-basis two-electron integrals.
	Sorting File: SO Ints (nn|nn) nbuckets = 1
	Transforming the one-electron integrals and constructing Fock matrices
	Starting first half-transformation.
	Sorting half-transformed integrals.
	First half integral transformation complete.
	Starting second half-transformation.
	Two-electron integral transformation complete.
	(OO|OV)...
	Starting second half-transformation.
	Two-electron integral transformation complete.
	(OO|VV)...
	Starting second half-transformation.
	Two-electron integral transformation complete.
	(OV|OO)...
	Starting first half-transformation.
	Sorting half-transformed integrals.
	First half integral transformation complete.
	Starting second half-transformation.
	Two-electron integral transformation complete.
	(OV|OV)...
	Starting second half-transformation.
	Two-electron integral transformation complete.
	(OV|VV)...
	Starting second half-transformation.
	Two-electron integral transformation complete.
	(VV|OO)...
	Starting first half-transformation.
	Sorting half-transformed integrals.
	First half integral transformation complete.
	Starting second half-transformation.
	Two-electron integral transformation complete.
	(VV|OV)...
	Starting second half-transformation.
	Two-electron integral transformation complete.
	(VV|VV)...
	Starting second half-transformation.
	Two-electron integral transformation complete.
	Frozen core energy     =      0.00000000000000

	Size of irrep 0 of <ab|cd> integrals:     57.290 (MW) /    458.318 (MB)
	Total:                                    57.290 (MW) /    458.318 (MB)

	Size of irrep 0 of <ia|bc> integrals:      3.293 (MW) /     26.340 (MB)
	Total:                                     3.293 (MW) /     26.340 (MB)

	Size of irrep 0 of tijab amplitudes:       0.189 (MW) /      1.514 (MB)
	Total:                                     0.189 (MW) /      1.514 (MB)

	Nuclear Rep. energy          =      8.97070749217254
	SCF energy                   =    -76.05255317367673
	One-electron energy          =   -122.60530974464213
	Two-electron energy          =     37.58204274589971
	Reference energy             =    -76.05255950656989

*** tstop() called on node73.bme.utexas.edu at Wed Apr 15 04:48:43 2020
Module time:
	user time   =      27.42 seconds =       0.46 minutes
	system time =       3.86 seconds =       0.06 minutes
	total time  =          7 seconds =       0.12 minutes
Total time:
	user time   =      97.03 seconds =       1.62 minutes
	system time =       9.76 seconds =       0.16 minutes
	total time  =         25 seconds =       0.42 minutes
            **************************
            *                        *
            *        CCENERGY        *
            *                        *
            **************************

    Nuclear Rep. energy (wfn)     =    8.970707492172538
    SCF energy          (wfn)     =  -76.052553173676728
    Reference energy    (file100) =  -76.052559506569892

    Input parameters:
    -----------------
    Wave function   =     CCSD_T
    Reference wfn   =     RHF
    Brueckner       =     No
    Memory (Mbytes) =     50000.0
    Maxiter         =     50
    R_Convergence   =     1.0e-07
    E_Convergence   =     1.0e-07
    Restart         =     Yes
    DIIS            =     Yes
    AO Basis        =     NONE
    ABCD            =     NEW
    Cache Level     =     2
    Cache Type      =     LOW
    Print Level     =     1
    Num. of threads =     8
    # Amps to Print =     10
    Print MP2 Amps? =     No
    Analyze T2 Amps =     No
    Print Pair Ener =     No
    Local CC        =     No
    SCS-MP2         =     False
    SCSN-MP2        =     False
    SCS-CCSD        =     False

MP2 correlation energy -0.2869819547094632
                Solving CC Amplitude Equations
                ------------------------------
  Iter             Energy              RMS        T1Diag      D1Diag    New D1Diag    D2Diag
  ----     ---------------------    ---------   ----------  ----------  ----------   --------
     0        -0.286981954709463    0.000e+00    0.000000    0.000000    0.000000    0.121956
     1        -0.284308147498827    3.713e-02    0.008001    0.018233    0.018233    0.124210
     2        -0.289687944420072    1.339e-02    0.007827    0.018036    0.018036    0.129172
     3        -0.291163909647431    5.257e-03    0.009121    0.021625    0.021625    0.131669
     4        -0.291017688573583    1.119e-03    0.009284    0.022124    0.022124    0.131892
     5        -0.291035632318751    4.005e-04    0.009374    0.022452    0.022452    0.131967
     6        -0.291041332266762    9.747e-05    0.009396    0.022538    0.022538    0.131963
     7        -0.291039060359035    3.281e-05    0.009400    0.022559    0.022559    0.131954
     8        -0.291038716857935    8.971e-06    0.009401    0.022566    0.022566    0.131952
     9        -0.291038769503930    2.643e-06    0.009402    0.022568    0.022568    0.131952
    10        -0.291038595654369    9.124e-07    0.009402    0.022568    0.022568    0.131952
    11        -0.291038610806582    2.366e-07    0.009402    0.022568    0.022568    0.131952
    12        -0.291038602750324    9.266e-08    0.009402    0.022568    0.022568    0.131952

    Iterations converged.


    Largest TIA Amplitudes:
              4   3        -0.0157766117
              4   9        -0.0138304619
              3   2         0.0077716855
              3  10        -0.0066614387
              4  17        -0.0047333979
              4  56         0.0044737750
              2  39         0.0042781093
              2  38         0.0041866267
              3   7        -0.0041244026
              2  28         0.0039784691

    Largest TIjAb Amplitudes:
      2   2  13  13        -0.0257791564
      4   4  29  29        -0.0164528308
      2   2  13  28         0.0163643644
      2   2  28  13         0.0163643644
      3   3  21  21        -0.0145866816
      2   2  14  14        -0.0144165213
      2   2   6  13         0.0143176379
      2   2  13   6         0.0143176379
      2   2   5  13         0.0139889849
      2   2  13   5         0.0139889849

    SCF energy       (wfn)                    =  -76.052553173676728
    Reference energy (file100)                =  -76.052559506569892

    Opposite-spin MP2 correlation energy      =   -0.217712699475339
    Same-spin MP2 correlation energy          =   -0.069269255234125
    MP2 correlation energy                    =   -0.286981954709463
      * MP2 total energy                      =  -76.339541461279353

    Opposite-spin CCSD correlation energy     =   -0.229709087522182
    Same-spin CCSD correlation energy         =   -0.061329515228142
    CCSD correlation energy                   =   -0.291038602750324
      * CCSD total energy                     =  -76.343598109320212

            **************************
            *                        *
            *        CCTRIPLES       *
            *                        *
            **************************


    Wave function   =    CCSD_T
    Reference wfn   =      RHF

    Nuclear Rep. energy (wfn)                =    8.970707492172538
    SCF energy          (wfn)                =  -76.052553173676728
    Reference energy    (file100)            =  -76.052559506569892
    CCSD energy         (file100)            =   -0.291038602750324
    Total CCSD energy   (file100)            =  -76.343598109320212

    Number of ijk index combinations:               35
    Memory available in words        :      6250000000
    ~Words needed per explicit thread:         2634012
    Number of threads for explicit ijk threading:    8

    MKL num_threads set to 1 for explicit threading.

    (T) energy                                =   -0.009188370038075
      * CCSD(T) total energy                  =  -76.352786479358286


  //>>>>>>>>>>>>>>>>>>>>>>>>>>>>>>>>>>>//
  //    CBS Results: custom function   //
  //<<<<<<<<<<<<<<<<<<<<<<<<<<<<<<<<<<<//


   ==> HF <==

   HI-zeta (4) Energy:               -76.057823898592


   ==> Helgaker 2-point correlated extrapolation for method: MP2 <==

   LO-zeta (3) Energy:               -76.339541461279
   HI-zeta (4) Energy:               -76.377953687247
   Alpha (exponent) Value:             3.000000000000
   Extrapolated Energy:              -76.405984230520

   @Extrapolated MP2/(T,Q):          -76.405984230520



   ==> Helgaker 2-point correlated extrapolation for method: HF <==

   LO-zeta (3) Energy:               -76.052553173677
   HI-zeta (4) Energy:               -76.057823898592
   Alpha (exponent) Value:             3.000000000000
   Extrapolated Energy:              -76.061670103260

   @Extrapolated HF/(T,Q):           -76.061670103260



   ==> Helgaker 2-point correlated extrapolation for method: CCSD(T) <==

   LO-zeta (2) Energy:               -76.271988367251
   HI-zeta (3) Energy:               -76.352786479358
   Alpha (exponent) Value:             3.000000000000
   Extrapolated Energy:              -76.386806737088

   @Extrapolated CCSD(T)/(D,T):      -76.386806737088



   ==> Helgaker 2-point correlated extrapolation for method: MP2 <==

   LO-zeta (2) Energy:               -76.259320481142
   HI-zeta (3) Energy:               -76.339541461279
   Alpha (exponent) Value:             3.000000000000
   Extrapolated Energy:              -76.373318716074

   @Extrapolated MP2/(D,T):          -76.373318716074


   ==> Components <==

  ---------------------------------------------------------------------------------------------------------
                          Method / Basis                      Rqd      Energy [Eh]   Variable
  ---------------------------------------------------------------------------------------------------------
                              hf / aug-cc-pvqz                  *     -76.05782390   HF TOTAL ENERGY
                             mp2 / aug-cc-pvqz                  *     -76.37795369   MP2 TOTAL ENERGY
                              hf / aug-cc-pvdz                        -76.03373392   HF TOTAL ENERGY
                             mp2 / aug-cc-pvdz                  *     -76.25932048   MP2 TOTAL ENERGY
                            ccsd / aug-cc-pvdz                        -76.26642575   CCSD TOTAL ENERGY
                         ccsd(t) / aug-cc-pvdz                  *     -76.27198837   CCSD(T) TOTAL ENERGY
                              hf / aug-cc-pvtz                  *     -76.05255317   HF TOTAL ENERGY
                             mp2 / aug-cc-pvtz                  *     -76.33954146   MP2 TOTAL ENERGY
                            ccsd / aug-cc-pvtz                        -76.34359811   CCSD TOTAL ENERGY
                         ccsd(t) / aug-cc-pvtz                  *     -76.35278648   CCSD(T) TOTAL ENERGY
  ---------------------------------------------------------------------------------------------------------

   ==> Stages <==

  ---------------------------------------------------------------------------------------------------------
      Stage               Method / Basis                       Wt      Energy [Eh]   Scheme
  ---------------------------------------------------------------------------------------------------------
        scf                   hf / aug-cc-pvqz                  1     -76.05782390   xtpl_highest_1
       corl                  mp2 / aug-cc-pv[tq]z               1     -76.40598423   corl_xtpl_helgaker_2
       corl                   hf / aug-cc-pv[tq]z              -1     -76.06167010   corl_xtpl_helgaker_2
     delta1              ccsd(t) / aug-cc-pv[dt]z               1     -76.38680674   corl_xtpl_helgaker_2
     delta1                  mp2 / aug-cc-pv[dt]z              -1     -76.37331872   corl_xtpl_helgaker_2
  ---------------------------------------------------------------------------------------------------------

   ==> CBS <==

  ---------------------------------------------------------------------------------------------------------
      Stage               Method / Basis                               Energy [Eh]   Scheme
  ---------------------------------------------------------------------------------------------------------
        scf                   hf / aug-cc-pvqz                        -76.05782390   xtpl_highest_1
       corl                  mp2 / aug-cc-pv[tq]z                      -0.34431413   corl_xtpl_helgaker_2
     delta1        ccsd(t) - mp2 / aug-cc-pv[dt]z                      -0.01348802   corl_xtpl_helgaker_2
      total                  CBS                                      -76.41562605   
  ---------------------------------------------------------------------------------------------------------
   => Loading Basis Set <=

    Name: DEF2-SVP
    Role: ORBITAL
    Keyword: BASIS
    atoms 1   entry O          line   130 file /home/liuchw/anaconda3/envs/psi4env/share/psi4/basis/def2-svp.gbs 
    atoms 2-3 entry H          line    15 file /home/liuchw/anaconda3/envs/psi4env/share/psi4/basis/def2-svp.gbs 


       N-Body: Complex Energy (fragments = (2,), basis = (2,):   -76.41562604686635)

       N-Body: Computing complex (2/4) with fragments (2,) in the basis of fragments (1, 2).


Scratch directory: /scratch/liuchw/

  //>>>>>>>>>>>>>>>>>>>>>>>>>>>>>>>>>>>//
  //     CBS Setup: custom function    //
  //<<<<<<<<<<<<<<<<<<<<<<<<<<<<<<<<<<<//

    Naive listing of computations required.
             hf / aug-cc-pvqz              for  HF TOTAL ENERGY
            mp2 / aug-cc-pvtz              for  MP2 TOTAL ENERGY
            mp2 / aug-cc-pvqz              for  MP2 TOTAL ENERGY
             hf / aug-cc-pvtz              for  HF TOTAL ENERGY
             hf / aug-cc-pvqz              for  HF TOTAL ENERGY
        ccsd(t) / aug-cc-pvdz              for  CCSD(T) TOTAL ENERGY
        ccsd(t) / aug-cc-pvtz              for  CCSD(T) TOTAL ENERGY
            mp2 / aug-cc-pvdz              for  MP2 TOTAL ENERGY
            mp2 / aug-cc-pvtz              for  MP2 TOTAL ENERGY

    Enlightened listing of computations required.
            mp2 / aug-cc-pvqz              for  MP2 TOTAL ENERGY
        ccsd(t) / aug-cc-pvdz              for  CCSD(T) TOTAL ENERGY
        ccsd(t) / aug-cc-pvtz              for  CCSD(T) TOTAL ENERGY

    Full listing of computations to be obtained (required and bonus).
             hf / aug-cc-pvqz              for  HF TOTAL ENERGY
            mp2 / aug-cc-pvqz              for  MP2 TOTAL ENERGY
             hf / aug-cc-pvdz              for  HF TOTAL ENERGY
            mp2 / aug-cc-pvdz              for  MP2 TOTAL ENERGY
           ccsd / aug-cc-pvdz              for  CCSD TOTAL ENERGY
        ccsd(t) / aug-cc-pvdz              for  CCSD(T) TOTAL ENERGY
             hf / aug-cc-pvtz              for  HF TOTAL ENERGY
            mp2 / aug-cc-pvtz              for  MP2 TOTAL ENERGY
           ccsd / aug-cc-pvtz              for  CCSD TOTAL ENERGY
        ccsd(t) / aug-cc-pvtz              for  CCSD(T) TOTAL ENERGY

  //>>>>>>>>>>>>>>>>>>>>>>>>>>>>>>>>>>>>//
  // CBS Computation: MP2 / AUG-CC-PVQZ //
  //<<<<<<<<<<<<<<<<<<<<<<<<<<<<<<<<<<<<//


Scratch directory: /scratch/liuchw/

*** tstart() called on node73.bme.utexas.edu
*** at Wed Apr 15 04:48:56 2020

   => Loading Basis Set <=

    Name: AUG-CC-PVQZ
    Role: ORBITAL
    Keyword: BASIS
    atoms 1      entry P          line  1030 file /home/liuchw/anaconda3/envs/psi4env/share/psi4/basis/aug-cc-pvqz.gbs 
    atoms 2-5, 7 entry O          line   423 file /home/liuchw/anaconda3/envs/psi4env/share/psi4/basis/aug-cc-pvqz.gbs 
    atoms 6, 8-9 entry H          line    40 file /home/liuchw/anaconda3/envs/psi4env/share/psi4/basis/aug-cc-pvqz.gbs 


         ---------------------------------------------------------
                                   SCF
               by Justin Turney, Rob Parrish, Andy Simmonett
                          and Daniel G. A. Smith
                              RHF Reference
                        8 Threads,  47683 MiB Core
         ---------------------------------------------------------

  ==> Geometry <==

    Molecular point group: c1
    Full point group: C1

    Geometry (in Angstrom), charge = 0, multiplicity = 1:

       Center              X                  Y                   Z               Mass       
    ------------   -----------------  -----------------  -----------------  -----------------
      Gh(P)          -0.081106471559    -0.047731031786    -0.411088099009    30.973761998420
      Gh(O)           1.372608528441     0.107282968214     0.105334900991    15.994914619570
      Gh(O)          -0.456044471559     1.623612968214    -0.703732099009    15.994914619570
      Gh(O)          -1.059369471559    -0.488295031786     0.689101900991    15.994914619570
      Gh(O)          -0.253815471559    -0.727847031786    -1.760872099009    15.994914619570
      Gh(H)           0.354204528441     1.984806968214    -0.332536099009     1.007825032230
         O            0.491562528441    -0.496378031786     2.282430900991    15.994914619570
         H            0.987148528441    -0.252750031786     1.467803900991     1.007825032230
         H           -0.355478471559    -0.556764031786     1.781748900991     1.007825032230

  Running in c1 symmetry.

  Rotational constants: A =      0.15156  B =      0.07654  C =      0.07372 [cm^-1]
  Rotational constants: A =   4543.64287  B =   2294.58830  C =   2210.08293 [MHz]
  Nuclear repulsion =    8.970707492172538

  Charge       = 0
  Multiplicity = 1
  Electrons    = 10
  Nalpha       = 5
  Nbeta        = 5

  ==> Algorithm <==

  SCF Algorithm Type is DF.
  DIIS enabled.
  MOM disabled.
  Fractional occupation disabled.
  Guess Type is SAD.
  Energy threshold   = 1.00e-07
  Density threshold  = 1.00e-08
  Integral threshold = 0.00e+00

  ==> Primary Basis <==

  Basis Set: AUG-CC-PVQZ
    Blend: AUG-CC-PVQZ
    Number of shells: 164
    Number of basis function: 622
    Number of Cartesian functions: 799
    Spherical Harmonics?: true
    Max angular momentum: 4

   => Loading Basis Set <=

    Name: (AUG-CC-PVQZ AUX)
    Role: JKFIT
    Keyword: DF_BASIS_SCF
    atoms 1      entry P          line   716 file /home/liuchw/anaconda3/envs/psi4env/share/psi4/basis/aug-cc-pvqz-jkfit.gbs 
    atoms 2-5, 7 entry O          line   318 file /home/liuchw/anaconda3/envs/psi4env/share/psi4/basis/aug-cc-pvqz-jkfit.gbs 
    atoms 6, 8-9 entry H          line    70 file /home/liuchw/anaconda3/envs/psi4env/share/psi4/basis/aug-cc-pvqz-jkfit.gbs 

  ==> Pre-Iterations <==

   -------------------------------------------------------
    Irrep   Nso     Nmo     Nalpha   Nbeta   Ndocc  Nsocc
   -------------------------------------------------------
     A        622     622       0       0       0       0
   -------------------------------------------------------
    Total     622     622       5       5       5       0
   -------------------------------------------------------

  ==> Integral Setup <==

  DFHelper Memory: AOs need 3.228 GiB; user supplied 34.925 GiB. Using in-core AOs.

  ==> MemDFJK: Density-Fitted J/K Matrices <==

    J tasked:                   Yes
    K tasked:                   Yes
    wK tasked:                   No
    OpenMP threads:               8
    Memory [MiB]:             35762
    Algorithm:                 Core
    Schwarz Cutoff:           1E-12
    Mask sparsity (%):       4.1232
    Fitting Condition:        1E-10

   => Auxiliary Basis Set <=

  Basis Set: (AUG-CC-PVQZ AUX)
    Blend: AUG-CC-PVQZ-JKFIT
    Number of shells: 270
    Number of basis function: 1122
    Number of Cartesian functions: 1540
    Spherical Harmonics?: true
    Max angular momentum: 5

  Minimum eigenvalue in the overlap matrix is 1.9718775775E-05.
  Using Symmetric Orthogonalization.

  SCF Guess: Superposition of Atomic Densities via on-the-fly atomic UHF.

  ==> Iterations <==

                           Total Energy        Delta E     RMS |[F,P]|

   @DF-RHF iter SAD:   -75.46572025469122   -7.54657e+01   0.00000e+00 
   @DF-RHF iter   1:   -75.97034808851197   -5.04628e-01   7.53952e-04 DIIS
   @DF-RHF iter   2:   -76.02231034439824   -5.19623e-02   5.38292e-04 DIIS
   @DF-RHF iter   3:   -76.05743368939514   -3.51233e-02   3.62484e-05 DIIS
   @DF-RHF iter   4:   -76.05784379947387   -4.10110e-04   9.53833e-06 DIIS
   @DF-RHF iter   5:   -76.05787655831305   -3.27588e-05   2.33181e-06 DIIS
   @DF-RHF iter   6:   -76.05787956560049   -3.00729e-06   5.06626e-07 DIIS
   @DF-RHF iter   7:   -76.05787971585445   -1.50254e-07   7.91310e-08 DIIS
   @DF-RHF iter   8:   -76.05787971889423   -3.03977e-09   1.20506e-08 DIIS
   @DF-RHF iter   9:   -76.05787971894340   -4.91696e-11   2.05885e-09 DIIS
  Energy and wave function converged.


  ==> Post-Iterations <==

    Orbital Energies [Eh]
    ---------------------

    Doubly Occupied:                                                      

       1A    -20.574853     2A     -1.348376     3A     -0.677036  
       4A     -0.605027     5A     -0.512031  

    Virtual:                                                              

       6A      0.014178     7A      0.037994     8A      0.042159  
       9A      0.047320    10A      0.063791    11A      0.066296  
      12A      0.068152    13A      0.101857    14A      0.108809  
      15A      0.111165    16A      0.121550    17A      0.137104  
      18A      0.142229    19A      0.151763    20A      0.157163  
      21A      0.161871    22A      0.164171    23A      0.169399  
      24A      0.178181    25A      0.181155    26A      0.183703  
      27A      0.185560    28A      0.194527    29A      0.223440  
      30A      0.225061    31A      0.228123    32A      0.233313  
      33A      0.241235    34A      0.255090    35A      0.268241  
      36A      0.277229    37A      0.286339    38A      0.299184  
      39A      0.306423    40A      0.313532    41A      0.321229  
      42A      0.330647    43A      0.339725    44A      0.345917  
      45A      0.354970    46A      0.375096    47A      0.384135  
      48A      0.393261    49A      0.400511    50A      0.413826  
      51A      0.435925    52A      0.437897    53A      0.455909  
      54A      0.465397    55A      0.476663    56A      0.490310  
      57A      0.506470    58A      0.518303    59A      0.520022  
      60A      0.527196    61A      0.533489    62A      0.543982  
      63A      0.557421    64A      0.563734    65A      0.569761  
      66A      0.579637    67A      0.597921    68A      0.605285  
      69A      0.610910    70A      0.615595    71A      0.618792  
      72A      0.635735    73A      0.644637    74A      0.648322  
      75A      0.655506    76A      0.661270    77A      0.667167  
      78A      0.673152    79A      0.677227    80A      0.691842  
      81A      0.710508    82A      0.720231    83A      0.722391  
      84A      0.731802    85A      0.740338    86A      0.755563  
      87A      0.759728    88A      0.767030    89A      0.783553  
      90A      0.786706    91A      0.796992    92A      0.814353  
      93A      0.829443    94A      0.833758    95A      0.855960  
      96A      0.868321    97A      0.874473    98A      0.891475  
      99A      0.895470   100A      0.904951   101A      0.915068  
     102A      0.924436   103A      0.939877   104A      0.947480  
     105A      0.961319   106A      0.974783   107A      0.984250  
     108A      0.991095   109A      1.004635   110A      1.018149  
     111A      1.030499   112A      1.037837   113A      1.043549  
     114A      1.063210   115A      1.082267   116A      1.088001  
     117A      1.103573   118A      1.114220   119A      1.128158  
     120A      1.135411   121A      1.144312   122A      1.166614  
     123A      1.181468   124A      1.201415   125A      1.208670  
     126A      1.226555   127A      1.239720   128A      1.248009  
     129A      1.261152   130A      1.275138   131A      1.293037  
     132A      1.303935   133A      1.333334   134A      1.335327  
     135A      1.382448   136A      1.410580   137A      1.426253  
     138A      1.430646   139A      1.462262   140A      1.463218  
     141A      1.502195   142A      1.508256   143A      1.511776  
     144A      1.514915   145A      1.549255   146A      1.558936  
     147A      1.567020   148A      1.582971   149A      1.593332  
     150A      1.605722   151A      1.616836   152A      1.625325  
     153A      1.640256   154A      1.648232   155A      1.663867  
     156A      1.669084   157A      1.676352   158A      1.698188  
     159A      1.699309   160A      1.718727   161A      1.722326  
     162A      1.737170   163A      1.744535   164A      1.761440  
     165A      1.766640   166A      1.780370   167A      1.792316  
     168A      1.800518   169A      1.812234   170A      1.818356  
     171A      1.831620   172A      1.833832   173A      1.857607  
     174A      1.866417   175A      1.872950   176A      1.883855  
     177A      1.889283   178A      1.900705   179A      1.920873  
     180A      1.926965   181A      1.938159   182A      1.956112  
     183A      1.958790   184A      1.971740   185A      1.980080  
     186A      1.985965   187A      2.012963   188A      2.018492  
     189A      2.026255   190A      2.044684   191A      2.068318  
     192A      2.071263   193A      2.087162   194A      2.093285  
     195A      2.094333   196A      2.126970   197A      2.139000  
     198A      2.145539   199A      2.158167   200A      2.160670  
     201A      2.164452   202A      2.189366   203A      2.211154  
     204A      2.217230   205A      2.230562   206A      2.235785  
     207A      2.248113   208A      2.279156   209A      2.285568  
     210A      2.291838   211A      2.315923   212A      2.340033  
     213A      2.348415   214A      2.359374   215A      2.371713  
     216A      2.394695   217A      2.409947   218A      2.441255  
     219A      2.455882   220A      2.479374   221A      2.499977  
     222A      2.501522   223A      2.505336   224A      2.534599  
     225A      2.550945   226A      2.568131   227A      2.585542  
     228A      2.603977   229A      2.620811   230A      2.656694  
     231A      2.670085   232A      2.683303   233A      2.713924  
     234A      2.732298   235A      2.735267   236A      2.750395  
     237A      2.771478   238A      2.788839   239A      2.815228  
     240A      2.833489   241A      2.846662   242A      2.863500  
     243A      2.878835   244A      2.918829   245A      2.945095  
     246A      2.972713   247A      2.995428   248A      3.015038  
     249A      3.039354   250A      3.058843   251A      3.062046  
     252A      3.074195   253A      3.119129   254A      3.135164  
     255A      3.140346   256A      3.168278   257A      3.204039  
     258A      3.236541   259A      3.249789   260A      3.265590  
     261A      3.276223   262A      3.293027   263A      3.308717  
     264A      3.358501   265A      3.366426   266A      3.398448  
     267A      3.403565   268A      3.427699   269A      3.479054  
     270A      3.498333   271A      3.519877   272A      3.539986  
     273A      3.561584   274A      3.630492   275A      3.637238  
     276A      3.653069   277A      3.688512   278A      3.719164  
     279A      3.756597   280A      3.763930   281A      3.801182  
     282A      3.828596   283A      3.853145   284A      3.869886  
     285A      3.890835   286A      3.902865   287A      3.928502  
     288A      3.946521   289A      3.956157   290A      3.973431  
     291A      3.999777   292A      4.022026   293A      4.047133  
     294A      4.064875   295A      4.147073   296A      4.153156  
     297A      4.170044   298A      4.193673   299A      4.214313  
     300A      4.233922   301A      4.260059   302A      4.272103  
     303A      4.301921   304A      4.316431   305A      4.343109  
     306A      4.356389   307A      4.363774   308A      4.368888  
     309A      4.392649   310A      4.402857   311A      4.414190  
     312A      4.436157   313A      4.445388   314A      4.457773  
     315A      4.482118   316A      4.490745   317A      4.505429  
     318A      4.519256   319A      4.552374   320A      4.554326  
     321A      4.571634   322A      4.599264   323A      4.605681  
     324A      4.626692   325A      4.644955   326A      4.650947  
     327A      4.657980   328A      4.681574   329A      4.696457  
     330A      4.704817   331A      4.726000   332A      4.734999  
     333A      4.748460   334A      4.756299   335A      4.779246  
     336A      4.788642   337A      4.790193   338A      4.797526  
     339A      4.816978   340A      4.875622   341A      4.880949  
     342A      4.903331   343A      4.919475   344A      4.927851  
     345A      4.950024   346A      4.953753   347A      4.989828  
     348A      5.005748   349A      5.016171   350A      5.038721  
     351A      5.072051   352A      5.101569   353A      5.104888  
     354A      5.124464   355A      5.137722   356A      5.163483  
     357A      5.175893   358A      5.187688   359A      5.207525  
     360A      5.212922   361A      5.227895   362A      5.243874  
     363A      5.267488   364A      5.289044   365A      5.310455  
     366A      5.339146   367A      5.379678   368A      5.394255  
     369A      5.419846   370A      5.471185   371A      5.499626  
     372A      5.514509   373A      5.518991   374A      5.563124  
     375A      5.605086   376A      5.647005   377A      5.650358  
     378A      5.733008   379A      5.736230   380A      5.800526  
     381A      5.815480   382A      5.841556   383A      5.862283  
     384A      5.905608   385A      5.937436   386A      5.941341  
     387A      5.986501   388A      6.013994   389A      6.061766  
     390A      6.091961   391A      6.113479   392A      6.153489  
     393A      6.176077   394A      6.211924   395A      6.267415  
     396A      6.281017   397A      6.300537   398A      6.345122  
     399A      6.354564   400A      6.386213   401A      6.394368  
     402A      6.427925   403A      6.438076   404A      6.466142  
     405A      6.496192   406A      6.520545   407A      6.565927  
     408A      6.603943   409A      6.674917   410A      6.726646  
     411A      6.739747   412A      6.775459   413A      6.819022  
     414A      6.840213   415A      6.871479   416A      6.897599  
     417A      6.914158   418A      6.919642   419A      6.963959  
     420A      6.964724   421A      6.987928   422A      7.026298  
     423A      7.044908   424A      7.076837   425A      7.110523  
     426A      7.115485   427A      7.175045   428A      7.238889  
     429A      7.253615   430A      7.275100   431A      7.359554  
     432A      7.378809   433A      7.417849   434A      7.433018  
     435A      7.463231   436A      7.588077   437A      7.633683  
     438A      7.679424   439A      7.724185   440A      7.784931  
     441A      7.915805   442A      7.995120   443A      8.035834  
     444A      8.132876   445A      8.171064   446A      8.222619  
     447A      8.238734   448A      8.307100   449A      8.328067  
     450A      8.352936   451A      8.469939   452A      8.528157  
     453A      8.577579   454A      8.681909   455A      8.774563  
     456A      8.846748   457A      8.917094   458A      8.944410  
     459A      8.983923   460A      9.010620   461A      9.085139  
     462A      9.268393   463A      9.274713   464A      9.382148  
     465A      9.531200   466A      9.568753   467A      9.599363  
     468A      9.611024   469A      9.760638   470A      9.850790  
     471A      9.963503   472A     10.030407   473A     10.055443  
     474A     10.175070   475A     10.264662   476A     10.376071  
     477A     10.578745   478A     10.708074   479A     10.905132  
     480A     10.944421   481A     11.040732   482A     11.090935  
     483A     11.235358   484A     11.317685   485A     11.408176  
     486A     11.413476   487A     11.475431   488A     11.581188  
     489A     11.597993   490A     11.608505   491A     11.673116  
     492A     11.789828   493A     11.796360   494A     11.824487  
     495A     11.856840   496A     11.876332   497A     11.882442  
     498A     11.896578   499A     11.907439   500A     11.914110  
     501A     11.925703   502A     11.955009   503A     11.967904  
     504A     11.987374   505A     12.003987   506A     12.006238  
     507A     12.043923   508A     12.051599   509A     12.055717  
     510A     12.108372   511A     12.132525   512A     12.139053  
     513A     12.155901   514A     12.179915   515A     12.199830  
     516A     12.217708   517A     12.249696   518A     12.299123  
     519A     12.313189   520A     12.332784   521A     12.357516  
     522A     12.392504   523A     12.409798   524A     12.443769  
     525A     12.509367   526A     12.548362   527A     12.586365  
     528A     12.762066   529A     12.827516   530A     12.971076  
     531A     13.099856   532A     13.134178   533A     13.165114  
     534A     13.241399   535A     13.273065   536A     13.391850  
     537A     13.460613   538A     13.903648   539A     14.053580  
     540A     14.065724   541A     14.098267   542A     14.225613  
     543A     14.240823   544A     14.258398   545A     14.283964  
     546A     14.296039   547A     14.321533   548A     14.341437  
     549A     14.362214   550A     14.394427   551A     14.424980  
     552A     14.438854   553A     14.456100   554A     14.480650  
     555A     14.499872   556A     14.567956   557A     14.594835  
     558A     14.608283   559A     14.658396   560A     14.733832  
     561A     14.795108   562A     14.880098   563A     14.901121  
     564A     14.942893   565A     14.965740   566A     14.992412  
     567A     15.090136   568A     15.153411   569A     15.389429  
     570A     15.532562   571A     15.594854   572A     15.696847  
     573A     15.895054   574A     16.209414   575A     17.059428  
     576A     17.454079   577A     17.550584   578A     17.562523  
     579A     17.606478   580A     17.635833   581A     17.705455  
     582A     17.716098   583A     17.745663   584A     17.764447  
     585A     17.832027   586A     17.868683   587A     17.913550  
     588A     17.944610   589A     18.099719   590A     18.145947  
     591A     18.286959   592A     18.498346   593A     18.515864  
     594A     18.656647   595A     19.036453   596A     19.335236  
     597A     20.505253   598A     20.567567   599A     20.793384  
     600A     21.074087   601A     21.332303   602A     21.698596  
     603A     21.730765   604A     22.526084   605A     22.650973  
     606A     22.770168   607A     22.932061   608A     23.060847  
     609A     23.412775   610A     23.601927   611A     23.749486  
     612A     23.913695   613A     24.829296   614A     24.921339  
     615A     25.510351   616A     32.885933   617A     46.049005  
     618A    122.457946   619A    123.401423   620A    123.472843  
     621A    124.089928   622A    124.356868  

    Final Occupation by Irrep:
              A 
    DOCC [     5 ]

  @DF-RHF Final Energy:   -76.05787971894340

   => Energetics <=

    Nuclear Repulsion Energy =              8.9707074921725383
    One-Electron Energy =                -122.6225269891407379
    Two-Electron Energy =                  37.5939397780248044
[...]
     241A      4.191013   242A      4.262442   243A      4.593977  
     244A      4.618442   245A      4.627710   246A      4.656134  
     247A      4.669173   248A      4.731902   249A      4.784612  
     250A      4.807668   251A      4.812844   252A      4.869875  
     253A      4.904170   254A      4.966426   255A      4.979024  
     256A      5.014339   257A      5.054327   258A      5.126423  
     259A      5.153660   260A      5.180606   261A      5.223997  
     262A      5.268728   263A      5.355392   264A      5.383468  
     265A      5.418366   266A      5.491769   267A      5.601171  
     268A      5.692326   269A      5.707330   270A      5.754948  
     271A      5.757882   272A      5.845077   273A      5.896795  
     274A      5.988391   275A      6.046362   276A      6.054233  
     277A      6.095713   278A      6.157374   279A      6.316744  
     280A      6.641245   281A      6.695845   282A      6.811708  
     283A      6.945820   284A      7.044014   285A      7.086427  
     286A      7.126469   287A      7.150837   288A      7.168005  
     289A      7.183699   290A      7.191794   291A      7.198658  
     292A      7.222991   293A      7.231454   294A      7.261705  
     295A      7.268780   296A      7.278141   297A      7.291697  
     298A      7.317907   299A      7.332978   300A      7.336425  
     301A      7.348339   302A      7.378104   303A      7.395553  
     304A      7.421088   305A      7.427003   306A      7.450960  
     307A      7.461276   308A      7.543093   309A      7.584907  
     310A      7.595661   311A      7.598175   312A      7.603415  
     313A      7.631935   314A      7.648943   315A      7.668877  
     316A      7.692654   317A      7.713813   318A      7.733187  
     319A      7.751860   320A      7.778733   321A      7.820492  
     322A      7.849929   323A      7.864635   324A      7.901958  
     325A      7.931718   326A      7.968384   327A      7.999310  
     328A      8.005012   329A      8.027694   330A      8.046108  
     331A      8.087137   332A      8.101566   333A      8.137694  
     334A      8.197256   335A      8.231055   336A      8.257942  
     337A      8.287768   338A      8.459840   339A      8.613489  
     340A      8.635248   341A      8.722600   342A      9.031294  
     343A      9.733909   344A     11.009288   345A     12.565719  
     346A     14.011741   347A     14.329855   348A     15.603709  
     349A     17.903248  

    Final Occupation by Irrep:
              A 
    DOCC [    30 ]

  @DF-RHF Final Energy:  -716.97802129555964

   => Energetics <=

    Nuclear Repulsion Energy =            353.8444758314846581
    One-Electron Energy =               -1720.8556697325302594
    Two-Electron Energy =                 650.0331726054859018
    Total Energy =                       -716.9780212955596426

Computation Completed


Properties will be evaluated at   0.000000,   0.000000,   0.000000 [a0]

Properties computed using the SCF density matrix

  Nuclear Dipole Moment: [e a0]
     X:     0.9993      Y:     1.1458      Z:     3.1158

  Electronic Dipole Moment: [e a0]
     X:    -1.0300      Y:    -0.1157      Z:    -3.6578

  Dipole Moment: [e a0]
     X:    -0.0307      Y:     1.0302      Z:    -0.5420     Total:     1.1644

  Dipole Moment: [D]
     X:    -0.0779      Y:     2.6184      Z:    -1.3775     Total:     2.9597


*** tstop() called on node73.bme.utexas.edu at Wed Apr 15 14:09:17 2020
Module time:
	user time   =      43.83 seconds =       0.73 minutes
	system time =       2.93 seconds =       0.05 minutes
	total time  =          7 seconds =       0.12 minutes
Total time:
	user time   =  120509.14 seconds =    2008.49 minutes
	system time =   16806.09 seconds =     280.10 minutes
	total time  =      33659 seconds =     560.98 minutes
 MINTS: Wrapper to libmints.
   by Justin Turney

   Calculation information:
      Number of threads:                 8
      Number of atoms:                   9
      Number of AO shells:             113
      Number of SO shells:             113
      Number of primitives:            247
      Number of atomic orbitals:       409
      Number of basis functions:       349

      Number of irreps:                  1
      Integral cutoff                 0.00e+00
      Number of functions per irrep: [ 349 ]

 OEINTS: Overlap, kinetic, potential, dipole, and quadrupole integrals
         stored in file 35.

      Computing two-electron integrals...done
      Computed 1862590282 non-zero two-electron integrals.
        Stored in file 33.


*** tstart() called on node73.bme.utexas.edu
*** at Wed Apr 15 14:13:19 2020


	Wfn Parameters:
	--------------------
	Wavefunction         = CCSD_T
	Number of irreps     = 1
	Number of MOs        = 349
	Number of active MOs = 349
	AO-Basis             = NONE
	Semicanonical        = false
	Reference            = RHF
	Print Level          = 1

	IRREP	# MOs	# FZDC	# DOCC	# SOCC	# VIRT	# FZVR
	-----	-----	------	------	------	------	------
	 A	   349	    0	    30	    0	    319	    0
	Transforming integrals...
	IWL integrals will be deleted.
	(OO|OO)...
	Presorting SO-basis two-electron integrals.
	Sorting File: SO Ints (nn|nn) nbuckets = 1
	Transforming the one-electron integrals and constructing Fock matrices
	Starting first half-transformation.
	Sorting half-transformed integrals.
	First half integral transformation complete.
	Starting second half-transformation.
	Two-electron integral transformation complete.
	(OO|OV)...
	Starting second half-transformation.
	Two-electron integral transformation complete.
	(OO|VV)...
	Starting second half-transformation.
	Two-electron integral transformation complete.
	(OV|OO)...
	Starting first half-transformation.
	Sorting half-transformed integrals.
	First half integral transformation complete.
	Starting second half-transformation.
	Two-electron integral transformation complete.
	(OV|OV)...
	Starting second half-transformation.
	Two-electron integral transformation complete.
	(OV|VV)...
	Starting second half-transformation.
	Two-electron integral transformation complete.
	(VV|OO)...
	Starting first half-transformation.
	Sorting half-transformed integrals.
	First half integral transformation complete.
	Starting second half-transformation.
	Two-electron integral transformation complete.
	(VV|OV)...
	Starting second half-transformation.
	Two-electron integral transformation complete.
	(VV|VV)...
	Starting second half-transformation.
	Two-electron integral transformation complete.
	Frozen core energy     =      0.00000000000000

	Size of irrep 0 of <ab|cd> integrals:  10355.301 (MW) /  82842.409 (MB)
	Total:                                 10355.301 (MW) /  82842.409 (MB)

	Size of irrep 0 of <ia|bc> integrals:    973.853 (MW) /   7790.822 (MB)
	Total:                                   973.853 (MW) /   7790.822 (MB)

	Size of irrep 0 of tijab amplitudes:      91.585 (MW) /    732.679 (MB)
	Total:                                    91.585 (MW) /    732.679 (MB)

	Nuclear Rep. energy          =    353.84447583148466
	SCF energy                   =   -716.97802129555964
	One-electron energy          =  -1720.85567223276735
	Two-electron energy          =    650.03290077871861
	Reference energy             =   -716.97829562256402

*** tstop() called on node73.bme.utexas.edu at Wed Apr 15 14:53:48 2020
Module time:
	user time   =    3458.13 seconds =      57.64 minutes
	system time =    1054.12 seconds =      17.57 minutes
	total time  =       2429 seconds =      40.48 minutes
Total time:
	user time   =  124166.49 seconds =    2069.44 minutes
	system time =   17904.12 seconds =     298.40 minutes
	total time  =      36330 seconds =     605.50 minutes
            **************************
            *                        *
            *        CCENERGY        *
            *                        *
            **************************

    Nuclear Rep. energy (wfn)     =  353.844475831484658
    SCF energy          (wfn)     = -716.978021295559643
    Reference energy    (file100) = -716.978295622564019

    Input parameters:
    -----------------
    Wave function   =     CCSD_T
    Reference wfn   =     RHF
    Brueckner       =     No
    Memory (Mbytes) =     50000.0
    Maxiter         =     50
    R_Convergence   =     1.0e-07
    E_Convergence   =     1.0e-07
    Restart         =     Yes
    DIIS            =     Yes
    AO Basis        =     NONE
    ABCD            =     NEW
    Cache Level     =     2
    Cache Type      =     LOW
    Print Level     =     1
    Num. of threads =     8
    # Amps to Print =     10
    Print MP2 Amps? =     No
    Analyze T2 Amps =     No
    Print Pair Ener =     No
    Local CC        =     No
    SCS-MP2         =     False
    SCSN-MP2        =     False
    SCS-CCSD        =     False

MP2 correlation energy -1.5827454009655493
                Solving CC Amplitude Equations
                ------------------------------
  Iter             Energy              RMS        T1Diag      D1Diag    New D1Diag    D2Diag
  ----     ---------------------    ---------   ----------  ----------  ----------   --------
     0        -1.582745400965549    0.000e+00    0.000000    0.000000    0.000000    0.135889
     1        -1.526175028832093    1.133e-01    0.011453    0.038886    0.038886    0.127842
     2        -1.560627257155197    4.408e-02    0.010432    0.034835    0.034835    0.134551
     3        -1.570042114929883    1.789e-02    0.012439    0.042757    0.042757    0.137085
     4        -1.569498034606810    5.460e-03    0.013049    0.045047    0.045047    0.137683
     5        -1.569101375080175    3.192e-03    0.013248    0.045915    0.045915    0.137818
     6        -1.569190019755011    1.317e-03    0.013401    0.046644    0.046644    0.137895
     7        -1.569218316579269    6.475e-04    0.013437    0.046814    0.046814    0.137889
     8        -1.569195697795730    3.183e-04    0.013448    0.046865    0.046865    0.137874
     9        -1.569180566862757    1.269e-04    0.013451    0.046877    0.046877    0.137870
    10        -1.569195592975265    7.256e-05    0.013451    0.046877    0.046877    0.137872
    11        -1.569191160907254    3.352e-05    0.013452    0.046877    0.046877    0.137871
    12        -1.569190244199454    1.570e-05    0.013451    0.046873    0.046873    0.137871
    13        -1.569190617226251    6.807e-06    0.013451    0.046873    0.046873    0.137871
    14        -1.569190238444367    3.323e-06    0.013451    0.046873    0.046873    0.137871
    15        -1.569190055830045    1.672e-06    0.013451    0.046873    0.046873    0.137871
    16        -1.569190073979578    8.788e-07    0.013451    0.046873    0.046873    0.137871
    17        -1.569190090460422    4.780e-07    0.013451    0.046873    0.046873    0.137871
    18        -1.569190091816136    2.444e-07    0.013451    0.046873    0.046873    0.137871
    19        -1.569190094186967    1.311e-07    0.013451    0.046873    0.046873    0.137871
    20        -1.569190095627447    6.968e-08    0.013451    0.046873    0.046873    0.137871

    Iterations converged.


    Largest TIA Amplitudes:
             27   3        -0.0155232973
             23  24        -0.0151914969
             24   4         0.0131953581
             23   5        -0.0129517639
             15  40         0.0122015954
             23  33         0.0118024148
             24  27        -0.0112789975
             24  35         0.0106761636
             27  34        -0.0101666302
             19  33         0.0100955426

    Largest TIjAb Amplitudes:
     15  15  40  40        -0.0126176431
     19  19  40  40        -0.0092902610
     21  21  40  40        -0.0086422612
     22  22  40  40        -0.0068771918
      5   5 318 318        -0.0067387192
      4   4 314 314        -0.0067105598
     23  23  40  40        -0.0065987278
     17  17  40  40        -0.0065440320
      1   1 317 317        -0.0063780558
     23  23  33  33        -0.0060028094

    SCF energy       (wfn)                    = -716.978021295559643
    Reference energy (file100)                = -716.978295622564019

    Opposite-spin MP2 correlation energy      =   -1.163517211524298
    Same-spin MP2 correlation energy          =   -0.419228189441251
    MP2 correlation energy                    =   -1.582745400965549
      * MP2 total energy                      = -718.561041023529583

    Opposite-spin CCSD correlation energy     =   -1.199115030773778
    Same-spin CCSD correlation energy         =   -0.370075064853667
    CCSD correlation energy                   =   -1.569190095627447
      * CCSD total energy                     = -718.547485718191410

            **************************
            *                        *
            *        CCTRIPLES       *
            *                        *
            **************************


    Wave function   =    CCSD_T
    Reference wfn   =      RHF

    Nuclear Rep. energy (wfn)                =  353.844475831484658
    SCF energy          (wfn)                = -716.978021295559643
    Reference energy    (file100)            = -716.978295622564019
    CCSD energy         (file100)            =   -1.569190095627447
    Total CCSD energy   (file100)            = -718.547485718191410

    Number of ijk index combinations:             4960
    Memory available in words        :      6250000000
    ~Words needed per explicit thread:       129847036
    Number of threads for explicit ijk threading:    8

    MKL num_threads set to 1 for explicit threading.

    (T) energy                                =   -0.065537443966079
      * CCSD(T) total energy                  = -718.613023162157560


  //>>>>>>>>>>>>>>>>>>>>>>>>>>>>>>>>>>>//
  //    CBS Results: custom function   //
  //<<<<<<<<<<<<<<<<<<<<<<<<<<<<<<<<<<<//


   ==> HF <==

   HI-zeta (4) Energy:               -717.014732648699


   ==> Helgaker 2-point correlated extrapolation for method: MP2 <==

   LO-zeta (3) Energy:               -718.561041023530
   HI-zeta (4) Energy:               -718.776743667559
   Alpha (exponent) Value:             3.000000000000
   Extrapolated Energy:              -718.934148299689

   @Extrapolated MP2/(T,Q):          -718.934148299689



   ==> Helgaker 2-point correlated extrapolation for method: HF <==

   LO-zeta (3) Energy:               -716.978021295560
   HI-zeta (4) Energy:               -717.014732648699
   Alpha (exponent) Value:             3.000000000000
   Extrapolated Energy:              -717.041522014503

   @Extrapolated HF/(T,Q):           -717.041522014503



   ==> Helgaker 2-point correlated extrapolation for method: CCSD(T) <==

   LO-zeta (2) Energy:               -718.099254890993
   HI-zeta (3) Energy:               -718.613023162158
   Alpha (exponent) Value:             3.000000000000
   Extrapolated Energy:              -718.829346644753

   @Extrapolated CCSD(T)/(D,T):      -718.829346644753



   ==> Helgaker 2-point correlated extrapolation for method: MP2 <==

   LO-zeta (2) Energy:               -718.055652243716
   HI-zeta (3) Energy:               -718.561041023530
   Alpha (exponent) Value:             3.000000000000
   Extrapolated Energy:              -718.773836299241

   @Extrapolated MP2/(D,T):          -718.773836299241


   ==> Components <==

  ---------------------------------------------------------------------------------------------------------
                          Method / Basis                      Rqd      Energy [Eh]   Variable
  ---------------------------------------------------------------------------------------------------------
                              hf / aug-cc-pvqz                  *    -717.01473265   HF TOTAL ENERGY
                             mp2 / aug-cc-pvqz                  *    -718.77674367   MP2 TOTAL ENERGY
                              hf / aug-cc-pvdz                       -716.83393698   HF TOTAL ENERGY
                             mp2 / aug-cc-pvdz                  *    -718.05565224   MP2 TOTAL ENERGY
                            ccsd / aug-cc-pvdz                       -718.05618387   CCSD TOTAL ENERGY
                         ccsd(t) / aug-cc-pvdz                  *    -718.09925489   CCSD(T) TOTAL ENERGY
                              hf / aug-cc-pvtz                  *    -716.97802130   HF TOTAL ENERGY
                             mp2 / aug-cc-pvtz                  *    -718.56104102   MP2 TOTAL ENERGY
                            ccsd / aug-cc-pvtz                       -718.54748572   CCSD TOTAL ENERGY
                         ccsd(t) / aug-cc-pvtz                  *    -718.61302316   CCSD(T) TOTAL ENERGY
  ---------------------------------------------------------------------------------------------------------

   ==> Stages <==

  ---------------------------------------------------------------------------------------------------------
      Stage               Method / Basis                       Wt      Energy [Eh]   Scheme
  ---------------------------------------------------------------------------------------------------------
        scf                   hf / aug-cc-pvqz                  1    -717.01473265   xtpl_highest_1
       corl                  mp2 / aug-cc-pv[tq]z               1    -718.93414830   corl_xtpl_helgaker_2
       corl                   hf / aug-cc-pv[tq]z              -1    -717.04152201   corl_xtpl_helgaker_2
     delta1              ccsd(t) / aug-cc-pv[dt]z               1    -718.82934664   corl_xtpl_helgaker_2
     delta1                  mp2 / aug-cc-pv[dt]z              -1    -718.77383630   corl_xtpl_helgaker_2
  ---------------------------------------------------------------------------------------------------------

   ==> CBS <==

  ---------------------------------------------------------------------------------------------------------
      Stage               Method / Basis                               Energy [Eh]   Scheme
  ---------------------------------------------------------------------------------------------------------
        scf                   hf / aug-cc-pvqz                       -717.01473265   xtpl_highest_1
       corl                  mp2 / aug-cc-pv[tq]z                      -1.89262629   corl_xtpl_helgaker_2
     delta1        ccsd(t) - mp2 / aug-cc-pv[dt]z                      -0.05551035   corl_xtpl_helgaker_2
      total                  CBS                                     -718.96286928   
  ---------------------------------------------------------------------------------------------------------
   => Loading Basis Set <=

    Name: DEF2-SVP
    Role: ORBITAL
    Keyword: BASIS
    atoms 1      entry P          line   300 file /home/liuchw/anaconda3/envs/psi4env/share/psi4/basis/def2-svp.gbs 
    atoms 2-5, 7 entry O          line   130 file /home/liuchw/anaconda3/envs/psi4env/share/psi4/basis/def2-svp.gbs 
    atoms 6, 8-9 entry H          line    15 file /home/liuchw/anaconda3/envs/psi4env/share/psi4/basis/def2-svp.gbs 


       N-Body: Complex Energy (fragments = (1, 2), basis = (1, 2):  -718.96286927939730)

   ==> N-Body: Counterpoise Corrected (CP) energies <==

   n-Body     Total Energy [Eh]       I.E. [kcal/mol]      Delta [kcal/mol]
        1     -718.944086880078        0.000000000000        0.000000000000
        2     -718.962120759202      -11.316429999272      -11.316429999272

   => Loading Basis Set <=

    Name: DEF2-SVP
    Role: ORBITAL
    Keyword: BASIS
    atoms 1      entry P          line   300 file /home/liuchw/anaconda3/envs/psi4env/share/psi4/basis/def2-svp.gbs 
    atoms 2-5, 7 entry O          line   130 file /home/liuchw/anaconda3/envs/psi4env/share/psi4/basis/def2-svp.gbs 
    atoms 6, 8-9 entry H          line    15 file /home/liuchw/anaconda3/envs/psi4env/share/psi4/basis/def2-svp.gbs 


    Psi4 stopped on: Wednesday, 15 April 2020 09:14PM
    Psi4 wall time for execution: 16:26:05.34

*** Psi4 exiting successfully. Buy a developer a beer!
