
    -----------------------------------------------------------------------
          Psi4: An Open-Source Ab Initio Electronic Structure Package
                               Psi4 1.4a2.dev224 

                         Git: Rev {master} e453b16 


    R. M. Parrish, L. A. Burns, D. G. A. Smith, A. C. Simmonett,
    A. E. DePrince III, E. G. Hohenstein, U. Bozkaya, A. Yu. Sokolov,
    R. Di Remigio, R. M. Richard, J. F. Gonthier, A. M. James,
    H. R. McAlexander, A. Kumar, M. Saitow, X. Wang, B. P. Pritchard,
    P. Verma, H. F. Schaefer III, K. Patkowski, R. A. King, E. F. Valeev,
    F. A. Evangelista, J. M. Turney, T. D. Crawford, and C. D. Sherrill,
    J. Chem. Theory Comput. 13(7) pp 3185--3197 (2017).
    (doi: 10.1021/acs.jctc.7b00174)


                         Additional Contributions by
    P. Kraus, H. Kruse, M. H. Lechner, M. C. Schieber, R. A. Shaw,
    A. Alenaizan, R. Galvelis, Z. L. Glick, S. Lehtola, and J. P. Misiewicz

    -----------------------------------------------------------------------


    Psi4 started on: Wednesday, 15 April 2020 03:47AM

    Process ID: 85753
    Host:       node73.bme.utexas.edu
    PSIDATADIR: /home/liuchw/anaconda3/envs/psi4env/share/psi4
    Memory:     500.0 MiB
    Threads:    8
    
  ==> Input File <==

--------------------------------------------------------------------------
#Generated by lconvert.py for cbs job

memory 50 GB

molecule  {
0 1
 Cl      -0.951589   -0.634073    0.000553
  C      -0.802054    1.145009   -0.005546
  H       0.246631    1.395493   -0.109289
  H      -1.376732    1.527611   -0.840161
  H      -1.196867    1.519065    0.931130
--
0 1
  O       2.323088    0.063524    0.021291
  H       3.114971   -0.448797   -0.150918
  H       1.619015   -0.591749    0.023551
units angstrom
no_reorient
symmetry c1
}

set {
scf_type DF
mp2_type DF
e_convergence 7
reference rhf
}

energy(cbs, corl_wfn='mp2', corl_basis='aug-cc-pv[tq]z', delta_wfn='ccsd(t)', delta_basis='aug-cc-pv[dt]z', bsse_type='cp')
--------------------------------------------------------------------------

  Memory set to  46.566 GiB by Python driver.

Scratch directory: /scratch/liuchw/


   ===> N-Body Interaction Abacus <===
        BSSE Treatment:                     cp
        Number of 1-body computations:     4
        Number of 2-body computations:     1

   ==> N-Body: Now computing 1-body complexes <==


       N-Body: Computing complex (1/4) with fragments (2,) in the basis of fragments (2,).


Scratch directory: /scratch/liuchw/

  //>>>>>>>>>>>>>>>>>>>>>>>>>>>>>>>>>>>//
  //     CBS Setup: custom function    //
  //<<<<<<<<<<<<<<<<<<<<<<<<<<<<<<<<<<<//

    Naive listing of computations required.
             hf / aug-cc-pvqz              for  HF TOTAL ENERGY
            mp2 / aug-cc-pvtz              for  MP2 TOTAL ENERGY
            mp2 / aug-cc-pvqz              for  MP2 TOTAL ENERGY
             hf / aug-cc-pvtz              for  HF TOTAL ENERGY
             hf / aug-cc-pvqz              for  HF TOTAL ENERGY
        ccsd(t) / aug-cc-pvdz              for  CCSD(T) TOTAL ENERGY
        ccsd(t) / aug-cc-pvtz              for  CCSD(T) TOTAL ENERGY
            mp2 / aug-cc-pvdz              for  MP2 TOTAL ENERGY
            mp2 / aug-cc-pvtz              for  MP2 TOTAL ENERGY

    Enlightened listing of computations required.
            mp2 / aug-cc-pvqz              for  MP2 TOTAL ENERGY
        ccsd(t) / aug-cc-pvdz              for  CCSD(T) TOTAL ENERGY
        ccsd(t) / aug-cc-pvtz              for  CCSD(T) TOTAL ENERGY

    Full listing of computations to be obtained (required and bonus).
             hf / aug-cc-pvqz              for  HF TOTAL ENERGY
            mp2 / aug-cc-pvqz              for  MP2 TOTAL ENERGY
             hf / aug-cc-pvdz              for  HF TOTAL ENERGY
            mp2 / aug-cc-pvdz              for  MP2 TOTAL ENERGY
           ccsd / aug-cc-pvdz              for  CCSD TOTAL ENERGY
        ccsd(t) / aug-cc-pvdz              for  CCSD(T) TOTAL ENERGY
             hf / aug-cc-pvtz              for  HF TOTAL ENERGY
            mp2 / aug-cc-pvtz              for  MP2 TOTAL ENERGY
           ccsd / aug-cc-pvtz              for  CCSD TOTAL ENERGY
        ccsd(t) / aug-cc-pvtz              for  CCSD(T) TOTAL ENERGY

  //>>>>>>>>>>>>>>>>>>>>>>>>>>>>>>>>>>>>//
  // CBS Computation: MP2 / AUG-CC-PVQZ //
  //<<<<<<<<<<<<<<<<<<<<<<<<<<<<<<<<<<<<//


Scratch directory: /scratch/liuchw/

*** tstart() called on node73.bme.utexas.edu
*** at Wed Apr 15 03:47:36 2020

   => Loading Basis Set <=

    Name: AUG-CC-PVQZ
    Role: ORBITAL
    Keyword: BASIS
    atoms 1   entry O          line   423 file /home/liuchw/anaconda3/envs/psi4env/share/psi4/basis/aug-cc-pvqz.gbs 
    atoms 2-3 entry H          line    40 file /home/liuchw/anaconda3/envs/psi4env/share/psi4/basis/aug-cc-pvqz.gbs 


         ---------------------------------------------------------
                                   SCF
               by Justin Turney, Rob Parrish, Andy Simmonett
                          and Daniel G. A. Smith
                              RHF Reference
                        8 Threads,  47683 MiB Core
         ---------------------------------------------------------

  ==> Geometry <==

    Molecular point group: c1
    Full point group: C1

    Geometry (in Angstrom), charge = 0, multiplicity = 1:

       Center              X                  Y                   Z               Mass       
    ------------   -----------------  -----------------  -----------------  -----------------
         O            2.371867930199     0.122174381128     0.019136584329    15.994914619570
         H            3.163750930199    -0.390146618872    -0.153072415671     1.007825032230
         H            1.667794930199    -0.533098618872     0.021396584329     1.007825032230

  Running in c1 symmetry.

  Rotational constants: A =     26.05948  B =      0.16374  C =      0.16277 [cm^-1]
  Rotational constants: A = 781243.43970  B =   4908.74888  C =   4879.85774 [MHz]
  Nuclear repulsion =    9.166774844215899

  Charge       = 0
  Multiplicity = 1
  Electrons    = 10
  Nalpha       = 5
  Nbeta        = 5

  ==> Algorithm <==

  SCF Algorithm Type is DF.
  DIIS enabled.
  MOM disabled.
  Fractional occupation disabled.
  Guess Type is SAD.
  Energy threshold   = 1.00e-07
  Density threshold  = 1.00e-08
  Integral threshold = 0.00e+00

  ==> Primary Basis <==

  Basis Set: AUG-CC-PVQZ
    Blend: AUG-CC-PVQZ
    Number of shells: 48
    Number of basis function: 172
    Number of Cartesian functions: 215
    Spherical Harmonics?: true
    Max angular momentum: 4

   => Loading Basis Set <=

    Name: (AUG-CC-PVQZ AUX)
    Role: JKFIT
    Keyword: DF_BASIS_SCF
    atoms 1   entry O          line   318 file /home/liuchw/anaconda3/envs/psi4env/share/psi4/basis/aug-cc-pvqz-jkfit.gbs 
    atoms 2-3 entry H          line    70 file /home/liuchw/anaconda3/envs/psi4env/share/psi4/basis/aug-cc-pvqz-jkfit.gbs 

  ==> Pre-Iterations <==

   -------------------------------------------------------
    Irrep   Nso     Nmo     Nalpha   Nbeta   Ndocc  Nsocc
   -------------------------------------------------------
     A        172     172       0       0       0       0
   -------------------------------------------------------
    Total     172     172       5       5       5       0
   -------------------------------------------------------

  ==> Integral Setup <==

  DFHelper Memory: AOs need 0.074 GiB; user supplied 34.925 GiB. Using in-core AOs.

  ==> MemDFJK: Density-Fitted J/K Matrices <==

    J tasked:                   Yes
    K tasked:                   Yes
    wK tasked:                   No
    OpenMP threads:               8
    Memory [MiB]:             35762
    Algorithm:                 Core
    Schwarz Cutoff:           1E-12
    Mask sparsity (%):       0.0000
    Fitting Condition:        1E-10

   => Auxiliary Basis Set <=

  Basis Set: (AUG-CC-PVQZ AUX)
    Blend: AUG-CC-PVQZ-JKFIT
    Number of shells: 70
    Number of basis function: 294
    Number of Cartesian functions: 400
    Spherical Harmonics?: true
    Max angular momentum: 5

  Minimum eigenvalue in the overlap matrix is 8.7348755152E-05.
  Using Symmetric Orthogonalization.

  SCF Guess: Superposition of Atomic Densities via on-the-fly atomic UHF.

  ==> Iterations <==

                           Total Energy        Delta E     RMS |[F,P]|

   @DF-RHF iter SAD:   -75.48027145271878   -7.54803e+01   0.00000e+00 
   @DF-RHF iter   1:   -75.98099004548666   -5.00719e-01   2.72918e-03 DIIS
   @DF-RHF iter   2:   -76.03357074389916   -5.25807e-02   1.86695e-03 DIIS
   @DF-RHF iter   3:   -76.06530007827854   -3.17293e-02   1.27224e-04 DIIS
   @DF-RHF iter   4:   -76.06569177239550   -3.91694e-04   3.11860e-05 DIIS
   @DF-RHF iter   5:   -76.06571710813560   -2.53357e-05   7.06187e-06 DIIS
   @DF-RHF iter   6:   -76.06571919076923   -2.08263e-06   1.58820e-06 DIIS
   @DF-RHF iter   7:   -76.06571930758527   -1.16816e-07   2.95358e-07 DIIS
   @DF-RHF iter   8:   -76.06571931113315   -3.54788e-09   4.75758e-08 DIIS
   @DF-RHF iter   9:   -76.06571931120752   -7.43654e-11   1.13984e-08 DIIS
   @DF-RHF iter  10:   -76.06571931121172   -4.20641e-12   1.71085e-09 DIIS
  Energy and wave function converged.


  ==> Post-Iterations <==

    Orbital Energies [Eh]
    ---------------------

    Doubly Occupied:                                                      

       1A    -20.565533     2A     -1.351716     3A     -0.715037  
       4A     -0.585524     5A     -0.510408  

    Virtual:                                                              

       6A      0.026883     7A      0.043102     8A      0.114101  
       9A      0.133486    10A      0.151124    11A      0.158689  
      12A      0.184961    13A      0.197084    14A      0.209347  
      15A      0.237402    16A      0.257049    17A      0.291626  
      18A      0.357662    19A      0.390010    20A      0.469775  
      21A      0.508788    22A      0.542076    23A      0.547634  
      24A      0.556268    25A      0.614351    26A      0.632468  
      27A      0.647274    28A      0.663386    29A      0.665771  
      30A      0.684814    31A      0.706464    32A      0.719051  
      33A      0.769732    34A      0.789075    35A      0.802461  
      36A      0.802880    37A      0.843238    38A      0.854152  
      39A      0.968069    40A      1.123647    41A      1.136558  
      42A      1.209166    43A      1.332173    44A      1.439656  
      45A      1.482279    46A      1.509369    47A      1.513444  
      48A      1.526428    49A      1.554076    50A      1.590326  
      51A      1.620907    52A      1.637817    53A      1.662728  
      54A      1.664153    55A      1.688598    56A      1.702805  
      57A      1.735926    58A      1.752456    59A      1.767009  
      60A      1.776378    61A      1.842868    62A      1.864679  
      63A      1.893995    64A      1.915405    65A      1.981881  
      66A      2.008533    67A      2.033773    68A      2.038923  
      69A      2.099902    70A      2.206521    71A      2.217113  
      72A      2.313540    73A      2.438620    74A      2.627152  
      75A      2.632267    76A      2.886982    77A      2.958762  
      78A      2.995392    79A      3.040157    80A      3.056031  
      81A      3.085740    82A      3.269424    83A      3.301536  
      84A      3.308334    85A      3.491145    86A      3.588587  
      87A      3.643537    88A      3.688063    89A      3.720594  
      90A      3.776785    91A      3.923335    92A      4.078244  
      93A      4.166603    94A      4.167439    95A      4.178076  
      96A      4.179031    97A      4.233620    98A      4.330039  
      99A      4.432421   100A      4.579701   101A      4.725573  
     102A      4.746035   103A      4.781585   104A      4.781632  
     105A      4.808646   106A      4.878070   107A      4.995733  
     108A      5.237788   109A      5.313898   110A      5.522559  
     111A      5.532584   112A      5.858552   113A      5.887535  
     114A      6.073301   115A      6.233461   116A      6.825719  
     117A      6.884286   118A      6.885613   119A      6.910022  
     120A      7.728268   121A      7.779479   122A      7.785098  
     123A      7.823598   124A      7.836957   125A      7.900101  
     126A      7.924744   127A      8.021555   128A      8.175665  
     129A      8.201560   130A      8.531251   131A      8.628218  
     132A      8.649318   133A      8.697385   134A      8.786547  
     135A      8.846808   136A      8.986487   137A      9.041541  
     138A      9.217191   139A      9.665892   140A      9.905472  
     141A      9.907894   142A      9.941173   143A      9.991049  
     144A     10.329800   145A     10.451723   146A     10.680121  
     147A     11.016729   148A     11.077468   149A     11.088189  
     150A     11.269180   151A     11.311894   152A     11.414048  
     153A     11.714050   154A     11.794916   155A     11.831527  
     156A     11.989672   157A     12.202691   158A     12.204541  
     159A     12.619686   160A     12.736766   161A     12.829754  
     162A     12.904806   163A     13.178359   164A     13.995056  
     165A     14.014490   166A     14.502721   167A     14.804681  
     168A     14.898203   169A     15.252566   170A     16.840319  
     171A     17.287600   172A     45.495796  

    Final Occupation by Irrep:
              A 
    DOCC [     5 ]

  @DF-RHF Final Energy:   -76.06571931121172

   => Energetics <=

    Nuclear Repulsion Energy =              9.1667748442158992
    One-Electron Energy =                -123.0085515681139725
    Two-Electron Energy =                  37.7760574126863560
    Total Energy =                        -76.0657193112117227

Computation Completed


Properties will be evaluated at   0.000000,   0.000000,   0.000000 [a0]

Properties computed using the SCF density matrix

  Nuclear Dipole Moment: [e a0]
     X:    44.9877      Y:     0.1023      Z:     0.0405

  Electronic Dipole Moment: [e a0]
     X:   -44.9290      Y:    -0.8758      Z:    -0.1531

  Dipole Moment: [e a0]
     X:     0.0587      Y:    -0.7735      Z:    -0.1127     Total:     0.7838

  Dipole Moment: [D]
     X:     0.1492      Y:    -1.9660      Z:    -0.2863     Total:     1.9923


*** tstop() called on node73.bme.utexas.edu at Wed Apr 15 03:47:38 2020
Module time:
	user time   =      10.87 seconds =       0.18 minutes
	system time =       0.63 seconds =       0.01 minutes
	total time  =          2 seconds =       0.03 minutes
Total time:
	user time   =      10.87 seconds =       0.18 minutes
	system time =       0.63 seconds =       0.01 minutes
	total time  =          2 seconds =       0.03 minutes

*** tstart() called on node73.bme.utexas.edu
*** at Wed Apr 15 03:47:38 2020


  //>>>>>>>>>>>>>>>>>>>>>>>>>>>>>>>>>>>//
  //               DFMP2               //
  //<<<<<<<<<<<<<<<<<<<<<<<<<<<<<<<<<<<//

   => Loading Basis Set <=

    Name: (AUG-CC-PVQZ AUX)
    Role: RIFIT
    Keyword: DF_BASIS_MP2
    atoms 1   entry O          line   332 file /home/liuchw/anaconda3/envs/psi4env/share/psi4/basis/aug-cc-pvqz-ri.gbs 
    atoms 2-3 entry H          line    30 file /home/liuchw/anaconda3/envs/psi4env/share/psi4/basis/aug-cc-pvqz-ri.gbs 

	 --------------------------------------------------------
	                          DF-MP2                         
	      2nd-Order Density-Fitted Moller-Plesset Theory     
	              RMP2 Wavefunction,   8 Threads             
	                                                         
	        Rob Parrish, Justin Turney, Andy Simmonett,      
	           Ed Hohenstein, and C. David Sherrill          
	 --------------------------------------------------------

   => Auxiliary Basis Set <=

  Basis Set: (AUG-CC-PVQZ AUX)
    Blend: AUG-CC-PVQZ-RI
    Number of shells: 76
    Number of basis function: 328
    Number of Cartesian functions: 447
    Spherical Harmonics?: true
    Max angular momentum: 5

	 --------------------------------------------------------
	                 NBF =   172, NAUX =   328
	 --------------------------------------------------------
	   CLASS    FOCC     OCC    AOCC    AVIR     VIR    FVIR
	   PAIRS       0       5       5     167     167       0
	 --------------------------------------------------------

	-----------------------------------------------------------
	 ==================> DF-MP2 Energies <==================== 
	-----------------------------------------------------------
	 Reference Energy          =     -76.0657193112117227 [Eh]
	 Singles Energy            =      -0.0000000000000000 [Eh]
	 Same-Spin Energy          =      -0.0727257122545224 [Eh]
	 Opposite-Spin Energy      =      -0.2442815473241609 [Eh]
	 Correlation Energy        =      -0.3170072595786833 [Eh]
	 Total Energy              =     -76.3827265707904104 [Eh]
	-----------------------------------------------------------
	 ================> DF-SCS-MP2 Energies <================== 
	-----------------------------------------------------------
	 SCS Same-Spin Scale       =       0.3333333333333333 [-]
	 SCS Opposite-Spin Scale   =       1.2000000000000000 [-]
	 SCS Same-Spin Energy      =      -0.0242419040848408 [Eh]
	 SCS Opposite-Spin Energy  =      -0.2931378567889930 [Eh]
	 SCS Correlation Energy    =      -0.3173797608738338 [Eh]
	 SCS Total Energy          =     -76.3830990720855567 [Eh]
	-----------------------------------------------------------


*** tstop() called on node73.bme.utexas.edu at Wed Apr 15 03:47:39 2020
Module time:
	user time   =       4.57 seconds =       0.08 minutes
	system time =       0.27 seconds =       0.00 minutes
	total time  =          1 seconds =       0.02 minutes
Total time:
	user time   =      15.45 seconds =       0.26 minutes
	system time =       0.90 seconds =       0.02 minutes
	total time  =          3 seconds =       0.05 minutes

  //>>>>>>>>>>>>>>>>>>>>>>>>>>>>>>>>>>>>>>>>//
  // CBS Computation: CCSD(T) / AUG-CC-PVDZ //
  //<<<<<<<<<<<<<<<<<<<<<<<<<<<<<<<<<<<<<<<<//


Scratch directory: /scratch/liuchw/

*** tstart() called on node73.bme.utexas.edu
*** at Wed Apr 15 03:47:39 2020

   => Loading Basis Set <=

    Name: AUG-CC-PVDZ
    Role: ORBITAL
    Keyword: BASIS
    atoms 1   entry O          line   254 file /home/liuchw/anaconda3/envs/psi4env/share/psi4/basis/aug-cc-pvdz.gbs 
    atoms 2-3 entry H          line    40 file /home/liuchw/anaconda3/envs/psi4env/share/psi4/basis/aug-cc-pvdz.gbs 


         ---------------------------------------------------------
                                   SCF
               by Justin Turney, Rob Parrish, Andy Simmonett
                          and Daniel G. A. Smith
                              RHF Reference
                        8 Threads,  47683 MiB Core
         ---------------------------------------------------------

  ==> Geometry <==

    Molecular point group: c1
    Full point group: C1

    Geometry (in Angstrom), charge = 0, multiplicity = 1:

       Center              X                  Y                   Z               Mass       
    ------------   -----------------  -----------------  -----------------  -----------------
         O            2.371867930199     0.122174381128     0.019136584329    15.994914619570
         H            3.163750930199    -0.390146618872    -0.153072415671     1.007825032230
         H            1.667794930199    -0.533098618872     0.021396584329     1.007825032230

  Running in c1 symmetry.

  Rotational constants: A =     26.05948  B =      0.16374  C =      0.16277 [cm^-1]
  Rotational constants: A = 781243.43970  B =   4908.74888  C =   4879.85774 [MHz]
  Nuclear repulsion =    9.166774844215899

  Charge       = 0
  Multiplicity = 1
  Electrons    = 10
  Nalpha       = 5
  Nbeta        = 5

  ==> Algorithm <==

  SCF Algorithm Type is DF.
  DIIS enabled.
  MOM disabled.
  Fractional occupation disabled.
  Guess Type is SAD.
  Energy threshold   = 1.00e-07
  Density threshold  = 1.00e-08
  Integral threshold = 0.00e+00

  ==> Primary Basis <==

  Basis Set: AUG-CC-PVDZ
    Blend: AUG-CC-PVDZ
    Number of shells: 19
    Number of basis function: 41
    Number of Cartesian functions: 43
    Spherical Harmonics?: true
    Max angular momentum: 2

   => Loading Basis Set <=

    Name: (AUG-CC-PVDZ AUX)
    Role: JKFIT
    Keyword: DF_BASIS_SCF
    atoms 1   entry O          line   270 file /home/liuchw/anaconda3/envs/psi4env/share/psi4/basis/aug-cc-pvdz-jkfit.gbs 
    atoms 2-3 entry H          line    70 file /home/liuchw/anaconda3/envs/psi4env/share/psi4/basis/aug-cc-pvdz-jkfit.gbs 

  ==> Pre-Iterations <==

   -------------------------------------------------------
    Irrep   Nso     Nmo     Nalpha   Nbeta   Ndocc  Nsocc
   -------------------------------------------------------
     A         41      41       0       0       0       0
   -------------------------------------------------------
    Total      41      41       5       5       5       0
   -------------------------------------------------------

  ==> Integral Setup <==

  DFHelper Memory: AOs need 0.002 GiB; user supplied 34.925 GiB. Using in-core AOs.

  ==> MemDFJK: Density-Fitted J/K Matrices <==

    J tasked:                   Yes
    K tasked:                   Yes
    wK tasked:                   No
    OpenMP threads:               8
    Memory [MiB]:             35762
    Algorithm:                 Core
    Schwarz Cutoff:           1E-12
    Mask sparsity (%):       0.0000
    Fitting Condition:        1E-10

   => Auxiliary Basis Set <=

  Basis Set: (AUG-CC-PVDZ AUX)
    Blend: AUG-CC-PVDZ-JKFIT
    Number of shells: 52
    Number of basis function: 150
    Number of Cartesian functions: 171
    Spherical Harmonics?: true
    Max angular momentum: 3

  Minimum eigenvalue in the overlap matrix is 2.6717298352E-03.
  Using Symmetric Orthogonalization.

  SCF Guess: Superposition of Atomic Densities via on-the-fly atomic UHF.

  ==> Iterations <==

                           Total Energy        Delta E     RMS |[F,P]|

   @DF-RHF iter SAD:   -75.46313412740885   -7.54631e+01   0.00000e+00 
   @DF-RHF iter   1:   -75.95689488269709   -4.93761e-01   1.10496e-02 DIIS
   @DF-RHF iter   2:   -76.01007515243785   -5.31803e-02   7.22318e-03 DIIS
   @DF-RHF iter   3:   -76.04077738222317   -3.07022e-02   5.18522e-04 DIIS
   @DF-RHF iter   4:   -76.04115566323398   -3.78281e-04   1.16562e-04 DIIS
   @DF-RHF iter   5:   -76.04117711963390   -2.14564e-05   2.63604e-05 DIIS
   @DF-RHF iter   6:   -76.04117882192796   -1.70229e-06   5.30050e-06 DIIS
   @DF-RHF iter   7:   -76.04117889467516   -7.27472e-08   8.79036e-07 DIIS
   @DF-RHF iter   8:   -76.04117889652277   -1.84761e-09   1.35775e-07 DIIS
   @DF-RHF iter   9:   -76.04117889656146   -3.86962e-11   3.54302e-08 DIIS
   @DF-RHF iter  10:   -76.04117889656395   -2.48690e-12   4.86098e-09 DIIS
  Energy and wave function converged.


  ==> Post-Iterations <==

    Orbital Energies [Eh]
    ---------------------

    Doubly Occupied:                                                      

       1A    -20.578029     2A     -1.355478     3A     -0.716509  
       4A     -0.586177     5A     -0.509345  

    Virtual:                                                              

       6A      0.035359     7A      0.057998     8A      0.174003  
       9A      0.196901    10A      0.222537    11A      0.231761  
      12A      0.289629    13A      0.331946    14A      0.385915  
      15A      0.402595    16A      0.432551    17A      0.539400  
      18A      0.647634    19A      0.658217    20A      0.808995  
      21A      0.930710    22A      1.101938    23A      1.116411  
      24A      1.148677    25A      1.304071    26A      1.465347  
      27A      1.481671    28A      1.583576    29A      2.003406  
      30A      2.008963    31A      2.109727    32A      2.361411  
      33A      2.477800    34A      2.622898    35A      2.713195  
      36A      2.971209    37A      3.673811    38A      3.691069  
      39A      3.702661    40A      4.020354    41A      4.304262  

    Final Occupation by Irrep:
              A 
    DOCC [     5 ]

  @DF-RHF Final Energy:   -76.04117889656395

   => Energetics <=

    Nuclear Repulsion Energy =              9.1667748442158992
    One-Electron Energy =                -122.9248315834385750
    Two-Electron Energy =                  37.7168778426587323
    Total Energy =                        -76.0411788965639488

Computation Completed


Properties will be evaluated at   0.000000,   0.000000,   0.000000 [a0]

Properties computed using the SCF density matrix

  Nuclear Dipole Moment: [e a0]
     X:    44.9877      Y:     0.1023      Z:     0.0405

  Electronic Dipole Moment: [e a0]
     X:   -44.9285      Y:    -0.8828      Z:    -0.1542

  Dipole Moment: [e a0]
     X:     0.0593      Y:    -0.7805      Z:    -0.1137     Total:     0.7910

  Dipole Moment: [D]
     X:     0.1506      Y:    -1.9838      Z:    -0.2889     Total:     2.0104


*** tstop() called on node73.bme.utexas.edu at Wed Apr 15 03:47:40 2020
Module time:
	user time   =       8.09 seconds =       0.13 minutes
	system time =       0.53 seconds =       0.01 minutes
	total time  =          1 seconds =       0.02 minutes
Total time:
	user time   =      23.60 seconds =       0.39 minutes
	system time =       1.44 seconds =       0.02 minutes
	total time  =          4 seconds =       0.07 minutes
 MINTS: Wrapper to libmints.
   by Justin Turney

   Calculation information:
      Number of threads:                 8
      Number of atoms:                   3
      Number of AO shells:              19
      Number of SO shells:              19
      Number of primitives:             39
      Number of atomic orbitals:        43
      Number of basis functions:        41

      Number of irreps:                  1
      Integral cutoff                 0.00e+00
      Number of functions per irrep: [  41 ]

 OEINTS: Overlap, kinetic, potential, dipole, and quadrupole integrals
         stored in file 35.

      Computing two-electron integrals...done
      Computed 346078 non-zero two-electron integrals.
        Stored in file 33.


*** tstart() called on node73.bme.utexas.edu
*** at Wed Apr 15 03:47:40 2020


	Wfn Parameters:
	--------------------
	Wavefunction         = CCSD_T
	Number of irreps     = 1
	Number of MOs        = 41
	Number of active MOs = 41
	AO-Basis             = NONE
	Semicanonical        = false
	Reference            = RHF
	Print Level          = 1

	IRREP	# MOs	# FZDC	# DOCC	# SOCC	# VIRT	# FZVR
	-----	-----	------	------	------	------	------
	 A	   41	    0	    5	    0	    36	    0
	Transforming integrals...
	IWL integrals will be deleted.
	(OO|OO)...
	Presorting SO-basis two-electron integrals.
	Sorting File: SO Ints (nn|nn) nbuckets = 1
	Transforming the one-electron integrals and constructing Fock matrices
	Starting first half-transformation.
	Sorting half-transformed integrals.
	First half integral transformation complete.
	Starting second half-transformation.
	Two-electron integral transformation complete.
	(OO|OV)...
	Starting second half-transformation.
	Two-electron integral transformation complete.
	(OO|VV)...
	Starting second half-transformation.
	Two-electron integral transformation complete.
	(OV|OO)...
	Starting first half-transformation.
	Sorting half-transformed integrals.
	First half integral transformation complete.
	Starting second half-transformation.
	Two-electron integral transformation complete.
	(OV|OV)...
	Starting second half-transformation.
	Two-electron integral transformation complete.
	(OV|VV)...
	Starting second half-transformation.
	Two-electron integral transformation complete.
	(VV|OO)...
	Starting first half-transformation.
	Sorting half-transformed integrals.
	First half integral transformation complete.
	Starting second half-transformation.
	Two-electron integral transformation complete.
	(VV|OV)...
	Starting second half-transformation.
	Two-electron integral transformation complete.
	(VV|VV)...
	Starting second half-transformation.
	Two-electron integral transformation complete.
	Frozen core energy     =      0.00000000000000

	Size of irrep 0 of <ab|cd> integrals:      1.680 (MW) /     13.437 (MB)
	Total:                                     1.680 (MW) /     13.437 (MB)

	Size of irrep 0 of <ia|bc> integrals:      0.233 (MW) /      1.866 (MB)
	Total:                                     0.233 (MW) /      1.866 (MB)

	Size of irrep 0 of tijab amplitudes:       0.032 (MW) /      0.259 (MB)
	Total:                                     0.032 (MW) /      0.259 (MB)

	Nuclear Rep. energy          =      9.16677484421590
	SCF energy                   =    -76.04117889656395
	One-electron energy          =   -122.92483139318139
	Two-electron energy          =     37.71685733812811
	Reference energy             =    -76.04119921083739

*** tstop() called on node73.bme.utexas.edu at Wed Apr 15 03:47:41 2020
Module time:
	user time   =       5.26 seconds =       0.09 minutes
	system time =       0.49 seconds =       0.01 minutes
	total time  =          1 seconds =       0.02 minutes
Total time:
	user time   =      31.16 seconds =       0.52 minutes
	system time =       2.10 seconds =       0.04 minutes
	total time  =          5 seconds =       0.08 minutes
            **************************
            *                        *
            *        CCENERGY        *
            *                        *
            **************************

    Nuclear Rep. energy (wfn)     =    9.166774844215899
    SCF energy          (wfn)     =  -76.041178896563949
    Reference energy    (file100) =  -76.041199210837391

    Input parameters:
    -----------------
    Wave function   =     CCSD_T
    Reference wfn   =     RHF
    Brueckner       =     No
    Memory (Mbytes) =     50000.0
    Maxiter         =     50
    R_Convergence   =     1.0e-07
    E_Convergence   =     1.0e-07
    Restart         =     Yes
    DIIS            =     Yes
    AO Basis        =     NONE
    ABCD            =     NEW
    Cache Level     =     2
    Cache Type      =     LOW
    Print Level     =     1
    Num. of threads =     8
    # Amps to Print =     10
    Print MP2 Amps? =     No
    Analyze T2 Amps =     No
    Print Pair Ener =     No
    Local CC        =     No
    SCS-MP2         =     False
    SCSN-MP2        =     False
    SCS-CCSD        =     False

MP2 correlation energy -0.2221215941340546
                Solving CC Amplitude Equations
                ------------------------------
  Iter             Energy              RMS        T1Diag      D1Diag    New D1Diag    D2Diag
  ----     ---------------------    ---------   ----------  ----------  ----------   --------
     0        -0.222121594134055    0.000e+00    0.000000    0.000000    0.000000    0.114322
     1        -0.223993785434151    3.836e-02    0.009116    0.021104    0.021104    0.119127
     2        -0.228333894137905    1.289e-02    0.009182    0.021526    0.021526    0.123748
     3        -0.229680783318391    5.449e-03    0.010728    0.025620    0.025620    0.126033
     4        -0.229607613806980    1.001e-03    0.010911    0.026241    0.026241    0.126182
     5        -0.229613433944190    3.329e-04    0.010973    0.026479    0.026479    0.126210
     6        -0.229618296931294    8.947e-05    0.010992    0.026560    0.026560    0.126207
     7        -0.229616557770020    2.745e-05    0.010995    0.026575    0.026575    0.126200
     8        -0.229616226728454    7.889e-06    0.010996    0.026580    0.026580    0.126199
     9        -0.229616320304361    2.679e-06    0.010996    0.026581    0.026581    0.126199
    10        -0.229616192766478    9.122e-07    0.010996    0.026581    0.026581    0.126198
    11        -0.229616201708814    3.028e-07    0.010996    0.026581    0.026581    0.126198
    12        -0.229616196020343    1.229e-07    0.010996    0.026581    0.026581    0.126198
    13        -0.229616198031118    3.356e-08    0.010996    0.026581    0.026581    0.126198

    Iterations converged.


    Largest TIA Amplitudes:
              4   3        -0.0215097652
              4  10        -0.0155533745
              3   2         0.0120849736
              3   9        -0.0116650035
              2  27         0.0075762958
              1   4         0.0045313725
              2   6         0.0043106171
              3   0        -0.0042297570
              3  28        -0.0040130618
              1  28        -0.0035579562

    Largest TIjAb Amplitudes:
      4   4  21  21        -0.0347083362
      2   2  14  14        -0.0259378230
      3   3  14  14        -0.0209462591
      3   3  22  22        -0.0203483199
      2   2   6   6        -0.0199342894
      2   2   6  14         0.0190239995
      2   2  14   6         0.0190239995
      4   4   3  21        -0.0184660530
      4   4  21   3        -0.0184660530
      4   4   3   3        -0.0181846218

    SCF energy       (wfn)                    =  -76.041178896563949
    Reference energy (file100)                =  -76.041199210837391

    Opposite-spin MP2 correlation energy      =   -0.165370646642470
    Same-spin MP2 correlation energy          =   -0.056750947491585
    MP2 correlation energy                    =   -0.222121594134055
      * MP2 total energy                      =  -76.263320804971443

    Opposite-spin CCSD correlation energy     =   -0.179422988318538
    Same-spin CCSD correlation energy         =   -0.050193209712580
    CCSD correlation energy                   =   -0.229616198031118
      * CCSD total energy                     =  -76.270815408868515

            **************************
            *                        *
            *        CCTRIPLES       *
            *                        *
            **************************


    Wave function   =    CCSD_T
    Reference wfn   =      RHF

    Nuclear Rep. energy (wfn)                =    9.166774844215899
    SCF energy          (wfn)                =  -76.041178896563949
    Reference energy    (file100)            =  -76.041199210837391
    CCSD energy         (file100)            =   -0.229616198031118
    Total CCSD energy   (file100)            =  -76.270815408868515

    Number of ijk index combinations:               35
    Memory available in words        :      6250000000
    ~Words needed per explicit thread:          186624
    Number of threads for explicit ijk threading:    8

    MKL num_threads set to 1 for explicit threading.

    (T) energy                                =   -0.005258297068788
      * CCSD(T) total energy                  =  -76.276073705937293


  //>>>>>>>>>>>>>>>>>>>>>>>>>>>>>>>>>>>>>>>>//
  // CBS Computation: CCSD(T) / AUG-CC-PVTZ //
  //<<<<<<<<<<<<<<<<<<<<<<<<<<<<<<<<<<<<<<<<//


Scratch directory: /scratch/liuchw/

*** tstart() called on node73.bme.utexas.edu
*** at Wed Apr 15 03:47:46 2020

   => Loading Basis Set <=

    Name: AUG-CC-PVTZ
    Role: ORBITAL
    Keyword: BASIS
    atoms 1   entry O          line   331 file /home/liuchw/anaconda3/envs/psi4env/share/psi4/basis/aug-cc-pvtz.gbs 
    atoms 2-3 entry H          line    40 file /home/liuchw/anaconda3/envs/psi4env/share/psi4/basis/aug-cc-pvtz.gbs 


         ---------------------------------------------------------
                                   SCF
               by Justin Turney, Rob Parrish, Andy Simmonett
                          and Daniel G. A. Smith
                              RHF Reference
                        8 Threads,  47683 MiB Core
         ---------------------------------------------------------

  ==> Geometry <==

    Molecular point group: c1
    Full point group: C1

    Geometry (in Angstrom), charge = 0, multiplicity = 1:

       Center              X                  Y                   Z               Mass       
    ------------   -----------------  -----------------  -----------------  -----------------
         O            2.371867930199     0.122174381128     0.019136584329    15.994914619570
         H            3.163750930199    -0.390146618872    -0.153072415671     1.007825032230
         H            1.667794930199    -0.533098618872     0.021396584329     1.007825032230

  Running in c1 symmetry.

  Rotational constants: A =     26.05948  B =      0.16374  C =      0.16277 [cm^-1]
  Rotational constants: A = 781243.43970  B =   4908.74888  C =   4879.85774 [MHz]
  Nuclear repulsion =    9.166774844215899

  Charge       = 0
  Multiplicity = 1
  Electrons    = 10
  Nalpha       = 5
  Nbeta        = 5

  ==> Algorithm <==

  SCF Algorithm Type is DF.
  DIIS enabled.
  MOM disabled.
  Fractional occupation disabled.
  Guess Type is SAD.
  Energy threshold   = 1.00e-07
  Density threshold  = 1.00e-08
  Integral threshold = 0.00e+00

  ==> Primary Basis <==

  Basis Set: AUG-CC-PVTZ
    Blend: AUG-CC-PVTZ
    Number of shells: 32
    Number of basis function: 92
    Number of Cartesian functions: 105
    Spherical Harmonics?: true
    Max angular momentum: 3

   => Loading Basis Set <=

    Name: (AUG-CC-PVTZ AUX)
    Role: JKFIT
    Keyword: DF_BASIS_SCF
    atoms 1   entry O          line   286 file /home/liuchw/anaconda3/envs/psi4env/share/psi4/basis/aug-cc-pvtz-jkfit.gbs 
    atoms 2-3 entry H          line    70 file /home/liuchw/anaconda3/envs/psi4env/share/psi4/basis/aug-cc-pvtz-jkfit.gbs 

  ==> Pre-Iterations <==

   -------------------------------------------------------
    Irrep   Nso     Nmo     Nalpha   Nbeta   Ndocc  Nsocc
   -------------------------------------------------------
     A         92      92       0       0       0       0
   -------------------------------------------------------
    Total      92      92       5       5       5       0
   -------------------------------------------------------

  ==> Integral Setup <==

  DFHelper Memory: AOs need 0.015 GiB; user supplied 34.925 GiB. Using in-core AOs.

  ==> MemDFJK: Density-Fitted J/K Matrices <==

    J tasked:                   Yes
    K tasked:                   Yes
    wK tasked:                   No
    OpenMP threads:               8
    Memory [MiB]:             35762
    Algorithm:                 Core
    Schwarz Cutoff:           1E-12
    Mask sparsity (%):       0.0000
    Fitting Condition:        1E-10

   => Auxiliary Basis Set <=

  Basis Set: (AUG-CC-PVTZ AUX)
    Blend: AUG-CC-PVTZ-JKFIT
    Number of shells: 58
    Number of basis function: 196
    Number of Cartesian functions: 241
    Spherical Harmonics?: true
    Max angular momentum: 4

  Minimum eigenvalue in the overlap matrix is 3.8806348861E-04.
  Using Symmetric Orthogonalization.

  SCF Guess: Superposition of Atomic Densities via on-the-fly atomic UHF.

  ==> Iterations <==

                           Total Energy        Delta E     RMS |[F,P]|

   @DF-RHF iter SAD:   -75.47513065864121   -7.54751e+01   0.00000e+00 
   @DF-RHF iter   1:   -75.97591395031586   -5.00783e-01   5.09146e-03 DIIS
   @DF-RHF iter   2:   -76.02839450241575   -5.24806e-02   3.47505e-03 DIIS
   @DF-RHF iter   3:   -76.05992476587583   -3.15303e-02   2.36065e-04 DIIS
   @DF-RHF iter   4:   -76.06031437235346   -3.89606e-04   5.66014e-05 DIIS
   @DF-RHF iter   5:   -76.06033880873782   -2.44364e-05   1.28612e-05 DIIS
   @DF-RHF iter   6:   -76.06034080913975   -2.00040e-06   2.81486e-06 DIIS
   @DF-RHF iter   7:   -76.06034091446710   -1.05327e-07   5.06081e-07 DIIS
   @DF-RHF iter   8:   -76.06034091745900   -2.99190e-09   8.48772e-08 DIIS
   @DF-RHF iter   9:   -76.06034091752477   -6.57678e-11   2.08133e-08 DIIS
   @DF-RHF iter  10:   -76.06034091752876   -3.99325e-12   3.06656e-09 DIIS
  Energy and wave function converged.


  ==> Post-Iterations <==

    Orbital Energies [Eh]
    ---------------------

    Doubly Occupied:                                                      

       1A    -20.567986     2A     -1.352445     3A     -0.715072  
       4A     -0.585476     5A     -0.510276  

    Virtual:                                                              

       6A      0.029363     7A      0.047707     8A      0.135858  
       9A      0.158757    10A      0.175227    11A      0.183115  
      12A      0.227161    13A      0.244997    14A      0.265478  
      15A      0.299898    16A      0.310070    17A      0.365858  
      18A      0.437564    19A      0.466248    20A      0.599150  
      21A      0.658763    22A      0.707910    23A      0.722810  
      24A      0.731685    25A      0.831061    26A      0.846652  
      27A      0.892123    28A      0.912751    29A      0.918012  
      30A      0.922640    31A      0.931064    32A      0.961259  
      33A      1.021248    34A      1.043452    35A      1.082653  
      36A      1.108558    37A      1.176688    38A      1.182453  
      39A      1.260713    40A      1.510463    41A      1.533848  
      42A      1.582898    43A      1.805115    44A      1.822674  
      45A      1.984664    46A      2.118650    47A      2.263183  
      48A      2.316151    49A      2.326900    50A      2.418741  
      51A      2.421357    52A      2.443380    53A      2.480237  
      54A      2.676392    55A      2.697950    56A      2.772497  
      57A      2.814322    58A      2.884751    59A      3.654414  
      60A      3.741241    61A      4.019934    62A      4.083992  
      63A      4.162670    64A      4.250090    65A      4.286043  
      66A      4.373091    67A      4.377815    68A      4.406249  
      69A      4.519465    70A      4.727016    71A      4.846568  
      72A      5.151136    73A      5.152027    74A      5.250250  
      75A      5.326855    76A      5.525587    77A      5.662671  
      78A      6.181533    79A      6.515577    80A      6.714811  
      81A      6.906307    82A      7.136752    83A      7.259006  
      84A      7.302204    85A      7.318728    86A      7.336992  
      87A      7.361115    88A      7.537188    89A      7.900483  
      90A      7.929606    91A      8.811490    92A     15.738484  

    Final Occupation by Irrep:
              A 
    DOCC [     5 ]

  @DF-RHF Final Energy:   -76.06034091752876

   => Energetics <=

    Nuclear Repulsion Energy =              9.1667748442158992
    One-Electron Energy =                -122.9917218034967021
    Two-Electron Energy =                  37.7646060417520459
    Total Energy =                        -76.0603409175287624

Computation Completed


Properties will be evaluated at   0.000000,   0.000000,   0.000000 [a0]

Properties computed using the SCF density matrix

  Nuclear Dipole Moment: [e a0]
     X:    44.9877      Y:     0.1023      Z:     0.0405

  Electronic Dipole Moment: [e a0]
     X:   -44.9290      Y:    -0.8766      Z:    -0.1532

  Dipole Moment: [e a0]
     X:     0.0588      Y:    -0.7743      Z:    -0.1128     Total:     0.7847

  Dipole Moment: [D]
     X:     0.1494      Y:    -1.9681      Z:    -0.2866     Total:     1.9945


*** tstop() called on node73.bme.utexas.edu at Wed Apr 15 03:47:47 2020
Module time:
	user time   =       7.89 seconds =       0.13 minutes
	system time =       0.47 seconds =       0.01 minutes
	total time  =          1 seconds =       0.02 minutes
Total time:
	user time   =      62.75 seconds =       1.05 minutes
	system time =       4.79 seconds =       0.08 minutes
	total time  =         11 seconds =       0.18 minutes
 MINTS: Wrapper to libmints.
   by Justin Turney

   Calculation information:
      Number of threads:                 8
      Number of atoms:                   3
      Number of AO shells:              32
      Number of SO shells:              32
      Number of primitives:             52
      Number of atomic orbitals:       105
      Number of basis functions:        92

      Number of irreps:                  1
      Integral cutoff                 0.00e+00
      Number of functions per irrep: [  92 ]

 OEINTS: Overlap, kinetic, potential, dipole, and quadrupole integrals
         stored in file 35.

      Computing two-electron integrals...done
      Computed 8685607 non-zero two-electron integrals.
        Stored in file 33.


*** tstart() called on node73.bme.utexas.edu
*** at Wed Apr 15 03:47:48 2020


	Wfn Parameters:
	--------------------
	Wavefunction         = CCSD_T
	Number of irreps     = 1
	Number of MOs        = 92
	Number of active MOs = 92
	AO-Basis             = NONE
	Semicanonical        = false
	Reference            = RHF
	Print Level          = 1

	IRREP	# MOs	# FZDC	# DOCC	# SOCC	# VIRT	# FZVR
	-----	-----	------	------	------	------	------
	 A	   92	    0	    5	    0	    87	    0
	Transforming integrals...
	IWL integrals will be deleted.
	(OO|OO)...
	Presorting SO-basis two-electron integrals.
	Sorting File: SO Ints (nn|nn) nbuckets = 1
	Transforming the one-electron integrals and constructing Fock matrices
	Starting first half-transformation.
	Sorting half-transformed integrals.
	First half integral transformation complete.
	Starting second half-transformation.
	Two-electron integral transformation complete.
	(OO|OV)...
	Starting second half-transformation.
	Two-electron integral transformation complete.
	(OO|VV)...
	Starting second half-transformation.
	Two-electron integral transformation complete.
	(OV|OO)...
	Starting first half-transformation.
	Sorting half-transformed integrals.
	First half integral transformation complete.
	Starting second half-transformation.
	Two-electron integral transformation complete.
	(OV|OV)...
	Starting second half-transformation.
	Two-electron integral transformation complete.
	(OV|VV)...
	Starting second half-transformation.
	Two-electron integral transformation complete.
	(VV|OO)...
	Starting first half-transformation.
	Sorting half-transformed integrals.
	First half integral transformation complete.
	Starting second half-transformation.
	Two-electron integral transformation complete.
	(VV|OV)...
	Starting second half-transformation.
	Two-electron integral transformation complete.
	(VV|VV)...
	Starting second half-transformation.
	Two-electron integral transformation complete.
	Frozen core energy     =      0.00000000000000

	Size of irrep 0 of <ab|cd> integrals:     57.290 (MW) /    458.318 (MB)
	Total:                                    57.290 (MW) /    458.318 (MB)

	Size of irrep 0 of <ia|bc> integrals:      3.293 (MW) /     26.340 (MB)
	Total:                                     3.293 (MW) /     26.340 (MB)

	Size of irrep 0 of tijab amplitudes:       0.189 (MW) /      1.514 (MB)
	Total:                                     0.189 (MW) /      1.514 (MB)

	Nuclear Rep. energy          =      9.16677484421590
	SCF energy                   =    -76.06034091752876
	One-electron energy          =   -122.99172147509820
	Two-electron energy          =     37.76459883083589
	Reference energy             =    -76.06034780004642

*** tstop() called on node73.bme.utexas.edu at Wed Apr 15 03:47:55 2020
Module time:
	user time   =      25.42 seconds =       0.42 minutes
	system time =       3.42 seconds =       0.06 minutes
	total time  =          7 seconds =       0.12 minutes
Total time:
	user time   =      91.75 seconds =       1.53 minutes
	system time =       8.54 seconds =       0.14 minutes
	total time  =         19 seconds =       0.32 minutes
            **************************
            *                        *
            *        CCENERGY        *
            *                        *
            **************************

    Nuclear Rep. energy (wfn)     =    9.166774844215899
    SCF energy          (wfn)     =  -76.060340917528762
    Reference energy    (file100) =  -76.060347800046415

    Input parameters:
    -----------------
    Wave function   =     CCSD_T
    Reference wfn   =     RHF
    Brueckner       =     No
    Memory (Mbytes) =     50000.0
    Maxiter         =     50
    R_Convergence   =     1.0e-07
    E_Convergence   =     1.0e-07
    Restart         =     Yes
    DIIS            =     Yes
    AO Basis        =     NONE
    ABCD            =     NEW
    Cache Level     =     2
    Cache Type      =     LOW
    Print Level     =     1
    Num. of threads =     8
    # Amps to Print =     10
    Print MP2 Amps? =     No
    Analyze T2 Amps =     No
    Print Pair Ener =     No
    Local CC        =     No
    SCS-MP2         =     False
    SCSN-MP2        =     False
    SCS-CCSD        =     False

MP2 correlation energy -0.2837640684011853
                Solving CC Amplitude Equations
                ------------------------------
  Iter             Energy              RMS        T1Diag      D1Diag    New D1Diag    D2Diag
  ----     ---------------------    ---------   ----------  ----------  ----------   --------
     0        -0.283764068401185    0.000e+00    0.000000    0.000000    0.000000    0.117815
     1        -0.282117878597782    3.538e-02    0.007589    0.017090    0.017090    0.120350
     2        -0.287133008948095    1.242e-02    0.007441    0.016900    0.016900    0.124792
     3        -0.288467147902928    4.843e-03    0.008630    0.020135    0.020135    0.126911
     4        -0.288330737652982    1.023e-03    0.008786    0.020602    0.020602    0.127081
     5        -0.288344841485104    3.704e-04    0.008871    0.020898    0.020898    0.127133
     6        -0.288350272781107    9.103e-05    0.008891    0.020977    0.020977    0.127128
     7        -0.288348166856252    3.038e-05    0.008895    0.020995    0.020995    0.127119
     8        -0.288347825095032    8.380e-06    0.008896    0.021002    0.021002    0.127118
     9        -0.288347897895121    2.606e-06    0.008897    0.021003    0.021003    0.127118
    10        -0.288347735669225    9.800e-07    0.008897    0.021003    0.021003    0.127118
    11        -0.288347754611155    3.054e-07    0.008897    0.021003    0.021003    0.127118
    12        -0.288347747430793    1.257e-07    0.008897    0.021003    0.021003    0.127118
    13        -0.288347747939870    4.046e-08    0.008897    0.021003    0.021003    0.127118

    Iterations converged.


    Largest TIA Amplitudes:
              4   3        -0.0148143303
              4   9        -0.0128382407
              3   2         0.0082016350
              3  10        -0.0076408413
              2  39         0.0055341081
              4  56         0.0043949192
              2  28         0.0039569053
              2  65         0.0036809225
              4  20        -0.0035241309
              3  64         0.0034699731

    Largest TIjAb Amplitudes:
      2   2  13  13        -0.0215328769
      3   3  21  21        -0.0198529964
      4   4  29  29        -0.0156133316
      2   2  13  28         0.0155551651
      2   2  28  13         0.0155551651
      2   2  14  14        -0.0148738733
      3   3  14  14        -0.0137624698
      4   4  23  23        -0.0134020780
      2   2  28  28        -0.0132423541
      2   3  13  21        -0.0128127969

    SCF energy       (wfn)                    =  -76.060340917528762
    Reference energy (file100)                =  -76.060347800046415

    Opposite-spin MP2 correlation energy      =   -0.215384571267630
    Same-spin MP2 correlation energy          =   -0.068379497133555
    MP2 correlation energy                    =   -0.283764068401185
      * MP2 total energy                      =  -76.344111868447598

    Opposite-spin CCSD correlation energy     =   -0.227380185307756
    Same-spin CCSD correlation energy         =   -0.060967562632115
    CCSD correlation energy                   =   -0.288347747939870
      * CCSD total energy                     =  -76.348695547986281

            **************************
            *                        *
            *        CCTRIPLES       *
            *                        *
            **************************


    Wave function   =    CCSD_T
    Reference wfn   =      RHF

    Nuclear Rep. energy (wfn)                =    9.166774844215899
    SCF energy          (wfn)                =  -76.060340917528762
    Reference energy    (file100)            =  -76.060347800046415
    CCSD energy         (file100)            =   -0.288347747939870
    Total CCSD energy   (file100)            =  -76.348695547986281

    Number of ijk index combinations:               35
    Memory available in words        :      6250000000
    ~Words needed per explicit thread:         2634012
    Number of threads for explicit ijk threading:    8

    MKL num_threads set to 1 for explicit threading.

    (T) energy                                =   -0.008795501723796
      * CCSD(T) total energy                  =  -76.357491049710077


  //>>>>>>>>>>>>>>>>>>>>>>>>>>>>>>>>>>>//
  //    CBS Results: custom function   //
  //<<<<<<<<<<<<<<<<<<<<<<<<<<<<<<<<<<<//


   ==> HF <==

   HI-zeta (4) Energy:               -76.065719311212


   ==> Helgaker 2-point correlated extrapolation for method: MP2 <==

   LO-zeta (3) Energy:               -76.344111868448
   HI-zeta (4) Energy:               -76.382726570790
   Alpha (exponent) Value:             3.000000000000
   Extrapolated Energy:              -76.410904867095

   @Extrapolated MP2/(T,Q):          -76.410904867095



   ==> Helgaker 2-point correlated extrapolation for method: HF <==

   LO-zeta (3) Energy:               -76.060340917529
   HI-zeta (4) Energy:               -76.065719311212
   Alpha (exponent) Value:             3.000000000000
   Extrapolated Energy:              -76.069644084980

   @Extrapolated HF/(T,Q):           -76.069644084980



   ==> Helgaker 2-point correlated extrapolation for method: CCSD(T) <==

   LO-zeta (2) Energy:               -76.276073705937
   HI-zeta (3) Energy:               -76.357491049710
   Alpha (exponent) Value:             3.000000000000
   Extrapolated Energy:              -76.391772036562

   @Extrapolated CCSD(T)/(D,T):      -76.391772036562



   ==> Helgaker 2-point correlated extrapolation for method: MP2 <==

   LO-zeta (2) Energy:               -76.263320804971
   HI-zeta (3) Energy:               -76.344111868448
   Alpha (exponent) Value:             3.000000000000
   Extrapolated Energy:              -76.378129158332

   @Extrapolated MP2/(D,T):          -76.378129158332


   ==> Components <==

  ---------------------------------------------------------------------------------------------------------
                          Method / Basis                      Rqd      Energy [Eh]   Variable
  ---------------------------------------------------------------------------------------------------------
                              hf / aug-cc-pvqz                  *     -76.06571931   HF TOTAL ENERGY
                             mp2 / aug-cc-pvqz                  *     -76.38272657   MP2 TOTAL ENERGY
                              hf / aug-cc-pvdz                        -76.04117890   HF TOTAL ENERGY
                             mp2 / aug-cc-pvdz                  *     -76.26332080   MP2 TOTAL ENERGY
                            ccsd / aug-cc-pvdz                        -76.27081541   CCSD TOTAL ENERGY
                         ccsd(t) / aug-cc-pvdz                  *     -76.27607371   CCSD(T) TOTAL ENERGY
                              hf / aug-cc-pvtz                  *     -76.06034092   HF TOTAL ENERGY
                             mp2 / aug-cc-pvtz                  *     -76.34411187   MP2 TOTAL ENERGY
                            ccsd / aug-cc-pvtz                        -76.34869555   CCSD TOTAL ENERGY
                         ccsd(t) / aug-cc-pvtz                  *     -76.35749105   CCSD(T) TOTAL ENERGY
  ---------------------------------------------------------------------------------------------------------

   ==> Stages <==

  ---------------------------------------------------------------------------------------------------------
      Stage               Method / Basis                       Wt      Energy [Eh]   Scheme
  ---------------------------------------------------------------------------------------------------------
        scf                   hf / aug-cc-pvqz                  1     -76.06571931   xtpl_highest_1
       corl                  mp2 / aug-cc-pv[tq]z               1     -76.41090487   corl_xtpl_helgaker_2
       corl                   hf / aug-cc-pv[tq]z              -1     -76.06964408   corl_xtpl_helgaker_2
     delta1              ccsd(t) / aug-cc-pv[dt]z               1     -76.39177204   corl_xtpl_helgaker_2
     delta1                  mp2 / aug-cc-pv[dt]z              -1     -76.37812916   corl_xtpl_helgaker_2
  ---------------------------------------------------------------------------------------------------------

   ==> CBS <==

  ---------------------------------------------------------------------------------------------------------
      Stage               Method / Basis                               Energy [Eh]   Scheme
  ---------------------------------------------------------------------------------------------------------
        scf                   hf / aug-cc-pvqz                        -76.06571931   xtpl_highest_1
       corl                  mp2 / aug-cc-pv[tq]z                      -0.34126078   corl_xtpl_helgaker_2
     delta1        ccsd(t) - mp2 / aug-cc-pv[dt]z                      -0.01364288   corl_xtpl_helgaker_2
      total                  CBS                                      -76.42062297   
  ---------------------------------------------------------------------------------------------------------
   => Loading Basis Set <=

    Name: DEF2-SVP
    Role: ORBITAL
    Keyword: BASIS
    atoms 1   entry O          line   130 file /home/liuchw/anaconda3/envs/psi4env/share/psi4/basis/def2-svp.gbs 
    atoms 2-3 entry H          line    15 file /home/liuchw/anaconda3/envs/psi4env/share/psi4/basis/def2-svp.gbs 


       N-Body: Complex Energy (fragments = (2,), basis = (2,):   -76.42062297155547)

       N-Body: Computing complex (2/4) with fragments (2,) in the basis of fragments (1, 2).


Scratch directory: /scratch/liuchw/

  //>>>>>>>>>>>>>>>>>>>>>>>>>>>>>>>>>>>//
  //     CBS Setup: custom function    //
  //<<<<<<<<<<<<<<<<<<<<<<<<<<<<<<<<<<<//

    Naive listing of computations required.
             hf / aug-cc-pvqz              for  HF TOTAL ENERGY
            mp2 / aug-cc-pvtz              for  MP2 TOTAL ENERGY
            mp2 / aug-cc-pvqz              for  MP2 TOTAL ENERGY
             hf / aug-cc-pvtz              for  HF TOTAL ENERGY
             hf / aug-cc-pvqz              for  HF TOTAL ENERGY
        ccsd(t) / aug-cc-pvdz              for  CCSD(T) TOTAL ENERGY
        ccsd(t) / aug-cc-pvtz              for  CCSD(T) TOTAL ENERGY
            mp2 / aug-cc-pvdz              for  MP2 TOTAL ENERGY
            mp2 / aug-cc-pvtz              for  MP2 TOTAL ENERGY

    Enlightened listing of computations required.
            mp2 / aug-cc-pvqz              for  MP2 TOTAL ENERGY
        ccsd(t) / aug-cc-pvdz              for  CCSD(T) TOTAL ENERGY
        ccsd(t) / aug-cc-pvtz              for  CCSD(T) TOTAL ENERGY

    Full listing of computations to be obtained (required and bonus).
             hf / aug-cc-pvqz              for  HF TOTAL ENERGY
            mp2 / aug-cc-pvqz              for  MP2 TOTAL ENERGY
             hf / aug-cc-pvdz              for  HF TOTAL ENERGY
            mp2 / aug-cc-pvdz              for  MP2 TOTAL ENERGY
           ccsd / aug-cc-pvdz              for  CCSD TOTAL ENERGY
        ccsd(t) / aug-cc-pvdz              for  CCSD(T) TOTAL ENERGY
             hf / aug-cc-pvtz              for  HF TOTAL ENERGY
            mp2 / aug-cc-pvtz              for  MP2 TOTAL ENERGY
           ccsd / aug-cc-pvtz              for  CCSD TOTAL ENERGY
        ccsd(t) / aug-cc-pvtz              for  CCSD(T) TOTAL ENERGY

  //>>>>>>>>>>>>>>>>>>>>>>>>>>>>>>>>>>>>//
  // CBS Computation: MP2 / AUG-CC-PVQZ //
  //<<<<<<<<<<<<<<<<<<<<<<<<<<<<<<<<<<<<//


Scratch directory: /scratch/liuchw/

*** tstart() called on node73.bme.utexas.edu
*** at Wed Apr 15 03:48:08 2020

   => Loading Basis Set <=

    Name: AUG-CC-PVQZ
    Role: ORBITAL
    Keyword: BASIS
    atoms 1        entry CL         line  1222 file /home/liuchw/anaconda3/envs/psi4env/share/psi4/basis/aug-cc-pvqz.gbs 
    atoms 2        entry C          line   303 file /home/liuchw/anaconda3/envs/psi4env/share/psi4/basis/aug-cc-pvqz.gbs 
    atoms 3-5, 7-8 entry H          line    40 file /home/liuchw/anaconda3/envs/psi4env/share/psi4/basis/aug-cc-pvqz.gbs 
    atoms 6        entry O          line   423 file /home/liuchw/anaconda3/envs/psi4env/share/psi4/basis/aug-cc-pvqz.gbs 


         ---------------------------------------------------------
                                   SCF
               by Justin Turney, Rob Parrish, Andy Simmonett
                          and Daniel G. A. Smith
                              RHF Reference
                        8 Threads,  47683 MiB Core
         ---------------------------------------------------------

  ==> Geometry <==

    Molecular point group: c1
    Full point group: C1

    Geometry (in Angstrom), charge = 0, multiplicity = 1:

       Center              X                  Y                   Z               Mass       
    ------------   -----------------  -----------------  -----------------  -----------------
      Gh(CL)         -0.902809069801    -0.575422618872    -0.001601415671    34.968852682000
      Gh(C)          -0.753274069801     1.203659381128    -0.007700415671    12.000000000000
      Gh(H)           0.295410930199     1.454143381128    -0.111443415671     1.007825032230
      Gh(H)          -1.327952069801     1.586261381128    -0.842315415671     1.007825032230
      Gh(H)          -1.148087069801     1.577715381128     0.928975584329     1.007825032230
         O            2.371867930199     0.122174381128     0.019136584329    15.994914619570
         H            3.163750930199    -0.390146618872    -0.153072415671     1.007825032230
         H            1.667794930199    -0.533098618872     0.021396584329     1.007825032230

  Running in c1 symmetry.

  Rotational constants: A =      0.44279  B =      0.11757  C =      0.09460 [cm^-1]
  Rotational constants: A =  13274.60722  B =   3524.72607  C =   2836.04295 [MHz]
  Nuclear repulsion =    9.166774844215899

  Charge       = 0
  Multiplicity = 1
  Electrons    = 10
  Nalpha       = 5
  Nbeta        = 5

  ==> Algorithm <==

  SCF Algorithm Type is DF.
  DIIS enabled.
  MOM disabled.
  Fractional occupation disabled.
  Guess Type is SAD.
  Energy threshold   = 1.00e-07
  Density threshold  = 1.00e-08
  Integral threshold = 0.00e+00

  ==> Primary Basis <==

  Basis Set: AUG-CC-PVQZ
    Blend: AUG-CC-PVQZ
    Number of shells: 132
    Number of basis function: 474
    Number of Cartesian functions: 594
    Spherical Harmonics?: true
    Max angular momentum: 4

   => Loading Basis Set <=

    Name: (AUG-CC-PVQZ AUX)
    Role: JKFIT
    Keyword: DF_BASIS_SCF
    atoms 1        entry CL         line   904 file /home/liuchw/anaconda3/envs/psi4env/share/psi4/basis/aug-cc-pvqz-jkfit.gbs 
    atoms 2        entry C          line   178 file /home/liuchw/anaconda3/envs/psi4env/share/psi4/basis/aug-cc-pvqz-jkfit.gbs 
    atoms 3-5, 7-8 entry H          line    70 file /home/liuchw/anaconda3/envs/psi4env/share/psi4/basis/aug-cc-pvqz-jkfit.gbs 
    atoms 6        entry O          line   318 file /home/liuchw/anaconda3/envs/psi4env/share/psi4/basis/aug-cc-pvqz-jkfit.gbs 

  ==> Pre-Iterations <==

   -------------------------------------------------------
    Irrep   Nso     Nmo     Nalpha   Nbeta   Ndocc  Nsocc
   -------------------------------------------------------
     A        474     474       0       0       0       0
   -------------------------------------------------------
    Total     474     474       5       5       5       0
   -------------------------------------------------------

  ==> Integral Setup <==

  DFHelper Memory: AOs need 1.428 GiB; user supplied 34.925 GiB. Using in-core AOs.

  ==> MemDFJK: Density-Fitted J/K Matrices <==

    J tasked:                   Yes
    K tasked:                   Yes
    wK tasked:                   No
    OpenMP threads:               8
    Memory [MiB]:             35762
    Algorithm:                 Core
    Schwarz Cutoff:           1E-12
    Mask sparsity (%):       4.6022
    Fitting Condition:        1E-10

   => Auxiliary Basis Set <=

  Basis Set: (AUG-CC-PVQZ AUX)
    Blend: AUG-CC-PVQZ-JKFIT
    Number of shells: 204
    Number of basis function: 848
    Number of Cartesian functions: 1148
    Spherical Harmonics?: true
    Max angular momentum: 5

  Minimum eigenvalue in the overlap matrix is 1.3198530295E-05.
  Using Symmetric Orthogonalization.

  SCF Guess: Superposition of Atomic Densities via on-the-fly atomic UHF.

  ==> Iterations <==

                           Total Energy        Delta E     RMS |[F,P]|

   @DF-RHF iter SAD:   -75.48027143125748   -7.54803e+01   0.00000e+00 
   @DF-RHF iter   1:   -75.98100783447980   -5.00736e-01   9.90361e-04 DIIS
   @DF-RHF iter   2:   -76.03359163182242   -5.25838e-02   6.77494e-04 DIIS
   @DF-RHF iter   3:   -76.06532166002206   -3.17300e-02   4.61691e-05 DIIS
   @DF-RHF iter   4:   -76.06571339371700   -3.91734e-04   1.13168e-05 DIIS
   @DF-RHF iter   5:   -76.06573872997460   -2.53363e-05   2.56295e-06 DIIS
   @DF-RHF iter   6:   -76.06574081322579   -2.08325e-06   5.76376e-07 DIIS
   @DF-RHF iter   7:   -76.06574093009873   -1.16873e-07   1.07305e-07 DIIS
   @DF-RHF iter   8:   -76.06574093365893   -3.56020e-09   1.72957e-08 DIIS
   @DF-RHF iter   9:   -76.06574093373341   -7.44791e-11   4.14250e-09 DIIS
  Energy and wave function converged.


  ==> Post-Iterations <==

    Orbital Energies [Eh]
    ---------------------

    Doubly Occupied:                                                      

       1A    -20.565508     2A     -1.351696     3A     -0.715022  
       4A     -0.585513     5A     -0.510394  

    Virtual:                                                              

       6A      0.020034     7A      0.034172     8A      0.042342  
       9A      0.044020    10A      0.061434    11A      0.069645  
      12A      0.093544    13A      0.093740    14A      0.097386  
      15A      0.113344    16A      0.114763    17A      0.125181  
      18A      0.136236    19A      0.145694    20A      0.150438  
      21A      0.179149    22A      0.189243    23A      0.205786  
      24A      0.224949    25A      0.234979    26A      0.239414  
      27A      0.242816    28A      0.255700    29A      0.259133  
      30A      0.263695    31A      0.266346    32A      0.273577  
      33A      0.279132    34A      0.291017    35A      0.294930  
      36A      0.299570    37A      0.315709    38A      0.324210  
      39A      0.331201    40A      0.342819    41A      0.366193  
      42A      0.368370    43A      0.374378    44A      0.388016  
      45A      0.389283    46A      0.398906    47A      0.410799  
      48A      0.423721    49A      0.429505    50A      0.441554  
      51A      0.461397    52A      0.471755    53A      0.483468  
      54A      0.495881    55A      0.513860    56A      0.520562  
      57A      0.552482    58A      0.558497    59A      0.560482  
      60A      0.575526    61A      0.590955    62A      0.598039  
      63A      0.609550    64A      0.622289    65A      0.637889  
      66A      0.663018    67A      0.674307    68A      0.684430  
      69A      0.704184    70A      0.711177    71A      0.726878  
      72A      0.734428    73A      0.755252    74A      0.761888  
      75A      0.772364    76A      0.779009    77A      0.787148  
      78A      0.795584    79A      0.806142    80A      0.812179  
      81A      0.813888    82A      0.826122    83A      0.832958  
      84A      0.849564    85A      0.859169    86A      0.862981  
      87A      0.879427    88A      0.885790    89A      0.904237  
      90A      0.926669    91A      0.935984    92A      0.949012  
      93A      0.951838    94A      0.962804    95A      0.968686  
      96A      0.987328    97A      1.001163    98A      1.013687  
      99A      1.023759   100A      1.034683   101A      1.044698  
     102A      1.049762   103A      1.070758   104A      1.071747  
     105A      1.088958   106A      1.094679   107A      1.112763  
     108A      1.135638   109A      1.145022   110A      1.150739  
     111A      1.159634   112A      1.177315   113A      1.190084  
     114A      1.199738   115A      1.217069   116A      1.243356  
     117A      1.265514   118A      1.289942   119A      1.290188  
     120A      1.299558   121A      1.347173   122A      1.362559  
     123A      1.380468   124A      1.418065   125A      1.444506  
     126A      1.472029   127A      1.474984   128A      1.503859  
     129A      1.521442   130A      1.537145   131A      1.543395  
     132A      1.567035   133A      1.588521   134A      1.599039  
     135A      1.603711   136A      1.611267   137A      1.613979  
     138A      1.639075   139A      1.650648   140A      1.668106  
     141A      1.679609   142A      1.688529   143A      1.691593  
     144A      1.700319   145A      1.727603   146A      1.750537  
     147A      1.759266   148A      1.784281   149A      1.789470  
     150A      1.807265   151A      1.820544   152A      1.834971  
     153A      1.846166   154A      1.852046   155A      1.876891  
     156A      1.890094   157A      1.898233   158A      1.907457  
     159A      1.929898   160A      1.934251   161A      1.941910  
     162A      1.949905   163A      1.957430   164A      1.989810  
     165A      2.008531   166A      2.016151   167A      2.035454  
     168A      2.050325   169A      2.066758   170A      2.075028  
     171A      2.090386   172A      2.094631   173A      2.112981  
     174A      2.121578   175A      2.145167   176A      2.151738  
     177A      2.163108   178A      2.168234   179A      2.180561  
     180A      2.184543   181A      2.203501   182A      2.224409  
     183A      2.238625   184A      2.250698   185A      2.266358  
     186A      2.294970   187A      2.308705   188A      2.329220  
     189A      2.334376   190A      2.353775   191A      2.375935  
     192A      2.386654   193A      2.414481   194A      2.433478  
     195A      2.446313   196A      2.455780   197A      2.492222  
     198A      2.499411   199A      2.518071   200A      2.526236  
     201A      2.571519   202A      2.579154   203A      2.594227  
     204A      2.607961   205A      2.633055   206A      2.649712  
     207A      2.676540   208A      2.685002   209A      2.699707  
     210A      2.737700   211A      2.747518   212A      2.769411  
     213A      2.811442   214A      2.819093   215A      2.835754  
     216A      2.864146   217A      2.884712   218A      2.893380  
     219A      2.933854   220A      2.956377   221A      2.982501  
     222A      3.013511   223A      3.023218   224A      3.023669  
     225A      3.042514   226A      3.061119   227A      3.070004  
     228A      3.114732   229A      3.143646   230A      3.144704  
     231A      3.182467   232A      3.204106   233A      3.230457  
     234A      3.261346   235A      3.274714   236A      3.290919  
     237A      3.308700   238A      3.335175   239A      3.348638  
     240A      3.356065   241A      3.386689   242A      3.406751  
     243A      3.415902   244A      3.439929   245A      3.464110  
     246A      3.501168   247A      3.513702   248A      3.520585  
     249A      3.547743   250A      3.591185   251A      3.615042  
     252A      3.665695   253A      3.716219   254A      3.746198  
     255A      3.754796   256A      3.785284   257A      3.794210  
     258A      3.813113   259A      3.854309   260A      3.867790  
     261A      3.919011   262A      3.931782   263A      3.959113  
     264A      4.008775   265A      4.030586   266A      4.074014  
     267A      4.090622   268A      4.145342   269A      4.179874  
     270A      4.185972   271A      4.200929   272A      4.211217  
     273A      4.225649   274A      4.243077   275A      4.275727  
     276A      4.294882   277A      4.318501   278A      4.326063  
     279A      4.371961   280A      4.421588   281A      4.462251  
     282A      4.492854   283A      4.512492   284A      4.614043  
     285A      4.654093   286A      4.692175   287A      4.734542  
     288A      4.755010   289A      4.823879   290A      4.876452  
     291A      4.878771   292A      4.892057   293A      4.908676  
     294A      4.954993   295A      4.979277   296A      5.010046  
     297A      5.035370   298A      5.074680   299A      5.128475  
     300A      5.172314   301A      5.230058   302A      5.292969  
     303A      5.390249   304A      5.457409   305A      5.484148  
     306A      5.497439   307A      5.566312   308A      5.587209  
     309A      5.609036   310A      5.640055   311A      5.650816  
     312A      5.672822   313A      5.707765   314A      5.832009  
     315A      5.860802   316A      5.896813   317A      5.955927  
     318A      6.028277   319A      6.056029   320A      6.150658  
     321A      6.186764   322A      6.370967   323A      6.379701  
     324A      6.396722   325A      6.444770   326A      6.455111  
     327A      6.523703   328A      6.558936   329A      6.795158  
     330A      6.805261   331A      6.830430   332A      6.861388  
     333A      6.902148   334A      6.944397   335A      6.957636  
     336A      6.974160   337A      7.004177   338A      7.043966  
     339A      7.079743   340A      7.106376   341A      7.143618  
     342A      7.155506   343A      7.286136   344A      7.295183  
     345A      7.346124   346A      7.384129   347A      7.393452  
     348A      7.428160   349A      7.642443   350A      7.670880  
     351A      7.676191   352A      7.694370   353A      7.729349  
     354A      7.779241   355A      7.816096   356A      7.825831  
     357A      7.858147   358A      7.867886   359A      7.890085  
     360A      7.912107   361A      7.921620   362A      7.935574  
     363A      7.952727   364A      8.000142   365A      8.012052  
     366A      8.049387   367A      8.062801   368A      8.096455  
     369A      8.153256   370A      8.174429   371A      8.192928  
     372A      8.234856   373A      8.353973   374A      8.363730  
     375A      8.404343   376A      8.453308   377A      8.557828  
     378A      8.578152   379A      8.635378   380A      8.723892  
     381A      8.732821   382A      8.758333   383A      8.808607  
     384A      8.831906   385A      8.846451   386A      8.896378  
     387A      8.905789   388A      8.944165   389A      8.970560  
     390A      9.052369   391A      9.111400   392A      9.159282  
     393A      9.225069   394A      9.300680   395A      9.311240  
     396A      9.404326   397A      9.449884   398A      9.557708  
     399A      9.623883   400A      9.682127   401A      9.709162  
     402A      9.717814   403A      9.768119   404A      9.804099  
     405A      9.819360   406A      9.875537   407A      9.893563  
     408A      9.925548   409A      9.986861   410A     10.002128  
     411A     10.037367   412A     10.106983   413A     10.122629  
     414A     10.151801   415A     10.344033   416A     10.390961  
     417A     10.423130   418A     10.532880   419A     10.551604  
     420A     10.638937   421A     10.688601   422A     10.758660  
     423A     10.799888   424A     10.814788   425A     10.819483  
     426A     10.917690   427A     10.946682   428A     11.070667  
     429A     11.139802   430A     11.212501   431A     11.239701  
     432A     11.317614   433A     11.327079   434A     11.348818  
     435A     11.381324   436A     11.415336   437A     11.511696  
     438A     11.772579   439A     11.888367   440A     11.921269  
     441A     12.060653   442A     12.079538   443A     12.100331  
     444A     12.129613   445A     12.261187   446A     12.326168  
     447A     12.417834   448A     12.763248   449A     12.798686  
     450A     12.875083   451A     12.996489   452A     13.204996  
     453A     13.227375   454A     13.236150   455A     13.620829  
     456A     14.019616   457A     14.164800   458A     14.511067  
     459A     14.813531   460A     14.861482   461A     14.930477  
     462A     15.321006   463A     16.529777   464A     17.014079  
     465A     17.387995   466A     17.410937   467A     17.511027  
     468A     31.095290   469A     31.151900   470A     31.343443  
     471A     43.422830   472A     45.794047   473A     71.801144  
     474A    160.423978  

    Final Occupation by Irrep:
              A 
    DOCC [     5 ]

  @DF-RHF Final Energy:   -76.06574093373341

   => Energetics <=

    Nuclear Repulsion Energy =              9.1667748442158992
    One-Electron Energy =                -123.0087624992288369
    Two-Electron Energy =                  37.7762467212795343
    Total Energy =                        -76.0657409337334087

Computation Completed


Properties will be evaluated at   0.000000,   0.000000,   0.000000 [a0]

Properties computed using the SCF density matrix

  Nuclear Dipole Moment: [e a0]
     X:    44.9877      Y:     0.1023      Z:     0.0405

  Electronic Dipole Moment: [e a0]
     X:   -44.9290      Y:    -0.8757      Z:    -0.1531

  Dipole Moment: [e a0]
     X:     0.0587      Y:    -0.7734      Z:    -0.1126     Total:     0.7838

  Dipole Moment: [D]
     X:     0.1492      Y:    -1.9658      Z:    -0.2862     Total:     1.9921


*** tstop() called on node73.bme.utexas.edu at Wed Apr 15 03:48:15 2020
Module time:
	user time   =      45.87 seconds =       0.76 minutes
	system time =       1.42 seconds =       0.02 minutes
	total time  =          7 seconds =       0.12 minutes
Total time:
	user time   =     201.34 seconds =       3.36 minutes
	system time =      17.18 seconds =       0.29 minutes
	total time  =         39 seconds =       0.65 minutes

*** tstart() called on node73.bme.utexas.edu
*** at Wed Apr 15 03:48:15 2020


  //>>>>>>>>>>>>>>>>>>>>>>>>>>>>>>>>>>>//
  //               DFMP2               //
  //<<<<<<<<<<<<<<<<<<<<<<<<<<<<<<<<<<<//

   => Loading Basis Set <=

    Name: (AUG-CC-PVQZ AUX)
    Role: RIFIT
    Keyword: DF_BASIS_MP2
    atoms 1        entry CL         line   914 file /home/liuchw/anaconda3/envs/psi4env/share/psi4/basis/aug-cc-pvqz-ri.gbs 
    atoms 2        entry C          line   184 file /home/liuchw/anaconda3/envs/psi4env/share/psi4/basis/aug-cc-pvqz-ri.gbs 
    atoms 3-5, 7-8 entry H          line    30 file /home/liuchw/anaconda3/envs/psi4env/share/psi4/basis/aug-cc-pvqz-ri.gbs 
    atoms 6        entry O          line   332 file /home/liuchw/anaconda3/envs/psi4env/share/psi4/basis/aug-cc-pvqz-ri.gbs 

	 --------------------------------------------------------
	                          DF-MP2                         
	      2nd-Order Density-Fitted Moller-Plesset Theory     
	              RMP2 Wavefunction,   8 Threads             
	                                                         
	        Rob Parrish, Justin Turney, Andy Simmonett,      
	           Ed Hohenstein, and C. David Sherrill          
	 --------------------------------------------------------

   => Auxiliary Basis Set <=

  Basis Set: (AUG-CC-PVQZ AUX)
    Blend: AUG-CC-PVQZ-RI
    Number of shells: 216
    Number of basis function: 930
    Number of Cartesian functions: 1267
    Spherical Harmonics?: true
    Max angular momentum: 5

	 --------------------------------------------------------
	                 NBF =   474, NAUX =   930
	 --------------------------------------------------------
	   CLASS    FOCC     OCC    AOCC    AVIR     VIR    FVIR
	   PAIRS       0       5       5     469     469       0
	 --------------------------------------------------------

	-----------------------------------------------------------
[...]
     136A      1.815291   137A      1.834005   138A      1.855851  
     139A      1.908274   140A      1.946536   141A      1.949676  
     142A      2.004876   143A      2.025154   144A      2.039772  
     145A      2.073508   146A      2.081032   147A      2.127895  
     148A      2.203542   149A      2.225487   150A      2.237653  
     151A      2.308039   152A      2.342139   153A      2.383372  
     154A      2.456709   155A      2.460739   156A      2.517332  
     157A      2.524826   158A      2.575523   159A      2.589290  
     160A      2.653920   161A      2.685297   162A      2.703290  
     163A      2.762668   164A      2.791525   165A      2.804181  
     166A      2.845033   167A      2.927019   168A      2.935134  
     169A      2.939592   170A      2.974620   171A      3.038066  
     172A      3.072090   173A      3.122591   174A      3.145115  
     175A      3.160272   176A      3.213994   177A      3.226856  
     178A      3.253382   179A      3.299004   180A      3.367803  
     181A      3.394870   182A      3.418026   183A      3.576364  
     184A      3.579298   185A      3.587975   186A      3.607398  
     187A      3.616800   188A      3.717781   189A      3.795050  
     190A      3.805851   191A      3.854378   192A      3.923430  
     193A      3.935701   194A      3.963966   195A      4.066686  
     196A      4.085249   197A      4.098332   198A      4.112322  
     199A      4.128211   200A      4.168586   201A      4.193153  
     202A      4.210936   203A      4.234865   204A      4.256252  
     205A      4.339796   206A      4.396041   207A      4.416714  
     208A      4.468319   209A      4.474621   210A      4.493986  
     211A      4.540319   212A      4.598811   213A      4.671266  
     214A      4.764946   215A      4.770947   216A      4.813805  
     217A      4.845178   218A      4.888686   219A      4.929903  
     220A      4.937811   221A      5.001599   222A      5.038786  
     223A      5.184072   224A      5.193156   225A      5.199183  
     226A      5.235751   227A      5.255837   228A      5.335272  
     229A      5.426138   230A      5.516804   231A      5.532725  
     232A      5.559566   233A      5.609104   234A      5.686934  
     235A      5.757505   236A      6.000003   237A      6.055046  
     238A      6.136335   239A      6.244881   240A      6.600364  
     241A      6.614789   242A      6.641998   243A      6.762561  
     244A      6.986573   245A      7.158686   246A      7.316287  
     247A      7.331780   248A      7.336973   249A      7.415961  
     250A      7.436682   251A      7.669372   252A      7.744381  
     253A      7.951716   254A      8.002809   255A      8.870005  
     256A     15.996702   257A     17.070037  

    Final Occupation by Irrep:
              A 
    DOCC [    18 ]

  @DF-RHF Final Energy:  -575.21201399292875

   => Energetics <=

    Nuclear Repulsion Energy =            101.9342047045026760
    One-Electron Energy =                -995.9580817469563954
    Two-Electron Energy =                 318.8118630495249022
    Total Energy =                       -575.2120139929288598

Computation Completed


Properties will be evaluated at   0.000000,   0.000000,   0.000000 [a0]

Properties computed using the SCF density matrix

  Nuclear Dipole Moment: [e a0]
     X:     3.3230      Y:     3.9912      Z:    -0.1451

  Electronic Dipole Moment: [e a0]
     X:    -3.2286      Y:    -3.8592      Z:     0.0293

  Dipole Moment: [e a0]
     X:     0.0944      Y:     0.1320      Z:    -0.1158     Total:     0.1994

  Dipole Moment: [D]
     X:     0.2399      Y:     0.3356      Z:    -0.2944     Total:     0.5068


*** tstop() called on node73.bme.utexas.edu at Wed Apr 15 04:36:27 2020
Module time:
	user time   =      25.71 seconds =       0.43 minutes
	system time =       1.10 seconds =       0.02 minutes
	total time  =          4 seconds =       0.07 minutes
Total time:
	user time   =    9682.43 seconds =     161.37 minutes
	system time =    1147.78 seconds =      19.13 minutes
	total time  =       2931 seconds =      48.85 minutes
 MINTS: Wrapper to libmints.
   by Justin Turney

   Calculation information:
      Number of threads:                 8
      Number of atoms:                   8
      Number of AO shells:              89
      Number of SO shells:              89
      Number of primitives:            179
      Number of atomic orbitals:       294
      Number of basis functions:       257

      Number of irreps:                  1
      Integral cutoff                 0.00e+00
      Number of functions per irrep: [ 257 ]

 OEINTS: Overlap, kinetic, potential, dipole, and quadrupole integrals
         stored in file 35.

      Computing two-electron integrals...done
      Computed 548144634 non-zero two-electron integrals.
        Stored in file 33.


*** tstart() called on node73.bme.utexas.edu
*** at Wed Apr 15 04:37:35 2020


	Wfn Parameters:
	--------------------
	Wavefunction         = CCSD_T
	Number of irreps     = 1
	Number of MOs        = 257
	Number of active MOs = 257
	AO-Basis             = NONE
	Semicanonical        = false
	Reference            = RHF
	Print Level          = 1

	IRREP	# MOs	# FZDC	# DOCC	# SOCC	# VIRT	# FZVR
	-----	-----	------	------	------	------	------
	 A	   257	    0	    18	    0	    239	    0
	Transforming integrals...
	IWL integrals will be deleted.
	(OO|OO)...
	Presorting SO-basis two-electron integrals.
	Sorting File: SO Ints (nn|nn) nbuckets = 1
	Transforming the one-electron integrals and constructing Fock matrices
	Starting first half-transformation.
	Sorting half-transformed integrals.
	First half integral transformation complete.
	Starting second half-transformation.
	Two-electron integral transformation complete.
	(OO|OV)...
	Starting second half-transformation.
	Two-electron integral transformation complete.
	(OO|VV)...
	Starting second half-transformation.
	Two-electron integral transformation complete.
	(OV|OO)...
	Starting first half-transformation.
	Sorting half-transformed integrals.
	First half integral transformation complete.
	Starting second half-transformation.
	Two-electron integral transformation complete.
	(OV|OV)...
	Starting second half-transformation.
	Two-electron integral transformation complete.
	(OV|VV)...
	Starting second half-transformation.
	Two-electron integral transformation complete.
	(VV|OO)...
	Starting first half-transformation.
	Sorting half-transformed integrals.
	First half integral transformation complete.
	Starting second half-transformation.
	Two-electron integral transformation complete.
	(VV|OV)...
	Starting second half-transformation.
	Two-electron integral transformation complete.
	(VV|VV)...
	Starting second half-transformation.
	Two-electron integral transformation complete.
	Frozen core energy     =      0.00000000000000

	Size of irrep 0 of <ab|cd> integrals:   3262.809 (MW) /  26102.469 (MB)
	Total:                                  3262.809 (MW) /  26102.469 (MB)

	Size of irrep 0 of <ia|bc> integrals:    245.735 (MW) /   1965.876 (MB)
	Total:                                   245.735 (MW) /   1965.876 (MB)

	Size of irrep 0 of tijab amplitudes:      18.507 (MW) /    148.058 (MB)
	Total:                                    18.507 (MW) /    148.058 (MB)

	Nuclear Rep. energy          =    101.93420470450268
	SCF energy                   =   -575.21201399292875
	One-electron energy          =   -995.95808051861115
	Two-electron energy          =    318.81183623273637
	Reference energy             =   -575.21203958137210

*** tstop() called on node73.bme.utexas.edu at Wed Apr 15 04:44:56 2020
Module time:
	user time   =     993.40 seconds =      16.56 minutes
	system time =     142.94 seconds =       2.38 minutes
	total time  =        441 seconds =       7.35 minutes
Total time:
	user time   =   10736.33 seconds =     178.94 minutes
	system time =    1301.10 seconds =      21.69 minutes
	total time  =       3440 seconds =      57.33 minutes
            **************************
            *                        *
            *        CCENERGY        *
            *                        *
            **************************

    Nuclear Rep. energy (wfn)     =  101.934204704502676
    SCF energy          (wfn)     = -575.212013992928746
    Reference energy    (file100) = -575.212039581372096

    Input parameters:
    -----------------
    Wave function   =     CCSD_T
    Reference wfn   =     RHF
    Brueckner       =     No
    Memory (Mbytes) =     50000.0
    Maxiter         =     50
    R_Convergence   =     1.0e-07
    E_Convergence   =     1.0e-07
    Restart         =     Yes
    DIIS            =     Yes
    AO Basis        =     NONE
    ABCD            =     NEW
    Cache Level     =     2
    Cache Type      =     LOW
    Print Level     =     1
    Num. of threads =     8
    # Amps to Print =     10
    Print MP2 Amps? =     No
    Analyze T2 Amps =     No
    Print Pair Ener =     No
    Local CC        =     No
    SCS-MP2         =     False
    SCSN-MP2        =     False
    SCS-CCSD        =     False

MP2 correlation energy -0.7230615141115939
                Solving CC Amplitude Equations
                ------------------------------
  Iter             Energy              RMS        T1Diag      D1Diag    New D1Diag    D2Diag
  ----     ---------------------    ---------   ----------  ----------  ----------   --------
     0        -0.723061514111594    0.000e+00    0.000000    0.000000    0.000000    0.140717
     1        -0.738791325453195    6.142e-02    0.005942    0.017713    0.017713    0.145285
     2        -0.753264678137549    2.000e-02    0.006037    0.017559    0.017559    0.151095
     3        -0.755786175815309    7.566e-03    0.006911    0.020963    0.020963    0.152881
     4        -0.755552574698885    1.680e-03    0.007031    0.021420    0.021420    0.153188
     5        -0.755600804259268    6.249e-04    0.007090    0.021775    0.021775    0.153319
     6        -0.755614999610267    1.648e-04    0.007105    0.021865    0.021865    0.153331
     7        -0.755611590222974    5.787e-05    0.007108    0.021889    0.021889    0.153330
     8        -0.755611026944430    1.760e-05    0.007109    0.021897    0.021897    0.153330
     9        -0.755611576357688    6.784e-06    0.007109    0.021899    0.021899    0.153330
    10        -0.755611148914523    2.711e-06    0.007109    0.021899    0.021899    0.153330
    11        -0.755611137135076    8.488e-07    0.007109    0.021899    0.021899    0.153330
    12        -0.755611108895244    3.597e-07    0.007109    0.021899    0.021899    0.153330
    13        -0.755611095327482    1.292e-07    0.007109    0.021899    0.021899    0.153330
    14        -0.755611096712319    5.487e-08    0.007109    0.021899    0.021899    0.153330

    Iterations converged.


    Largest TIA Amplitudes:
             15  13        -0.0094385856
             15   8         0.0085539254
             14  16         0.0083721690
             15  22         0.0077097573
             15   9         0.0055838477
             13  14         0.0051384438
             15  30         0.0050355447
             14  43        -0.0049914444
             15  25        -0.0049534780
             14  14         0.0048098484

    Largest TIjAb Amplitudes:
     14  14  16  16        -0.0268293058
     14  14  16  18         0.0120301374
     14  14  18  16         0.0120301374
     17  17  41  41        -0.0118570050
     14  14  16  23         0.0110716579
     14  14  23  16         0.0110716579
     14  14  16  21         0.0106121721
     14  14  21  16         0.0106121721
     14  14  14  16        -0.0100736043
     14  14  16  14        -0.0100736043

    SCF energy       (wfn)                    = -575.212013992928746
    Reference energy (file100)                = -575.212039581372096

    Opposite-spin MP2 correlation energy      =   -0.553454860110220
    Same-spin MP2 correlation energy          =   -0.169606654001374
    MP2 correlation energy                    =   -0.723061514111594
      * MP2 total energy                      = -575.935101095483674

    Opposite-spin CCSD correlation energy     =   -0.598853885150852
    Same-spin CCSD correlation energy         =   -0.156757211561466
    CCSD correlation energy                   =   -0.755611096712319
      * CCSD total energy                     = -575.967650678084397

            **************************
            *                        *
            *        CCTRIPLES       *
            *                        *
            **************************


    Wave function   =    CCSD_T
    Reference wfn   =      RHF

    Nuclear Rep. energy (wfn)                =  101.934204704502676
    SCF energy          (wfn)                = -575.212013992928746
    Reference energy    (file100)            = -575.212039581372096
    CCSD energy         (file100)            =   -0.755611096712319
    Total CCSD energy   (file100)            = -575.967650678084397

    Number of ijk index combinations:             1140
    Memory available in words        :      6250000000
    ~Words needed per explicit thread:        54607676
    Number of threads for explicit ijk threading:    8

    MKL num_threads set to 1 for explicit threading.

    (T) energy                                =   -0.026614958282659
      * CCSD(T) total energy                  = -575.994265636367118


  //>>>>>>>>>>>>>>>>>>>>>>>>>>>>>>>>>>>//
  //    CBS Results: custom function   //
  //<<<<<<<<<<<<<<<<<<<<<<<<<<<<<<<<<<<//


   ==> HF <==

   HI-zeta (4) Energy:               -575.223414103107


   ==> Helgaker 2-point correlated extrapolation for method: MP2 <==

   LO-zeta (3) Energy:               -575.935101095484
   HI-zeta (4) Energy:               -576.044086908671
   Alpha (exponent) Value:             3.000000000000
   Extrapolated Energy:              -576.123617096673

   @Extrapolated MP2/(T,Q):          -576.123617096673



   ==> Helgaker 2-point correlated extrapolation for method: HF <==

   LO-zeta (3) Energy:               -575.212013992929
   HI-zeta (4) Energy:               -575.223414103107
   Alpha (exponent) Value:             3.000000000000
   Extrapolated Energy:              -575.231733102426

   @Extrapolated HF/(T,Q):           -575.231733102426



   ==> Helgaker 2-point correlated extrapolation for method: CCSD(T) <==

   LO-zeta (2) Energy:               -575.756580560332
   HI-zeta (3) Energy:               -575.994265636367
   Alpha (exponent) Value:             3.000000000000
   Extrapolated Energy:              -576.094343563119

   @Extrapolated CCSD(T)/(D,T):      -576.094343563119



   ==> Helgaker 2-point correlated extrapolation for method: MP2 <==

   LO-zeta (2) Energy:               -575.705520456587
   HI-zeta (3) Energy:               -575.935101095484
   Alpha (exponent) Value:             3.000000000000
   Extrapolated Energy:              -576.031766627651

   @Extrapolated MP2/(D,T):          -576.031766627651


   ==> Components <==

  ---------------------------------------------------------------------------------------------------------
                          Method / Basis                      Rqd      Energy [Eh]   Variable
  ---------------------------------------------------------------------------------------------------------
                              hf / aug-cc-pvqz                  *    -575.22341410   HF TOTAL ENERGY
                             mp2 / aug-cc-pvqz                  *    -576.04408691   MP2 TOTAL ENERGY
                              hf / aug-cc-pvdz                       -575.16666189   HF TOTAL ENERGY
                             mp2 / aug-cc-pvdz                  *    -575.70552046   MP2 TOTAL ENERGY
                            ccsd / aug-cc-pvdz                       -575.74113671   CCSD TOTAL ENERGY
                         ccsd(t) / aug-cc-pvdz                  *    -575.75658056   CCSD(T) TOTAL ENERGY
                              hf / aug-cc-pvtz                  *    -575.21201399   HF TOTAL ENERGY
                             mp2 / aug-cc-pvtz                  *    -575.93510110   MP2 TOTAL ENERGY
                            ccsd / aug-cc-pvtz                       -575.96765068   CCSD TOTAL ENERGY
                         ccsd(t) / aug-cc-pvtz                  *    -575.99426564   CCSD(T) TOTAL ENERGY
  ---------------------------------------------------------------------------------------------------------

   ==> Stages <==

  ---------------------------------------------------------------------------------------------------------
      Stage               Method / Basis                       Wt      Energy [Eh]   Scheme
  ---------------------------------------------------------------------------------------------------------
        scf                   hf / aug-cc-pvqz                  1    -575.22341410   xtpl_highest_1
       corl                  mp2 / aug-cc-pv[tq]z               1    -576.12361710   corl_xtpl_helgaker_2
       corl                   hf / aug-cc-pv[tq]z              -1    -575.23173310   corl_xtpl_helgaker_2
     delta1              ccsd(t) / aug-cc-pv[dt]z               1    -576.09434356   corl_xtpl_helgaker_2
     delta1                  mp2 / aug-cc-pv[dt]z              -1    -576.03176663   corl_xtpl_helgaker_2
  ---------------------------------------------------------------------------------------------------------

   ==> CBS <==

  ---------------------------------------------------------------------------------------------------------
      Stage               Method / Basis                               Energy [Eh]   Scheme
  ---------------------------------------------------------------------------------------------------------
        scf                   hf / aug-cc-pvqz                       -575.22341410   xtpl_highest_1
       corl                  mp2 / aug-cc-pv[tq]z                      -0.89188399   corl_xtpl_helgaker_2
     delta1        ccsd(t) - mp2 / aug-cc-pv[dt]z                      -0.06257694   corl_xtpl_helgaker_2
      total                  CBS                                     -576.17787503   
  ---------------------------------------------------------------------------------------------------------
   => Loading Basis Set <=

    Name: DEF2-SVP
    Role: ORBITAL
    Keyword: BASIS
    atoms 1        entry CL         line   356 file /home/liuchw/anaconda3/envs/psi4env/share/psi4/basis/def2-svp.gbs 
    atoms 2        entry C          line    90 file /home/liuchw/anaconda3/envs/psi4env/share/psi4/basis/def2-svp.gbs 
    atoms 3-5, 7-8 entry H          line    15 file /home/liuchw/anaconda3/envs/psi4env/share/psi4/basis/def2-svp.gbs 
    atoms 6        entry O          line   130 file /home/liuchw/anaconda3/envs/psi4env/share/psi4/basis/def2-svp.gbs 


       N-Body: Complex Energy (fragments = (1, 2), basis = (1, 2):  -576.17787503282216)

   ==> N-Body: Counterpoise Corrected (CP) energies <==

   n-Body     Total Energy [Eh]       I.E. [kcal/mol]      Delta [kcal/mol]
        1     -576.171773898631        0.000000000000        0.000000000000
        2     -576.177783451294       -3.771051228940       -3.771051228940

   => Loading Basis Set <=

    Name: DEF2-SVP
    Role: ORBITAL
    Keyword: BASIS
    atoms 1        entry CL         line   356 file /home/liuchw/anaconda3/envs/psi4env/share/psi4/basis/def2-svp.gbs 
    atoms 2        entry C          line    90 file /home/liuchw/anaconda3/envs/psi4env/share/psi4/basis/def2-svp.gbs 
    atoms 3-5, 7-8 entry H          line    15 file /home/liuchw/anaconda3/envs/psi4env/share/psi4/basis/def2-svp.gbs 
    atoms 6        entry O          line   130 file /home/liuchw/anaconda3/envs/psi4env/share/psi4/basis/def2-svp.gbs 


    Psi4 stopped on: Wednesday, 15 April 2020 05:12AM
    Psi4 wall time for execution: 1:24:45.69

*** Psi4 exiting successfully. Buy a developer a beer!
