
    -----------------------------------------------------------------------
          Psi4: An Open-Source Ab Initio Electronic Structure Package
                               Psi4 1.4a2.dev224 

                         Git: Rev {master} e453b16 


    R. M. Parrish, L. A. Burns, D. G. A. Smith, A. C. Simmonett,
    A. E. DePrince III, E. G. Hohenstein, U. Bozkaya, A. Yu. Sokolov,
    R. Di Remigio, R. M. Richard, J. F. Gonthier, A. M. James,
    H. R. McAlexander, A. Kumar, M. Saitow, X. Wang, B. P. Pritchard,
    P. Verma, H. F. Schaefer III, K. Patkowski, R. A. King, E. F. Valeev,
    F. A. Evangelista, J. M. Turney, T. D. Crawford, and C. D. Sherrill,
    J. Chem. Theory Comput. 13(7) pp 3185--3197 (2017).
    (doi: 10.1021/acs.jctc.7b00174)


                         Additional Contributions by
    P. Kraus, H. Kruse, M. H. Lechner, M. C. Schieber, R. A. Shaw,
    A. Alenaizan, R. Galvelis, Z. L. Glick, S. Lehtola, and J. P. Misiewicz

    -----------------------------------------------------------------------


    Psi4 started on: Wednesday, 15 April 2020 10:04AM

    Process ID: 40773
    Host:       node37.bme.utexas.edu
    PSIDATADIR: /home/liuchw/anaconda3/envs/psi4env/share/psi4
    Memory:     500.0 MiB
    Threads:    8
    
  ==> Input File <==

--------------------------------------------------------------------------
#Generated by lconvert.py for cbs job

memory 50 GB

molecule  {
0 1
  C      -2.024832    0.000026   -0.000005
  H      -2.390901   -0.618791   -0.813958
  H      -2.391452   -0.395615    0.942610
  H      -2.391756    1.014031   -0.128927
  H      -0.938772    0.000468    0.000287
--
0 1
  N       1.908409    0.000085   -0.000007
  H       2.301446    0.376298   -0.852831
  H       2.301500    0.550057    0.752545
  H       2.300069   -0.927198    0.100353
units angstrom
no_reorient
symmetry c1
}

set {
scf_type DF
mp2_type DF
e_convergence 7
reference rhf
}

energy(cbs, corl_wfn='mp2', corl_basis='aug-cc-pv[tq]z', delta_wfn='ccsd(t)', delta_basis='aug-cc-pv[dt]z', bsse_type='cp')
--------------------------------------------------------------------------

  Memory set to  46.566 GiB by Python driver.

Scratch directory: /scratch/liuchw/


   ===> N-Body Interaction Abacus <===
        BSSE Treatment:                     cp
        Number of 1-body computations:     4
        Number of 2-body computations:     1

   ==> N-Body: Now computing 1-body complexes <==


       N-Body: Computing complex (1/4) with fragments (2,) in the basis of fragments (2,).


Scratch directory: /scratch/liuchw/

  //>>>>>>>>>>>>>>>>>>>>>>>>>>>>>>>>>>>//
  //     CBS Setup: custom function    //
  //<<<<<<<<<<<<<<<<<<<<<<<<<<<<<<<<<<<//

    Naive listing of computations required.
             hf / aug-cc-pvqz              for  HF TOTAL ENERGY
            mp2 / aug-cc-pvtz              for  MP2 TOTAL ENERGY
            mp2 / aug-cc-pvqz              for  MP2 TOTAL ENERGY
             hf / aug-cc-pvtz              for  HF TOTAL ENERGY
             hf / aug-cc-pvqz              for  HF TOTAL ENERGY
        ccsd(t) / aug-cc-pvdz              for  CCSD(T) TOTAL ENERGY
        ccsd(t) / aug-cc-pvtz              for  CCSD(T) TOTAL ENERGY
            mp2 / aug-cc-pvdz              for  MP2 TOTAL ENERGY
            mp2 / aug-cc-pvtz              for  MP2 TOTAL ENERGY

    Enlightened listing of computations required.
            mp2 / aug-cc-pvqz              for  MP2 TOTAL ENERGY
        ccsd(t) / aug-cc-pvdz              for  CCSD(T) TOTAL ENERGY
        ccsd(t) / aug-cc-pvtz              for  CCSD(T) TOTAL ENERGY

    Full listing of computations to be obtained (required and bonus).
             hf / aug-cc-pvqz              for  HF TOTAL ENERGY
            mp2 / aug-cc-pvqz              for  MP2 TOTAL ENERGY
             hf / aug-cc-pvdz              for  HF TOTAL ENERGY
            mp2 / aug-cc-pvdz              for  MP2 TOTAL ENERGY
           ccsd / aug-cc-pvdz              for  CCSD TOTAL ENERGY
        ccsd(t) / aug-cc-pvdz              for  CCSD(T) TOTAL ENERGY
             hf / aug-cc-pvtz              for  HF TOTAL ENERGY
            mp2 / aug-cc-pvtz              for  MP2 TOTAL ENERGY
           ccsd / aug-cc-pvtz              for  CCSD TOTAL ENERGY
        ccsd(t) / aug-cc-pvtz              for  CCSD(T) TOTAL ENERGY

  //>>>>>>>>>>>>>>>>>>>>>>>>>>>>>>>>>>>>//
  // CBS Computation: MP2 / AUG-CC-PVQZ //
  //<<<<<<<<<<<<<<<<<<<<<<<<<<<<<<<<<<<<//


Scratch directory: /scratch/liuchw/

*** tstart() called on node37.bme.utexas.edu
*** at Wed Apr 15 10:04:48 2020

   => Loading Basis Set <=

    Name: AUG-CC-PVQZ
    Role: ORBITAL
    Keyword: BASIS
    atoms 1   entry N          line   363 file /home/liuchw/anaconda3/envs/psi4env/share/psi4/basis/aug-cc-pvqz.gbs 
    atoms 2-4 entry H          line    40 file /home/liuchw/anaconda3/envs/psi4env/share/psi4/basis/aug-cc-pvqz.gbs 


         ---------------------------------------------------------
                                   SCF
               by Justin Turney, Rob Parrish, Andy Simmonett
                          and Daniel G. A. Smith
                              RHF Reference
                        8 Threads,  47683 MiB Core
         ---------------------------------------------------------

  ==> Geometry <==

    Molecular point group: c1
    Full point group: C1

    Geometry (in Angstrom), charge = 0, multiplicity = 1:

       Center              X                  Y                   Z               Mass       
    ------------   -----------------  -----------------  -----------------  -----------------
         N            1.871919172459     0.000062421625    -0.000004628299    14.003074004430
         H            2.264956172459     0.376275421625    -0.852828628299     1.007825032230
         H            2.265010172459     0.550034421625     0.752547371701     1.007825032230
         H            2.263579172459    -0.927220578375     0.100355371701     1.007825032230

  Running in c1 symmetry.

  Rotational constants: A =      6.41467  B =      0.25586  C =      0.25586 [cm^-1]
  Rotational constants: A = 192307.10496  B =   7670.47259  C =   7670.45488 [MHz]
  Nuclear repulsion =   11.968465044732676

  Charge       = 0
  Multiplicity = 1
  Electrons    = 10
  Nalpha       = 5
  Nbeta        = 5

  ==> Algorithm <==

  SCF Algorithm Type is DF.
  DIIS enabled.
  MOM disabled.
  Fractional occupation disabled.
  Guess Type is SAD.
  Energy threshold   = 1.00e-07
  Density threshold  = 1.00e-08
  Integral threshold = 0.00e+00

  ==> Primary Basis <==

  Basis Set: AUG-CC-PVQZ
    Blend: AUG-CC-PVQZ
    Number of shells: 62
    Number of basis function: 218
    Number of Cartesian functions: 270
    Spherical Harmonics?: true
    Max angular momentum: 4

   => Loading Basis Set <=

    Name: (AUG-CC-PVQZ AUX)
    Role: JKFIT
    Keyword: DF_BASIS_SCF
    atoms 1   entry N          line   248 file /home/liuchw/anaconda3/envs/psi4env/share/psi4/basis/aug-cc-pvqz-jkfit.gbs 
    atoms 2-4 entry H          line    70 file /home/liuchw/anaconda3/envs/psi4env/share/psi4/basis/aug-cc-pvqz-jkfit.gbs 

  ==> Pre-Iterations <==

   -------------------------------------------------------
    Irrep   Nso     Nmo     Nalpha   Nbeta   Ndocc  Nsocc
   -------------------------------------------------------
     A        218     218       0       0       0       0
   -------------------------------------------------------
    Total     218     218       5       5       5       0
   -------------------------------------------------------

  ==> Integral Setup <==

  DFHelper Memory: AOs need 0.147 GiB; user supplied 34.925 GiB. Using in-core AOs.

  ==> MemDFJK: Density-Fitted J/K Matrices <==

    J tasked:                   Yes
    K tasked:                   Yes
    wK tasked:                   No
    OpenMP threads:               8
    Memory [MiB]:             35762
    Algorithm:                 Core
    Schwarz Cutoff:           1E-12
    Mask sparsity (%):       0.0000
    Fitting Condition:        1E-10

   => Auxiliary Basis Set <=

  Basis Set: (AUG-CC-PVQZ AUX)
    Blend: AUG-CC-PVQZ-JKFIT
    Number of shells: 88
    Number of basis function: 370
    Number of Cartesian functions: 501
    Spherical Harmonics?: true
    Max angular momentum: 5

  Minimum eigenvalue in the overlap matrix is 5.1228261930E-05.
  Using Symmetric Orthogonalization.

  SCF Guess: Superposition of Atomic Densities via on-the-fly atomic UHF.

  ==> Iterations <==

                           Total Energy        Delta E     RMS |[F,P]|

   @DF-RHF iter SAD:   -55.64904595886387   -5.56490e+01   0.00000e+00 
   @DF-RHF iter   1:   -56.12574457457716   -4.76699e-01   2.14453e-03 DIIS
   @DF-RHF iter   2:   -56.19486336227681   -6.91188e-02   1.24472e-03 DIIS
   @DF-RHF iter   3:   -56.22322252481936   -2.83592e-02   1.12800e-04 DIIS
   @DF-RHF iter   4:   -56.22386032121198   -6.37796e-04   2.13414e-05 DIIS
   @DF-RHF iter   5:   -56.22388194408596   -2.16229e-05   3.98250e-06 DIIS
   @DF-RHF iter   6:   -56.22388318794876   -1.24386e-06   9.64257e-07 DIIS
   @DF-RHF iter   7:   -56.22388326123055   -7.32818e-08   2.06150e-07 DIIS
   @DF-RHF iter   8:   -56.22388326458642   -3.35587e-09   2.93775e-08 DIIS
   @DF-RHF iter   9:   -56.22388326465100   -6.45812e-11   7.01229e-09 DIIS
  Energy and wave function converged.


  ==> Post-Iterations <==

    Orbital Energies [Eh]
    ---------------------

    Doubly Occupied:                                                      

       1A    -15.540541     2A     -1.143960     3A     -0.627869  
       4A     -0.627849     5A     -0.432148  

    Virtual:                                                              

       6A      0.026480     7A      0.043773     8A      0.043774  
       9A      0.097575    10A      0.132258    11A      0.139424  
      12A      0.139425    13A      0.183592    14A      0.183593  
      15A      0.188718    16A      0.188720    17A      0.209455  
      18A      0.284041    19A      0.292788    20A      0.297863  
      21A      0.297865    22A      0.354959    23A      0.382140  
      24A      0.382146    25A      0.390057    26A      0.390058  
      27A      0.423762    28A      0.472846    29A      0.472852  
      30A      0.557954    31A      0.558091    32A      0.558095  
      33A      0.595642    34A      0.681983    35A      0.681986  
      36A      0.697373    37A      0.702504    38A      0.718373  
      39A      0.718377    40A      0.751554    41A      0.779757  
      42A      0.779766    43A      0.782559    44A      0.831942  
      45A      0.831948    46A      0.853110    47A      0.856839  
      48A      0.856849    49A      0.872934    50A      0.872939  
      51A      0.980003    52A      1.012607    53A      1.012629  
      54A      1.134613    55A      1.220279    56A      1.220283  
      57A      1.351241    58A      1.355627    59A      1.355628  
      60A      1.372088    61A      1.377117    62A      1.452307  
      63A      1.452319    64A      1.515285    65A      1.536290  
      66A      1.536307    67A      1.576837    68A      1.605197  
      69A      1.662088    70A      1.662088    71A      1.700861  
      72A      1.700874    73A      1.734090    74A      1.749324  
      75A      1.749327    76A      1.817033    77A      1.830741  
      78A      1.830747    79A      1.854008    80A      1.899757  
      81A      1.899786    82A      1.983034    83A      1.983048  
      84A      2.020393    85A      2.020397    86A      2.043017  
      87A      2.065771    88A      2.103656    89A      2.113099  
      90A      2.113108    91A      2.187407    92A      2.263725  
      93A      2.263735    94A      2.284991    95A      2.400569  
      96A      2.400575    97A      2.785648    98A      2.913261  
      99A      2.913287   100A      2.919555   101A      2.936321  
     102A      2.936326   103A      2.945739   104A      3.006145  
     105A      3.006146   106A      3.028960   107A      3.028980  
     108A      3.068644   109A      3.103654   110A      3.142908  
     111A      3.208839   112A      3.208861   113A      3.264272  
     114A      3.264301   115A      3.394529   116A      3.394536  
     117A      3.468676   118A      3.550751   119A      3.550776  
     120A      3.603422   121A      3.721829   122A      3.905131  
     123A      3.912363   124A      3.912380   125A      4.136933  
     126A      4.136985   127A      4.146584   128A      4.185747  
     129A      4.185754   130A      4.217759   131A      4.239033  
     132A      4.295801   133A      4.367183   134A      4.367210  
     135A      4.715686   136A      4.715692   137A      4.959354  
     138A      4.959364   139A      5.076299   140A      5.191769  
     141A      5.191785   142A      5.353062   143A      5.353084  
     144A      5.451482   145A      5.641729   146A      6.830388  
     147A      6.830398   148A      6.908623   149A      6.935893  
     150A      6.935963   151A      7.006442   152A      7.391655  
     153A      7.393428   154A      7.393449   155A      7.426500  
     156A      7.426518   157A      7.613313   158A      7.688345  
     159A      7.710378   160A      7.710405   161A      7.862130  
     162A      7.862137   163A      7.923449   164A      7.923498  
     165A      7.998191   166A      8.200588   167A      8.316598  
     168A      8.316636   169A      8.335541   170A      8.512854  
     171A      8.565908   172A      8.565982   173A      8.638403  
     174A      8.638467   175A      8.867495   176A      8.919213  
     177A      8.919216   178A      8.954555   179A      8.990649  
     180A      9.012272   181A      9.027169   182A      9.027219  
     183A      9.220828   184A      9.294790   185A      9.294842  
     186A      9.443587   187A      9.443608   188A      9.526627  
     189A      9.526655   190A      9.593160   191A      9.798726  
     192A      9.833649   193A      9.926529   194A      9.926593  
     195A     10.121242   196A     10.122948   197A     10.122950  
     198A     10.296076   199A     10.296150   200A     10.555649  
     201A     10.555711   202A     10.776836   203A     10.853706  
     204A     10.985228   205A     10.985247   206A     11.730190  
     207A     12.201581   208A     12.201659   209A     12.277229  
     210A     12.368968   211A     12.368976   212A     13.042191  
     213A     13.124476   214A     13.124492   215A     14.701935  
     216A     15.060560   217A     15.060624   218A     36.691220  

    Final Occupation by Irrep:
              A 
    DOCC [     5 ]

  @DF-RHF Final Energy:   -56.22388326465100

   => Energetics <=

    Nuclear Repulsion Energy =             11.9684650447326764
    One-Electron Energy =                 -99.6399595810411540
    Two-Electron Energy =                  31.4476112716574718
    Total Energy =                        -56.2238832646510005

Computation Completed


Properties will be evaluated at   0.000000,   0.000000,   0.000000 [a0]

Properties computed using the SCF density matrix

  Nuclear Dipole Moment: [e a0]
     X:    37.5998      Y:    -0.0009      Z:     0.0001

  Electronic Dipole Moment: [e a0]
     X:   -36.9486      Y:     0.0003      Z:    -0.0000

  Dipole Moment: [e a0]
     X:     0.6513      Y:    -0.0006      Z:     0.0000     Total:     0.6513

  Dipole Moment: [D]
     X:     1.6553      Y:    -0.0016      Z:     0.0001     Total:     1.6553


*** tstop() called on node37.bme.utexas.edu at Wed Apr 15 10:04:51 2020
Module time:
	user time   =      14.20 seconds =       0.24 minutes
	system time =       1.16 seconds =       0.02 minutes
	total time  =          3 seconds =       0.05 minutes
Total time:
	user time   =      14.20 seconds =       0.24 minutes
	system time =       1.16 seconds =       0.02 minutes
	total time  =          3 seconds =       0.05 minutes

*** tstart() called on node37.bme.utexas.edu
*** at Wed Apr 15 10:04:51 2020


  //>>>>>>>>>>>>>>>>>>>>>>>>>>>>>>>>>>>//
  //               DFMP2               //
  //<<<<<<<<<<<<<<<<<<<<<<<<<<<<<<<<<<<//

   => Loading Basis Set <=

    Name: (AUG-CC-PVQZ AUX)
    Role: RIFIT
    Keyword: DF_BASIS_MP2
    atoms 1   entry N          line   258 file /home/liuchw/anaconda3/envs/psi4env/share/psi4/basis/aug-cc-pvqz-ri.gbs 
    atoms 2-4 entry H          line    30 file /home/liuchw/anaconda3/envs/psi4env/share/psi4/basis/aug-cc-pvqz-ri.gbs 

	 --------------------------------------------------------
	                          DF-MP2                         
	      2nd-Order Density-Fitted Moller-Plesset Theory     
	              RMP2 Wavefunction,   8 Threads             
	                                                         
	        Rob Parrish, Justin Turney, Andy Simmonett,      
	           Ed Hohenstein, and C. David Sherrill          
	 --------------------------------------------------------

   => Auxiliary Basis Set <=

  Basis Set: (AUG-CC-PVQZ AUX)
    Blend: AUG-CC-PVQZ-RI
    Number of shells: 96
    Number of basis function: 408
    Number of Cartesian functions: 552
    Spherical Harmonics?: true
    Max angular momentum: 5

	 --------------------------------------------------------
	                 NBF =   218, NAUX =   408
	 --------------------------------------------------------
	   CLASS    FOCC     OCC    AOCC    AVIR     VIR    FVIR
	   PAIRS       0       5       5     213     213       0
	 --------------------------------------------------------

	-----------------------------------------------------------
	 ==================> DF-MP2 Energies <==================== 
	-----------------------------------------------------------
	 Reference Energy          =     -56.2238832646510005 [Eh]
	 Singles Energy            =      -0.0000000000000000 [Eh]
	 Same-Spin Energy          =      -0.0594006358945432 [Eh]
	 Opposite-Spin Energy      =      -0.2247937129600995 [Eh]
	 Correlation Energy        =      -0.2841943488546427 [Eh]
	 Total Energy              =     -56.5080776135056411 [Eh]
	-----------------------------------------------------------
	 ================> DF-SCS-MP2 Energies <================== 
	-----------------------------------------------------------
	 SCS Same-Spin Scale       =       0.3333333333333333 [-]
	 SCS Opposite-Spin Scale   =       1.2000000000000000 [-]
	 SCS Same-Spin Energy      =      -0.0198002119648477 [Eh]
	 SCS Opposite-Spin Energy  =      -0.2697524555521194 [Eh]
	 SCS Correlation Energy    =      -0.2895526675169671 [Eh]
	 SCS Total Energy          =     -56.5134359321679653 [Eh]
	-----------------------------------------------------------


*** tstop() called on node37.bme.utexas.edu at Wed Apr 15 10:04:52 2020
Module time:
	user time   =       5.60 seconds =       0.09 minutes
	system time =       0.53 seconds =       0.01 minutes
	total time  =          1 seconds =       0.02 minutes
Total time:
	user time   =      19.81 seconds =       0.33 minutes
	system time =       1.69 seconds =       0.03 minutes
	total time  =          4 seconds =       0.07 minutes

  //>>>>>>>>>>>>>>>>>>>>>>>>>>>>>>>>>>>>>>>>//
  // CBS Computation: CCSD(T) / AUG-CC-PVDZ //
  //<<<<<<<<<<<<<<<<<<<<<<<<<<<<<<<<<<<<<<<<//


Scratch directory: /scratch/liuchw/

*** tstart() called on node37.bme.utexas.edu
*** at Wed Apr 15 10:04:52 2020

   => Loading Basis Set <=

    Name: AUG-CC-PVDZ
    Role: ORBITAL
    Keyword: BASIS
    atoms 1   entry N          line   218 file /home/liuchw/anaconda3/envs/psi4env/share/psi4/basis/aug-cc-pvdz.gbs 
    atoms 2-4 entry H          line    40 file /home/liuchw/anaconda3/envs/psi4env/share/psi4/basis/aug-cc-pvdz.gbs 


         ---------------------------------------------------------
                                   SCF
               by Justin Turney, Rob Parrish, Andy Simmonett
                          and Daniel G. A. Smith
                              RHF Reference
                        8 Threads,  47683 MiB Core
         ---------------------------------------------------------

  ==> Geometry <==

    Molecular point group: c1
    Full point group: C1

    Geometry (in Angstrom), charge = 0, multiplicity = 1:

       Center              X                  Y                   Z               Mass       
    ------------   -----------------  -----------------  -----------------  -----------------
         N            1.871919172459     0.000062421625    -0.000004628299    14.003074004430
         H            2.264956172459     0.376275421625    -0.852828628299     1.007825032230
         H            2.265010172459     0.550034421625     0.752547371701     1.007825032230
         H            2.263579172459    -0.927220578375     0.100355371701     1.007825032230

  Running in c1 symmetry.

  Rotational constants: A =      6.41467  B =      0.25586  C =      0.25586 [cm^-1]
  Rotational constants: A = 192307.10496  B =   7670.47259  C =   7670.45488 [MHz]
  Nuclear repulsion =   11.968465044732676

  Charge       = 0
  Multiplicity = 1
  Electrons    = 10
  Nalpha       = 5
  Nbeta        = 5

  ==> Algorithm <==

  SCF Algorithm Type is DF.
  DIIS enabled.
  MOM disabled.
  Fractional occupation disabled.
  Guess Type is SAD.
  Energy threshold   = 1.00e-07
  Density threshold  = 1.00e-08
  Integral threshold = 0.00e+00

  ==> Primary Basis <==

  Basis Set: AUG-CC-PVDZ
    Blend: AUG-CC-PVDZ
    Number of shells: 24
    Number of basis function: 50
    Number of Cartesian functions: 52
    Spherical Harmonics?: true
    Max angular momentum: 2

   => Loading Basis Set <=

    Name: (AUG-CC-PVDZ AUX)
    Role: JKFIT
    Keyword: DF_BASIS_SCF
    atoms 1   entry N          line   212 file /home/liuchw/anaconda3/envs/psi4env/share/psi4/basis/aug-cc-pvdz-jkfit.gbs 
    atoms 2-4 entry H          line    70 file /home/liuchw/anaconda3/envs/psi4env/share/psi4/basis/aug-cc-pvdz-jkfit.gbs 

  ==> Pre-Iterations <==

   -------------------------------------------------------
    Irrep   Nso     Nmo     Nalpha   Nbeta   Ndocc  Nsocc
   -------------------------------------------------------
     A         50      50       0       0       0       0
   -------------------------------------------------------
    Total      50      50       5       5       5       0
   -------------------------------------------------------

  ==> Integral Setup <==

  DFHelper Memory: AOs need 0.004 GiB; user supplied 34.925 GiB. Using in-core AOs.

  ==> MemDFJK: Density-Fitted J/K Matrices <==

    J tasked:                   Yes
    K tasked:                   Yes
    wK tasked:                   No
    OpenMP threads:               8
    Memory [MiB]:             35762
    Algorithm:                 Core
    Schwarz Cutoff:           1E-12
    Mask sparsity (%):       0.0000
    Fitting Condition:        1E-10

   => Auxiliary Basis Set <=

  Basis Set: (AUG-CC-PVDZ AUX)
    Blend: AUG-CC-PVDZ-JKFIT
    Number of shells: 64
    Number of basis function: 182
    Number of Cartesian functions: 206
    Spherical Harmonics?: true
    Max angular momentum: 3

  Minimum eigenvalue in the overlap matrix is 2.0958343399E-03.
  Using Symmetric Orthogonalization.

  SCF Guess: Superposition of Atomic Densities via on-the-fly atomic UHF.

  ==> Iterations <==

                           Total Energy        Delta E     RMS |[F,P]|

   @DF-RHF iter SAD:   -55.63987692345697   -5.56399e+01   0.00000e+00 
   @DF-RHF iter   1:   -56.10793258273273   -4.68056e-01   9.06512e-03 DIIS
   @DF-RHF iter   2:   -56.17743773192908   -6.95051e-02   5.07615e-03 DIIS
   @DF-RHF iter   3:   -56.20469294372765   -2.72552e-02   4.81133e-04 DIIS
   @DF-RHF iter   4:   -56.20530603118428   -6.13087e-04   8.44124e-05 DIIS
   @DF-RHF iter   5:   -56.20532426381836   -1.82326e-05   1.57709e-05 DIIS
   @DF-RHF iter   6:   -56.20532528514418   -1.02133e-06   3.25545e-06 DIIS
   @DF-RHF iter   7:   -56.20532533415156   -4.90074e-08   6.15602e-07 DIIS
   @DF-RHF iter   8:   -56.20532533605598   -1.90442e-09   9.09646e-08 DIIS
   @DF-RHF iter   9:   -56.20532533609575   -3.97691e-11   2.27880e-08 DIIS
   @DF-RHF iter  10:   -56.20532533609828   -2.53664e-12   4.62652e-09 DIIS
  Energy and wave function converged.


  ==> Post-Iterations <==

    Orbital Energies [Eh]
    ---------------------

    Doubly Occupied:                                                      

       1A    -15.552024     2A     -1.145924     3A     -0.627779  
       4A     -0.627760     5A     -0.431342  

    Virtual:                                                              

       6A      0.035786     7A      0.059909     8A      0.059910  
       9A      0.149791    10A      0.197473    11A      0.202060  
      12A      0.202061    13A      0.294335    14A      0.294339  
      15A      0.341085    16A      0.343005    17A      0.343012  
      18A      0.470657    19A      0.528117    20A      0.534734  
      21A      0.534738    22A      0.616246    23A      0.639708  
      24A      0.639710    25A      0.710629    26A      0.710644  
      27A      0.841873    28A      0.918079    29A      0.918083  
      30A      1.142709    31A      1.214201    32A      1.214208  
      33A      1.360819    34A      1.810463    35A      1.810472  
      36A      1.951765    37A      2.060951    38A      2.060964  
      39A      2.101471    40A      2.331987    41A      2.331991  
      42A      2.381424    43A      2.416837    44A      2.416843  
      45A      2.672072    46A      2.909214    47A      2.909239  
      48A      3.112248    49A      3.535546    50A      3.535549  

    Final Occupation by Irrep:
              A 
    DOCC [     5 ]

  @DF-RHF Final Energy:   -56.20532533609828

   => Energetics <=

    Nuclear Repulsion Energy =             11.9684650447326764
    One-Electron Energy =                 -99.5779237074816876
    Two-Electron Energy =                  31.4041333266507223
    Total Energy =                        -56.2053253360982836

Computation Completed


Properties will be evaluated at   0.000000,   0.000000,   0.000000 [a0]

Properties computed using the SCF density matrix

  Nuclear Dipole Moment: [e a0]
     X:    37.5998      Y:    -0.0009      Z:     0.0001

  Electronic Dipole Moment: [e a0]
     X:   -36.9455      Y:     0.0003      Z:    -0.0000

  Dipole Moment: [e a0]
     X:     0.6544      Y:    -0.0006      Z:     0.0000     Total:     0.6544

  Dipole Moment: [D]
     X:     1.6632      Y:    -0.0016      Z:     0.0001     Total:     1.6632


*** tstop() called on node37.bme.utexas.edu at Wed Apr 15 10:04:53 2020
Module time:
	user time   =       7.22 seconds =       0.12 minutes
	system time =       0.56 seconds =       0.01 minutes
	total time  =          1 seconds =       0.02 minutes
Total time:
	user time   =      27.09 seconds =       0.45 minutes
	system time =       2.26 seconds =       0.04 minutes
	total time  =          5 seconds =       0.08 minutes
 MINTS: Wrapper to libmints.
   by Justin Turney

   Calculation information:
      Number of threads:                 8
      Number of atoms:                   4
      Number of AO shells:              24
      Number of SO shells:              24
      Number of primitives:             46
      Number of atomic orbitals:        52
      Number of basis functions:        50

      Number of irreps:                  1
      Integral cutoff                 0.00e+00
      Number of functions per irrep: [  50 ]

 OEINTS: Overlap, kinetic, potential, dipole, and quadrupole integrals
         stored in file 35.

      Computing two-electron integrals...done
      Computed 787346 non-zero two-electron integrals.
        Stored in file 33.


*** tstart() called on node37.bme.utexas.edu
*** at Wed Apr 15 10:04:53 2020


	Wfn Parameters:
	--------------------
	Wavefunction         = CCSD_T
	Number of irreps     = 1
	Number of MOs        = 50
	Number of active MOs = 50
	AO-Basis             = NONE
	Semicanonical        = false
	Reference            = RHF
	Print Level          = 1

	IRREP	# MOs	# FZDC	# DOCC	# SOCC	# VIRT	# FZVR
	-----	-----	------	------	------	------	------
	 A	   50	    0	    5	    0	    45	    0
	Transforming integrals...
	IWL integrals will be deleted.
	(OO|OO)...
	Presorting SO-basis two-electron integrals.
	Sorting File: SO Ints (nn|nn) nbuckets = 1
	Transforming the one-electron integrals and constructing Fock matrices
	Starting first half-transformation.
	Sorting half-transformed integrals.
	First half integral transformation complete.
	Starting second half-transformation.
	Two-electron integral transformation complete.
	(OO|OV)...
	Starting second half-transformation.
	Two-electron integral transformation complete.
	(OO|VV)...
	Starting second half-transformation.
	Two-electron integral transformation complete.
	(OV|OO)...
	Starting first half-transformation.
	Sorting half-transformed integrals.
	First half integral transformation complete.
	Starting second half-transformation.
	Two-electron integral transformation complete.
	(OV|OV)...
	Starting second half-transformation.
	Two-electron integral transformation complete.
	(OV|VV)...
	Starting second half-transformation.
	Two-electron integral transformation complete.
	(VV|OO)...
	Starting first half-transformation.
	Sorting half-transformed integrals.
	First half integral transformation complete.
	Starting second half-transformation.
	Two-electron integral transformation complete.
	(VV|OV)...
	Starting second half-transformation.
	Two-electron integral transformation complete.
	(VV|VV)...
	Starting second half-transformation.
	Two-electron integral transformation complete.
	Frozen core energy     =      0.00000000000000

	Size of irrep 0 of <ab|cd> integrals:      4.101 (MW) /     32.805 (MB)
	Total:                                     4.101 (MW) /     32.805 (MB)

	Size of irrep 0 of <ia|bc> integrals:      0.456 (MW) /      3.645 (MB)
	Total:                                     0.456 (MW) /      3.645 (MB)

	Size of irrep 0 of tijab amplitudes:       0.051 (MW) /      0.405 (MB)
	Total:                                     0.051 (MW) /      0.405 (MB)

	Nuclear Rep. energy          =     11.96846504473268
	SCF energy                   =    -56.20532533609828
	One-electron energy          =    -99.57792357919088
	Two-electron energy          =     31.40412572612042
	Reference energy             =    -56.20533280833778

*** tstop() called on node37.bme.utexas.edu at Wed Apr 15 10:04:56 2020
Module time:
	user time   =       8.31 seconds =       0.14 minutes
	system time =       0.98 seconds =       0.02 minutes
	total time  =          3 seconds =       0.05 minutes
Total time:
	user time   =      37.96 seconds =       0.63 minutes
	system time =       3.45 seconds =       0.06 minutes
	total time  =          8 seconds =       0.13 minutes
            **************************
            *                        *
            *        CCENERGY        *
            *                        *
            **************************

    Nuclear Rep. energy (wfn)     =   11.968465044732676
    SCF energy          (wfn)     =  -56.205325336098284
    Reference energy    (file100) =  -56.205332808337779

    Input parameters:
    -----------------
    Wave function   =     CCSD_T
    Reference wfn   =     RHF
    Brueckner       =     No
    Memory (Mbytes) =     50000.0
    Maxiter         =     50
    R_Convergence   =     1.0e-07
    E_Convergence   =     1.0e-07
    Restart         =     Yes
    DIIS            =     Yes
    AO Basis        =     NONE
    ABCD            =     NEW
    Cache Level     =     2
    Cache Type      =     LOW
    Print Level     =     1
    Num. of threads =     8
    # Amps to Print =     10
    Print MP2 Amps? =     No
    Analyze T2 Amps =     No
    Print Pair Ener =     No
    Local CC        =     No
    SCS-MP2         =     False
    SCSN-MP2        =     False
    SCS-CCSD        =     False

MP2 correlation energy -0.2021561440412867
                Solving CC Amplitude Equations
                ------------------------------
  Iter             Energy              RMS        T1Diag      D1Diag    New D1Diag    D2Diag
  ----     ---------------------    ---------   ----------  ----------  ----------   --------
     0        -0.202156144041287    0.000e+00    0.000000    0.000000    0.000000    0.118445
     1        -0.211435972519356    3.611e-02    0.006554    0.016745    0.016745    0.125527
     2        -0.216086194859541    1.211e-02    0.007388    0.018944    0.018944    0.131025
     3        -0.216935065224662    4.289e-03    0.008360    0.022041    0.022041    0.132426
     4        -0.216919957559912    1.098e-03    0.008531    0.022651    0.022651    0.132746
     5        -0.216932431260586    3.740e-04    0.008606    0.022948    0.022948    0.132836
     6        -0.216933423233465    1.130e-04    0.008631    0.023045    0.023045    0.132849
     7        -0.216931965412213    4.174e-05    0.008636    0.023065    0.023065    0.132849
     8        -0.216931773346273    1.783e-05    0.008638    0.023075    0.023075    0.132850
     9        -0.216931747433743    5.864e-06    0.008639    0.023076    0.023076    0.132851
    10        -0.216931649611093    1.954e-06    0.008639    0.023075    0.023075    0.132851
    11        -0.216931716778360    6.265e-07    0.008638    0.023075    0.023075    0.132851
    12        -0.216931730219513    1.623e-07    0.008638    0.023075    0.023075    0.132851
    13        -0.216931735904363    4.602e-08    0.008638    0.023075    0.023075    0.132851

    Iterations converged.


    Largest TIA Amplitudes:
              4   3         0.0169259469
              4  12        -0.0122293270
              3  37         0.0068050944
              2  38         0.0068050942
              4   9         0.0056752080
              4   4        -0.0038753472
              4   0        -0.0037717855
              3  19         0.0035960896
              2  20         0.0035958596
              1   4         0.0035678326

    Largest TIjAb Amplitudes:
      4   4  27  27        -0.0294628496
      3   3   7   7        -0.0245964830
      2   2   8   8        -0.0245948517
      3   3  19  19        -0.0242061298
      2   2  20  20        -0.0242052677
      4   4  12  12        -0.0232553472
      4   4  21  21        -0.0206439156
      3   3   7  19        -0.0201254559
      3   3  19   7        -0.0201254559
      2   2   8  20        -0.0201243933

    SCF energy       (wfn)                    =  -56.205325336098284
    Reference energy (file100)                =  -56.205332808337779

    Opposite-spin MP2 correlation energy      =   -0.155107591136268
    Same-spin MP2 correlation energy          =   -0.047048552905019
    MP2 correlation energy                    =   -0.202156144041287
      * MP2 total energy                      =  -56.407488952379069

    Opposite-spin CCSD correlation energy     =   -0.174059963678692
    Same-spin CCSD correlation energy         =   -0.042871772225671
    CCSD correlation energy                   =   -0.216931735904363
      * CCSD total energy                     =  -56.422264544242140

            **************************
            *                        *
            *        CCTRIPLES       *
            *                        *
            **************************


    Wave function   =    CCSD_T
    Reference wfn   =      RHF

    Nuclear Rep. energy (wfn)                =   11.968465044732676
    SCF energy          (wfn)                =  -56.205325336098284
    Reference energy    (file100)            =  -56.205332808337779
    CCSD energy         (file100)            =   -0.216931735904363
    Total CCSD energy   (file100)            =  -56.422264544242140

    Number of ijk index combinations:               35
    Memory available in words        :      6250000000
    ~Words needed per explicit thread:          364500
    Number of threads for explicit ijk threading:    8

    MKL num_threads set to 1 for explicit threading.

    (T) energy                                =   -0.005498902268954
      * CCSD(T) total energy                  =  -56.427763446511094


  //>>>>>>>>>>>>>>>>>>>>>>>>>>>>>>>>>>>>>>>>//
  // CBS Computation: CCSD(T) / AUG-CC-PVTZ //
  //<<<<<<<<<<<<<<<<<<<<<<<<<<<<<<<<<<<<<<<<//


Scratch directory: /scratch/liuchw/

*** tstart() called on node37.bme.utexas.edu
*** at Wed Apr 15 10:05:03 2020

   => Loading Basis Set <=

    Name: AUG-CC-PVTZ
    Role: ORBITAL
    Keyword: BASIS
    atoms 1   entry N          line   285 file /home/liuchw/anaconda3/envs/psi4env/share/psi4/basis/aug-cc-pvtz.gbs 
    atoms 2-4 entry H          line    40 file /home/liuchw/anaconda3/envs/psi4env/share/psi4/basis/aug-cc-pvtz.gbs 


         ---------------------------------------------------------
                                   SCF
               by Justin Turney, Rob Parrish, Andy Simmonett
                          and Daniel G. A. Smith
                              RHF Reference
                        8 Threads,  47683 MiB Core
         ---------------------------------------------------------

  ==> Geometry <==

    Molecular point group: c1
    Full point group: C1

    Geometry (in Angstrom), charge = 0, multiplicity = 1:

       Center              X                  Y                   Z               Mass       
    ------------   -----------------  -----------------  -----------------  -----------------
         N            1.871919172459     0.000062421625    -0.000004628299    14.003074004430
         H            2.264956172459     0.376275421625    -0.852828628299     1.007825032230
         H            2.265010172459     0.550034421625     0.752547371701     1.007825032230
         H            2.263579172459    -0.927220578375     0.100355371701     1.007825032230

  Running in c1 symmetry.

  Rotational constants: A =      6.41467  B =      0.25586  C =      0.25586 [cm^-1]
  Rotational constants: A = 192307.10496  B =   7670.47259  C =   7670.45488 [MHz]
  Nuclear repulsion =   11.968465044732676

  Charge       = 0
  Multiplicity = 1
  Electrons    = 10
  Nalpha       = 5
  Nbeta        = 5

  ==> Algorithm <==

  SCF Algorithm Type is DF.
  DIIS enabled.
  MOM disabled.
  Fractional occupation disabled.
  Guess Type is SAD.
  Energy threshold   = 1.00e-07
  Density threshold  = 1.00e-08
  Integral threshold = 0.00e+00

  ==> Primary Basis <==

  Basis Set: AUG-CC-PVTZ
    Blend: AUG-CC-PVTZ
    Number of shells: 41
    Number of basis function: 115
    Number of Cartesian functions: 130
    Spherical Harmonics?: true
    Max angular momentum: 3

   => Loading Basis Set <=

    Name: (AUG-CC-PVTZ AUX)
    Role: JKFIT
    Keyword: DF_BASIS_SCF
    atoms 1   entry N          line   224 file /home/liuchw/anaconda3/envs/psi4env/share/psi4/basis/aug-cc-pvtz-jkfit.gbs 
    atoms 2-4 entry H          line    70 file /home/liuchw/anaconda3/envs/psi4env/share/psi4/basis/aug-cc-pvtz-jkfit.gbs 

  ==> Pre-Iterations <==

   -------------------------------------------------------
    Irrep   Nso     Nmo     Nalpha   Nbeta   Ndocc  Nsocc
   -------------------------------------------------------
     A        115     115       0       0       0       0
   -------------------------------------------------------
    Total     115     115       5       5       5       0
   -------------------------------------------------------

  ==> Integral Setup <==

  DFHelper Memory: AOs need 0.028 GiB; user supplied 34.925 GiB. Using in-core AOs.

  ==> MemDFJK: Density-Fitted J/K Matrices <==

    J tasked:                   Yes
    K tasked:                   Yes
    wK tasked:                   No
    OpenMP threads:               8
    Memory [MiB]:             35762
    Algorithm:                 Core
    Schwarz Cutoff:           1E-12
    Mask sparsity (%):       0.0000
    Fitting Condition:        1E-10

   => Auxiliary Basis Set <=

  Basis Set: (AUG-CC-PVTZ AUX)
    Blend: AUG-CC-PVTZ-JKFIT
    Number of shells: 72
    Number of basis function: 242
    Number of Cartesian functions: 296
    Spherical Harmonics?: true
    Max angular momentum: 4

  Minimum eigenvalue in the overlap matrix is 2.6910859648E-04.
  Using Symmetric Orthogonalization.

  SCF Guess: Superposition of Atomic Densities via on-the-fly atomic UHF.

  ==> Iterations <==

                           Total Energy        Delta E     RMS |[F,P]|

   @DF-RHF iter SAD:   -55.64591682495765   -5.56459e+01   0.00000e+00 
   @DF-RHF iter   1:   -56.12243789249143   -4.76521e-01   4.05752e-03 DIIS
   @DF-RHF iter   2:   -56.19138893115966   -6.89510e-02   2.35029e-03 DIIS
   @DF-RHF iter   3:   -56.21957498175978   -2.81861e-02   2.12687e-04 DIIS
   @DF-RHF iter   4:   -56.22020897447980   -6.33993e-04   3.97065e-05 DIIS
   @DF-RHF iter   5:   -56.22023003064634   -2.10562e-05   7.31877e-06 DIIS
   @DF-RHF iter   6:   -56.22023120905976   -1.17841e-06   1.72428e-06 DIIS
   @DF-RHF iter   7:   -56.22023127696500   -6.79052e-08   3.48589e-07 DIIS
   @DF-RHF iter   8:   -56.22023127984977   -2.88477e-09   5.34010e-08 DIIS
   @DF-RHF iter   9:   -56.22023127991099   -6.12204e-11   1.29019e-08 DIIS
   @DF-RHF iter  10:   -56.22023127991467   -3.68061e-12   2.73182e-09 DIIS
  Energy and wave function converged.


  ==> Post-Iterations <==

    Orbital Energies [Eh]
    ---------------------

    Doubly Occupied:                                                      

       1A    -15.542140     2A     -1.144254     3A     -0.627768  
       4A     -0.627748     5A     -0.431939  

    Virtual:                                                              

       6A      0.029433     7A      0.048695     8A      0.048696  
       9A      0.117703    10A      0.152530    11A      0.162406  
      12A      0.162406    13A      0.221594    14A      0.221594  
      15A      0.234979    16A      0.234982    17A      0.254489  
      18A      0.356279    19A      0.357586    20A      0.370714  
      21A      0.370715    22A      0.428626    23A      0.461135  
      24A      0.461135    25A      0.486826    26A      0.486832  
      27A      0.565077    28A      0.601246    29A      0.601253  
      30A      0.750143    31A      0.785668    32A      0.785676  
      33A      0.811720    34A      0.880967    35A      0.903846  
      36A      0.915315    37A      0.915321    38A      0.977444  
      39A      0.977444    40A      1.036266    41A      1.036906  
      42A      1.036912    43A      1.082274    44A      1.103411  
      45A      1.103413    46A      1.143556    47A      1.143560  
      48A      1.186658    49A      1.220486    50A      1.220497  
      51A      1.324192    52A      1.358201    53A      1.358224  
      54A      1.616226    55A      1.763311    56A      1.763325  
      57A      1.769355    58A      1.863412    59A      1.863421  
      60A      1.864937    61A      2.001830    62A      2.041150  
      63A      2.041172    64A      2.048449    65A      2.048462  
      66A      2.283124    67A      2.334698    68A      2.372574  
      69A      2.372576    70A      2.439526    71A      2.439537  
      72A      2.471655    73A      3.374079    74A      3.555481  
      75A      3.555492    76A      3.974128    77A      3.974160  
      78A      4.049829    79A      4.135344    80A      4.135364  
      81A      4.211203    82A      4.236056    83A      4.265236  
      84A      4.265256    85A      4.313019    86A      4.356360  
      87A      4.356376    88A      4.475593    89A      4.549499  
      90A      4.549504    91A      4.695536    92A      4.738341  
      93A      4.738361    94A      4.949608    95A      4.949640  
      96A      4.996847    97A      5.056002    98A      5.056002  
      99A      5.094162   100A      5.271096   101A      5.691509  
     102A      5.691559   103A      5.719451   104A      5.901410  
     105A      5.901477   106A      6.048604   107A      6.358289  
     108A      6.358402   109A      6.400399   110A      6.620167  
     111A      6.947602   112A      6.947628   113A      7.695657  
     114A      7.695719   115A     17.248282  

    Final Occupation by Irrep:
              A 
    DOCC [     5 ]

  @DF-RHF Final Energy:   -56.22023127991467

   => Energetics <=

    Nuclear Repulsion Energy =             11.9684650447326764
    One-Electron Energy =                 -99.6296944264287134
    Two-Electron Energy =                  31.4409981017813642
    Total Energy =                        -56.2202312799146711

Computation Completed


Properties will be evaluated at   0.000000,   0.000000,   0.000000 [a0]

Properties computed using the SCF density matrix

  Nuclear Dipole Moment: [e a0]
     X:    37.5998      Y:    -0.0009      Z:     0.0001

  Electronic Dipole Moment: [e a0]
     X:   -36.9488      Y:     0.0003      Z:    -0.0000

  Dipole Moment: [e a0]
     X:     0.6511      Y:    -0.0006      Z:     0.0000     Total:     0.6511

  Dipole Moment: [D]
     X:     1.6549      Y:    -0.0016      Z:     0.0001     Total:     1.6549


*** tstop() called on node37.bme.utexas.edu at Wed Apr 15 10:05:04 2020
Module time:
	user time   =       6.99 seconds =       0.12 minutes
	system time =       0.46 seconds =       0.01 minutes
	total time  =          1 seconds =       0.02 minutes
Total time:
	user time   =      70.47 seconds =       1.17 minutes
	system time =       6.72 seconds =       0.11 minutes
	total time  =         16 seconds =       0.27 minutes
 MINTS: Wrapper to libmints.
   by Justin Turney

   Calculation information:
      Number of threads:                 8
      Number of atoms:                   4
      Number of AO shells:              41
      Number of SO shells:              41
      Number of primitives:             63
      Number of atomic orbitals:       130
      Number of basis functions:       115

      Number of irreps:                  1
      Integral cutoff                 0.00e+00
      Number of functions per irrep: [ 115 ]

 OEINTS: Overlap, kinetic, potential, dipole, and quadrupole integrals
         stored in file 35.

      Computing two-electron integrals...done
      Computed 21792723 non-zero two-electron integrals.
        Stored in file 33.


*** tstart() called on node37.bme.utexas.edu
*** at Wed Apr 15 10:05:06 2020


	Wfn Parameters:
	--------------------
	Wavefunction         = CCSD_T
	Number of irreps     = 1
	Number of MOs        = 115
	Number of active MOs = 115
	AO-Basis             = NONE
	Semicanonical        = false
	Reference            = RHF
	Print Level          = 1

	IRREP	# MOs	# FZDC	# DOCC	# SOCC	# VIRT	# FZVR
	-----	-----	------	------	------	------	------
	 A	   115	    0	    5	    0	    110	    0
	Transforming integrals...
	IWL integrals will be deleted.
	(OO|OO)...
	Presorting SO-basis two-electron integrals.
	Sorting File: SO Ints (nn|nn) nbuckets = 1
	Transforming the one-electron integrals and constructing Fock matrices
	Starting first half-transformation.
	Sorting half-transformed integrals.
	First half integral transformation complete.
	Starting second half-transformation.
	Two-electron integral transformation complete.
	(OO|OV)...
	Starting second half-transformation.
	Two-electron integral transformation complete.
	(OO|VV)...
	Starting second half-transformation.
	Two-electron integral transformation complete.
	(OV|OO)...
	Starting first half-transformation.
	Sorting half-transformed integrals.
	First half integral transformation complete.
	Starting second half-transformation.
	Two-electron integral transformation complete.
	(OV|OV)...
	Starting second half-transformation.
	Two-electron integral transformation complete.
	(OV|VV)...
	Starting second half-transformation.
	Two-electron integral transformation complete.
	(VV|OO)...
	Starting first half-transformation.
	Sorting half-transformed integrals.
	First half integral transformation complete.
	Starting second half-transformation.
	Two-electron integral transformation complete.
	(VV|OV)...
	Starting second half-transformation.
	Two-electron integral transformation complete.
	(VV|VV)...
	Starting second half-transformation.
	Two-electron integral transformation complete.
	Frozen core energy     =      0.00000000000000

	Size of irrep 0 of <ab|cd> integrals:    146.410 (MW) /   1171.280 (MB)
	Total:                                   146.410 (MW) /   1171.280 (MB)

	Size of irrep 0 of <ia|bc> integrals:      6.655 (MW) /     53.240 (MB)
	Total:                                     6.655 (MW) /     53.240 (MB)

	Size of irrep 0 of tijab amplitudes:       0.302 (MW) /      2.420 (MB)
	Total:                                     0.302 (MW) /      2.420 (MB)

	Nuclear Rep. energy          =     11.96846504473268
	SCF energy                   =    -56.22023127991467
	One-electron energy          =    -99.62969418761229
	Two-electron energy          =     31.44099415746577
	Reference energy             =    -56.22023498541385

*** tstop() called on node37.bme.utexas.edu at Wed Apr 15 10:05:27 2020
Module time:
	user time   =      41.83 seconds =       0.70 minutes
	system time =      11.17 seconds =       0.19 minutes
	total time  =         21 seconds =       0.35 minutes
Total time:
	user time   =     116.58 seconds =       1.94 minutes
	system time =      18.43 seconds =       0.31 minutes
	total time  =         39 seconds =       0.65 minutes
            **************************
            *                        *
            *        CCENERGY        *
            *                        *
            **************************

    Nuclear Rep. energy (wfn)     =   11.968465044732676
    SCF energy          (wfn)     =  -56.220231279914671
    Reference energy    (file100) =  -56.220234985413846

    Input parameters:
    -----------------
    Wave function   =     CCSD_T
    Reference wfn   =     RHF
    Brueckner       =     No
    Memory (Mbytes) =     50000.0
    Maxiter         =     50
    R_Convergence   =     1.0e-07
    E_Convergence   =     1.0e-07
    Restart         =     Yes
    DIIS            =     Yes
    AO Basis        =     NONE
    ABCD            =     NEW
    Cache Level     =     2
    Cache Type      =     LOW
    Print Level     =     1
    Num. of threads =     8
    # Amps to Print =     10
    Print MP2 Amps? =     No
    Analyze T2 Amps =     No
    Print Pair Ener =     No
    Local CC        =     No
    SCS-MP2         =     False
    SCSN-MP2        =     False
    SCS-CCSD        =     False

MP2 correlation energy -0.2571757890718364
                Solving CC Amplitude Equations
                ------------------------------
  Iter             Energy              RMS        T1Diag      D1Diag    New D1Diag    D2Diag
  ----     ---------------------    ---------   ----------  ----------  ----------   --------
     0        -0.257175789071836    0.000e+00    0.000000    0.000000    0.000000    0.122967
     1        -0.263172887058734    3.447e-02    0.006077    0.013432    0.013432    0.127238
     2        -0.268285576613284    1.161e-02    0.006372    0.014554    0.014554    0.132060
     3        -0.269119419424067    4.098e-03    0.007192    0.017066    0.017066    0.133414
     4        -0.269077575296487    1.027e-03    0.007331    0.017512    0.017512    0.133676
     5        -0.269095486706781    3.920e-04    0.007403    0.017807    0.017807    0.133764
     6        -0.269098756875683    1.078e-04    0.007427    0.017895    0.017895    0.133777
     7        -0.269097148283268    3.796e-05    0.007432    0.017915    0.017915    0.133778
     8        -0.269096887851923    1.592e-05    0.007434    0.017924    0.017924    0.133779
     9        -0.269096925902843    5.731e-06    0.007434    0.017925    0.017925    0.133779
    10        -0.269096773663666    2.102e-06    0.007434    0.017925    0.017925    0.133779
    11        -0.269096845287418    7.557e-07    0.007434    0.017925    0.017925    0.133779
    12        -0.269096844560361    2.022e-07    0.007434    0.017924    0.017924    0.133779
    13        -0.269096849517129    5.775e-08    0.007434    0.017924    0.017924    0.133779

    Iterations converged.


    Largest TIA Amplitudes:
              4   3         0.0108709793
              4  11         0.0078631178
              4  13        -0.0075618798
              3  56         0.0050132533
              2  57         0.0050131486
              4  21        -0.0045493092
              4  72         0.0035906446
              4  45         0.0034330037
              4  54         0.0033691061
              3  33         0.0032749203

    Largest TIjAb Amplitudes:
      3   3  17  17        -0.0186196580
      2   2  18  18        -0.0186156033
      4   4  13  13        -0.0161119074
      4   4  24  24        -0.0147336708
      3   3   7  17        -0.0142474845
      3   3  17   7        -0.0142474845
      2   2   8  18        -0.0142447186
      2   2  18   8        -0.0142447186
      4   4  21  21        -0.0137544226
      4   4   3  13         0.0127513856

    SCF energy       (wfn)                    =  -56.220231279914671
    Reference energy (file100)                =  -56.220234985413846

    Opposite-spin MP2 correlation energy      =   -0.201115556761123
    Same-spin MP2 correlation energy          =   -0.056060232310714
    MP2 correlation energy                    =   -0.257175789071836
      * MP2 total energy                      =  -56.477410774485683

    Opposite-spin CCSD correlation energy     =   -0.217774848042224
    Same-spin CCSD correlation energy         =   -0.051322001474905
    CCSD correlation energy                   =   -0.269096849517129
      * CCSD total energy                     =  -56.489331834930972

            **************************
            *                        *
            *        CCTRIPLES       *
            *                        *
            **************************


    Wave function   =    CCSD_T
    Reference wfn   =      RHF

    Nuclear Rep. energy (wfn)                =   11.968465044732676
    SCF energy          (wfn)                =  -56.220231279914671
    Reference energy    (file100)            =  -56.220234985413846
    CCSD energy         (file100)            =   -0.269096849517129
    Total CCSD energy   (file100)            =  -56.489331834930972

    Number of ijk index combinations:               35
    Memory available in words        :      6250000000
    ~Words needed per explicit thread:         5324000
    Number of threads for explicit ijk threading:    8

    MKL num_threads set to 1 for explicit threading.

    (T) energy                                =   -0.008501028520830
      * CCSD(T) total energy                  =  -56.497832863451805


  //>>>>>>>>>>>>>>>>>>>>>>>>>>>>>>>>>>>//
  //    CBS Results: custom function   //
  //<<<<<<<<<<<<<<<<<<<<<<<<<<<<<<<<<<<//


   ==> HF <==

   HI-zeta (4) Energy:               -56.223883264651


   ==> Helgaker 2-point correlated extrapolation for method: MP2 <==

   LO-zeta (3) Energy:               -56.477410774486
   HI-zeta (4) Energy:               -56.508077613506
   Alpha (exponent) Value:             3.000000000000
   Extrapolated Energy:              -56.530456117655

   @Extrapolated MP2/(T,Q):          -56.530456117655



   ==> Helgaker 2-point correlated extrapolation for method: HF <==

   LO-zeta (3) Energy:               -56.220231279915
   HI-zeta (4) Energy:               -56.223883264651
   Alpha (exponent) Value:             3.000000000000
   Extrapolated Energy:              -56.226548226486

   @Extrapolated HF/(T,Q):           -56.226548226486



   ==> Helgaker 2-point correlated extrapolation for method: CCSD(T) <==

   LO-zeta (2) Energy:               -56.427763446511
   HI-zeta (3) Energy:               -56.497832863452
   Alpha (exponent) Value:             3.000000000000
   Extrapolated Energy:              -56.527335775848

   @Extrapolated CCSD(T)/(D,T):      -56.527335775848



   ==> Helgaker 2-point correlated extrapolation for method: MP2 <==

   LO-zeta (2) Energy:               -56.407488952379
   HI-zeta (3) Energy:               -56.477410774486
   Alpha (exponent) Value:             3.000000000000
   Extrapolated Energy:              -56.506851541688

   @Extrapolated MP2/(D,T):          -56.506851541688


   ==> Components <==

  ---------------------------------------------------------------------------------------------------------
                          Method / Basis                      Rqd      Energy [Eh]   Variable
  ---------------------------------------------------------------------------------------------------------
                              hf / aug-cc-pvqz                  *     -56.22388326   HF TOTAL ENERGY
                             mp2 / aug-cc-pvqz                  *     -56.50807761   MP2 TOTAL ENERGY
                              hf / aug-cc-pvdz                        -56.20532534   HF TOTAL ENERGY
                             mp2 / aug-cc-pvdz                  *     -56.40748895   MP2 TOTAL ENERGY
                            ccsd / aug-cc-pvdz                        -56.42226454   CCSD TOTAL ENERGY
                         ccsd(t) / aug-cc-pvdz                  *     -56.42776345   CCSD(T) TOTAL ENERGY
                              hf / aug-cc-pvtz                  *     -56.22023128   HF TOTAL ENERGY
                             mp2 / aug-cc-pvtz                  *     -56.47741077   MP2 TOTAL ENERGY
                            ccsd / aug-cc-pvtz                        -56.48933183   CCSD TOTAL ENERGY
                         ccsd(t) / aug-cc-pvtz                  *     -56.49783286   CCSD(T) TOTAL ENERGY
  ---------------------------------------------------------------------------------------------------------

   ==> Stages <==

  ---------------------------------------------------------------------------------------------------------
      Stage               Method / Basis                       Wt      Energy [Eh]   Scheme
  ---------------------------------------------------------------------------------------------------------
        scf                   hf / aug-cc-pvqz                  1     -56.22388326   xtpl_highest_1
       corl                  mp2 / aug-cc-pv[tq]z               1     -56.53045612   corl_xtpl_helgaker_2
       corl                   hf / aug-cc-pv[tq]z              -1     -56.22654823   corl_xtpl_helgaker_2
     delta1              ccsd(t) / aug-cc-pv[dt]z               1     -56.52733578   corl_xtpl_helgaker_2
     delta1                  mp2 / aug-cc-pv[dt]z              -1     -56.50685154   corl_xtpl_helgaker_2
  ---------------------------------------------------------------------------------------------------------

   ==> CBS <==

  ---------------------------------------------------------------------------------------------------------
      Stage               Method / Basis                               Energy [Eh]   Scheme
  ---------------------------------------------------------------------------------------------------------
        scf                   hf / aug-cc-pvqz                        -56.22388326   xtpl_highest_1
       corl                  mp2 / aug-cc-pv[tq]z                      -0.30390789   corl_xtpl_helgaker_2
     delta1        ccsd(t) - mp2 / aug-cc-pv[dt]z                      -0.02048423   corl_xtpl_helgaker_2
      total                  CBS                                      -56.54827539   
  ---------------------------------------------------------------------------------------------------------
   => Loading Basis Set <=

    Name: DEF2-SVP
    Role: ORBITAL
    Keyword: BASIS
    atoms 1   entry N          line   110 file /home/liuchw/anaconda3/envs/psi4env/share/psi4/basis/def2-svp.gbs 
    atoms 2-4 entry H          line    15 file /home/liuchw/anaconda3/envs/psi4env/share/psi4/basis/def2-svp.gbs 


       N-Body: Complex Energy (fragments = (2,), basis = (2,):   -56.54827538998013)

       N-Body: Computing complex (2/4) with fragments (2,) in the basis of fragments (1, 2).


Scratch directory: /scratch/liuchw/

  //>>>>>>>>>>>>>>>>>>>>>>>>>>>>>>>>>>>//
  //     CBS Setup: custom function    //
  //<<<<<<<<<<<<<<<<<<<<<<<<<<<<<<<<<<<//

    Naive listing of computations required.
             hf / aug-cc-pvqz              for  HF TOTAL ENERGY
            mp2 / aug-cc-pvtz              for  MP2 TOTAL ENERGY
            mp2 / aug-cc-pvqz              for  MP2 TOTAL ENERGY
             hf / aug-cc-pvtz              for  HF TOTAL ENERGY
             hf / aug-cc-pvqz              for  HF TOTAL ENERGY
        ccsd(t) / aug-cc-pvdz              for  CCSD(T) TOTAL ENERGY
        ccsd(t) / aug-cc-pvtz              for  CCSD(T) TOTAL ENERGY
            mp2 / aug-cc-pvdz              for  MP2 TOTAL ENERGY
            mp2 / aug-cc-pvtz              for  MP2 TOTAL ENERGY

    Enlightened listing of computations required.
            mp2 / aug-cc-pvqz              for  MP2 TOTAL ENERGY
        ccsd(t) / aug-cc-pvdz              for  CCSD(T) TOTAL ENERGY
        ccsd(t) / aug-cc-pvtz              for  CCSD(T) TOTAL ENERGY

    Full listing of computations to be obtained (required and bonus).
             hf / aug-cc-pvqz              for  HF TOTAL ENERGY
            mp2 / aug-cc-pvqz              for  MP2 TOTAL ENERGY
             hf / aug-cc-pvdz              for  HF TOTAL ENERGY
            mp2 / aug-cc-pvdz              for  MP2 TOTAL ENERGY
           ccsd / aug-cc-pvdz              for  CCSD TOTAL ENERGY
        ccsd(t) / aug-cc-pvdz              for  CCSD(T) TOTAL ENERGY
             hf / aug-cc-pvtz              for  HF TOTAL ENERGY
            mp2 / aug-cc-pvtz              for  MP2 TOTAL ENERGY
           ccsd / aug-cc-pvtz              for  CCSD TOTAL ENERGY
        ccsd(t) / aug-cc-pvtz              for  CCSD(T) TOTAL ENERGY

  //>>>>>>>>>>>>>>>>>>>>>>>>>>>>>>>>>>>>//
  // CBS Computation: MP2 / AUG-CC-PVQZ //
  //<<<<<<<<<<<<<<<<<<<<<<<<<<<<<<<<<<<<//


Scratch directory: /scratch/liuchw/

*** tstart() called on node37.bme.utexas.edu
*** at Wed Apr 15 10:05:52 2020

   => Loading Basis Set <=

    Name: AUG-CC-PVQZ
    Role: ORBITAL
    Keyword: BASIS
    atoms 1        entry C          line   303 file /home/liuchw/anaconda3/envs/psi4env/share/psi4/basis/aug-cc-pvqz.gbs 
    atoms 2-5, 7-9 entry H          line    40 file /home/liuchw/anaconda3/envs/psi4env/share/psi4/basis/aug-cc-pvqz.gbs 
    atoms 6        entry N          line   363 file /home/liuchw/anaconda3/envs/psi4env/share/psi4/basis/aug-cc-pvqz.gbs 


         ---------------------------------------------------------
                                   SCF
               by Justin Turney, Rob Parrish, Andy Simmonett
                          and Daniel G. A. Smith
                              RHF Reference
                        8 Threads,  47683 MiB Core
         ---------------------------------------------------------

  ==> Geometry <==

    Molecular point group: c1
    Full point group: C1

    Geometry (in Angstrom), charge = 0, multiplicity = 1:

       Center              X                  Y                   Z               Mass       
    ------------   -----------------  -----------------  -----------------  -----------------
      Gh(C)          -2.061321827541     0.000003421625    -0.000002628299    12.000000000000
      Gh(H)          -2.427390827541    -0.618813578375    -0.813955628299     1.007825032230
      Gh(H)          -2.427941827541    -0.395637578375     0.942612371701     1.007825032230
      Gh(H)          -2.428245827541     1.014008421625    -0.128924628299     1.007825032230
      Gh(H)          -0.975261827541     0.000445421625     0.000289371701     1.007825032230
         N            1.871919172459     0.000062421625    -0.000004628299    14.003074004430
         H            2.264956172459     0.376275421625    -0.852828628299     1.007825032230
         H            2.265010172459     0.550034421625     0.752547371701     1.007825032230
         H            2.263579172459    -0.927220578375     0.100355371701     1.007825032230

  Running in c1 symmetry.

  Rotational constants: A =      2.91259  B =      0.12284  C =      0.12284 [cm^-1]
  Rotational constants: A =  87317.24008  B =   3682.57412  C =   3682.56999 [MHz]
  Nuclear repulsion =   11.968465044732676

  Charge       = 0
  Multiplicity = 1
  Electrons    = 10
  Nalpha       = 5
  Nbeta        = 5

  ==> Algorithm <==

  SCF Algorithm Type is DF.
  DIIS enabled.
  MOM disabled.
  Fractional occupation disabled.
  Guess Type is SAD.
  Energy threshold   = 1.00e-07
  Density threshold  = 1.00e-08
  Integral threshold = 0.00e+00

  ==> Primary Basis <==

  Basis Set: AUG-CC-PVQZ
    Blend: AUG-CC-PVQZ
    Number of shells: 138
    Number of basis function: 482
    Number of Cartesian functions: 595
    Spherical Harmonics?: true
    Max angular momentum: 4

   => Loading Basis Set <=

    Name: (AUG-CC-PVQZ AUX)
    Role: JKFIT
    Keyword: DF_BASIS_SCF
    atoms 1        entry C          line   178 file /home/liuchw/anaconda3/envs/psi4env/share/psi4/basis/aug-cc-pvqz-jkfit.gbs 
    atoms 2-5, 7-9 entry H          line    70 file /home/liuchw/anaconda3/envs/psi4env/share/psi4/basis/aug-cc-pvqz-jkfit.gbs 
    atoms 6        entry N          line   248 file /home/liuchw/anaconda3/envs/psi4env/share/psi4/basis/aug-cc-pvqz-jkfit.gbs 

  ==> Pre-Iterations <==

   -------------------------------------------------------
    Irrep   Nso     Nmo     Nalpha   Nbeta   Ndocc  Nsocc
   -------------------------------------------------------
     A        482     482       0       0       0       0
   -------------------------------------------------------
    Total     482     482       5       5       5       0
   -------------------------------------------------------

  ==> Integral Setup <==

  DFHelper Memory: AOs need 1.354 GiB; user supplied 34.925 GiB. Using in-core AOs.

  ==> MemDFJK: Density-Fitted J/K Matrices <==

    J tasked:                   Yes
    K tasked:                   Yes
    wK tasked:                   No
    OpenMP threads:               8
    Memory [MiB]:             35762
    Algorithm:                 Core
    Schwarz Cutoff:           1E-12
    Mask sparsity (%):       9.5384
    Fitting Condition:        1E-10

   => Auxiliary Basis Set <=

  Basis Set: (AUG-CC-PVQZ AUX)
    Blend: AUG-CC-PVQZ-JKFIT
    Number of shells: 194
    Number of basis function: 816
    Number of Cartesian functions: 1103
    Spherical Harmonics?: true
    Max angular momentum: 5

  Minimum eigenvalue in the overlap matrix is 1.1268195261E-05.
  Using Symmetric Orthogonalization.

  SCF Guess: Superposition of Atomic Densities via on-the-fly atomic UHF.

  ==> Iterations <==

                           Total Energy        Delta E     RMS |[F,P]|

   @DF-RHF iter SAD:   -55.64904597997072   -5.56490e+01   0.00000e+00 
   @DF-RHF iter   1:   -56.12575076837814   -4.76705e-01   9.69937e-04 DIIS
   @DF-RHF iter   2:   -56.19487262016058   -6.91219e-02   5.62973e-04 DIIS
   @DF-RHF iter   3:   -56.22323147220192   -2.83589e-02   5.10179e-05 DIIS
   @DF-RHF iter   4:   -56.22386926433755   -6.37792e-04   9.65170e-06 DIIS
   @DF-RHF iter   5:   -56.22389088498525   -2.16206e-05   1.80188e-06 DIIS
   @DF-RHF iter   6:   -56.22389213002511   -1.24504e-06   4.36242e-07 DIIS
   @DF-RHF iter   7:   -56.22389220339236   -7.33673e-08   9.33390e-08 DIIS
   @DF-RHF iter   8:   -56.22389220675754   -3.36518e-09   1.32862e-08 DIIS
   @DF-RHF iter   9:   -56.22389220682168   -6.41407e-11   3.17870e-09 DIIS
  Energy and wave function converged.


  ==> Post-Iterations <==

    Orbital Energies [Eh]
    ---------------------

    Doubly Occupied:                                                      

       1A    -15.540544     2A     -1.143960     3A     -0.627869  
       4A     -0.627850     5A     -0.432150  

    Virtual:                                                              

       6A      0.022383     7A      0.035102     8A      0.039643  
       9A      0.039643    10A      0.055043    11A      0.055046  
      12A      0.063604    13A      0.098802    14A      0.110530  
      15A      0.110535    16A      0.118466    17A      0.133094  
      18A      0.136987    19A      0.137003    20A      0.159966  
      21A      0.183886    22A      0.183894    23A      0.188097  
      24A      0.188104    25A      0.208456    26A      0.208477  
      27A      0.233827    28A      0.244346    29A      0.257941  
      30A      0.257956    31A      0.267346    32A      0.267353  
      33A      0.275620    34A      0.279730    35A      0.286450  
      36A      0.299578    37A      0.308746    38A      0.308762  
      39A      0.324785    40A      0.335392    41A      0.335402  
      42A      0.343786    43A      0.348098    44A      0.348112  
      45A      0.367922    46A      0.388507    47A      0.394101  
      48A      0.394116    49A      0.403488    50A      0.403509  
      51A      0.424705    52A      0.424741    53A      0.461091  
      54A      0.461159    55A      0.478175    56A      0.499668  
      57A      0.515996    58A      0.516049    59A      0.527685  
      60A      0.553374    61A      0.553391    62A      0.582229  
      63A      0.606716    64A      0.606753    65A      0.667545  
      66A      0.668109    67A      0.668166    68A      0.698286  
      69A      0.709298    70A      0.709322    71A      0.720899  
      72A      0.723525    73A      0.733799    74A      0.748693  
      75A      0.748737    76A      0.754463    77A      0.757370  
      78A      0.763533    79A      0.763568    80A      0.775563  
      81A      0.781060    82A      0.781089    83A      0.789852  
      84A      0.789889    85A      0.802701    86A      0.806167  
      87A      0.806216    88A      0.818031    89A      0.846869  
      90A      0.846973    91A      0.859551    92A      0.861091  
      93A      0.861121    94A      0.897637    95A      0.903476  
      96A      0.903501    97A      0.925708    98A      0.929795  
      99A      0.929868   100A      0.957846   101A      0.957881  
     102A      0.958654   103A      0.985701   104A      0.985752  
     105A      1.016958   106A      1.017088   107A      1.027073  
     108A      1.058352   109A      1.058483   110A      1.091171  
     111A      1.091262   112A      1.094658   113A      1.098305  
     114A      1.137132   115A      1.137207   116A      1.141277  
     117A      1.194374   118A      1.197859   119A      1.197990  
     120A      1.239972   121A      1.240104   122A      1.281958  
     123A      1.339721   124A      1.345477   125A      1.345577  
     126A      1.380098   127A      1.430184   128A      1.430291  
     129A      1.430362   130A      1.456290   131A      1.468469  
     132A      1.482252   133A      1.482275   134A      1.518098  
     135A      1.545660   136A      1.545782   137A      1.550035  
     138A      1.557747   139A      1.557764   140A      1.603403  
     141A      1.626270   142A      1.626285   143A      1.645976  
     144A      1.671985   145A      1.677304   146A      1.677310  
     147A      1.703456   148A      1.703582   149A      1.709736  
     150A      1.740093   151A      1.740103   152A      1.773724  
     153A      1.774807   154A      1.774835   155A      1.795008  
     156A      1.795062   157A      1.841170   158A      1.843676  
     159A      1.848020   160A      1.848034   161A      1.887149  
     162A      1.887183   163A      1.897297   164A      1.923863  
     165A      1.923982   166A      1.947850   167A      1.947886  
     168A      1.951069   169A      1.968268   170A      1.984826  
     171A      1.984941   172A      2.009020   173A      2.009168  
     174A      2.033686   175A      2.051913   176A      2.062183  
     177A      2.062277   178A      2.068839   179A      2.079956  
     180A      2.115963   181A      2.116000   182A      2.130761  
     183A      2.130817   184A      2.139988   185A      2.140047  
     186A      2.149911   187A      2.161508   188A      2.179210  
     189A      2.191597   190A      2.191683   191A      2.197288  
     192A      2.209984   193A      2.210088   194A      2.226271  
     195A      2.267051   196A      2.267170   197A      2.307147  
     198A      2.319912   199A      2.346875   200A      2.351653  
     201A      2.351674   202A      2.363847   203A      2.363871  
     204A      2.386515   205A      2.417516   206A      2.417852  
     207A      2.469647   208A      2.540408   209A      2.540524  
     210A      2.587044   211A      2.635589   212A      2.635730  
     213A      2.671144   214A      2.782106   215A      2.804086  
     216A      2.804155   217A      2.892647   218A      2.892684  
     219A      2.933788   220A      2.939993   221A      2.940029  
     222A      2.946460   223A      2.969813   224A      2.969858  
     225A      2.972085   226A      2.997777   227A      3.009235  
     228A      3.009249   229A      3.027839   230A      3.027882  
     231A      3.049166   232A      3.049245   233A      3.052247  
     234A      3.110677   235A      3.112292   236A      3.171735  
     237A      3.179021   238A      3.179200   239A      3.210532  
     240A      3.210559   241A      3.251358   242A      3.272422  
     243A      3.272485   244A      3.281399   245A      3.281431  
     246A      3.288671   247A      3.288734   248A      3.305222  
     249A      3.340713   250A      3.340844   251A      3.374258  
     252A      3.442834   253A      3.442859   254A      3.500331  
     255A      3.500634   256A      3.511811   257A      3.580599  
     258A      3.584892   259A      3.585011   260A      3.613469  
     261A      3.638049   262A      3.638069   263A      3.722077  
     264A      3.829756   265A      3.863345   266A      3.892226  
     267A      3.892324   268A      3.918407   269A      3.918418  
     270A      3.947478   271A      3.967585   272A      3.967647  
     273A      3.998740   274A      4.065472   275A      4.103410  
     276A      4.103430   277A      4.149732   278A      4.160580  
     279A      4.160700   280A      4.193707   281A      4.225882  
     282A      4.245035   283A      4.245074   284A      4.285574  
     285A      4.339459   286A      4.339507   287A      4.354870  
     288A      4.385846   289A      4.385896   290A      4.436904  
     291A      4.436937   292A      4.442842   293A      4.670382  
     294A      4.670392   295A      4.683918   296A      4.768722  
     297A      4.780156   298A      4.780245   299A      4.881694  
     300A      4.881790   301A      4.998905   302A      4.998997  
     303A      5.069375   304A      5.069400   305A      5.119542  
     306A      5.151749   307A      5.218656   308A      5.224131  
     309A      5.224210   310A      5.246721   311A      5.246741  
     312A      5.402293   313A      5.402369   314A      5.453084  
     315A      5.497190   316A      5.518768   317A      5.518862  
     318A      5.526764   319A      5.697747   320A      6.644744  
     321A      6.644759   322A      6.786245   323A      6.839378  
     324A      6.839399   325A      6.853332   326A      6.853360  
     327A      6.877251   328A      6.878530   329A      6.878567  
     330A      6.907159   331A      6.945534   332A      6.962146  
     333A      6.968978   334A      6.969141   335A      7.128789  
     336A      7.130645   337A      7.139534   338A      7.139560  
     339A      7.370497   340A      7.370562   341A      7.392674  
     342A      7.394840   343A      7.426696   344A      7.426733  
     345A      7.456018   346A      7.456104   347A      7.553852  
     348A      7.572363   349A      7.572405   350A      7.655986  
     351A      7.674225   352A      7.674243   353A      7.689802  
     354A      7.724146   355A      7.724188   356A      7.735893  
     357A      7.863245   358A      7.863273   359A      7.868120  
     360A      7.927566   361A      7.927661   362A      7.994160  
     363A      7.998765   364A      7.998885   365A      8.060147  
     366A      8.120546   367A      8.198027   368A      8.228339  
     369A      8.228395   370A      8.262751   371A      8.367541  
     372A      8.367635   373A      8.455006   374A      8.512119  
     375A      8.512137   376A      8.528876   377A      8.573068  
     378A      8.574893   379A      8.574986   380A      8.599526  
     381A      8.648169   382A      8.648205   383A      8.663549  
     384A      8.663638   385A      8.923215   386A      8.923237  
     387A      8.947022   388A      8.947064   389A      8.966926  
     390A      8.976487   391A      8.976527   392A      8.991665  
     393A      8.994898   394A      9.015127   395A      9.033792  
     396A      9.100787   397A      9.100794   398A      9.325643  
     399A      9.325705   400A      9.340445   401A      9.340456  
     402A      9.415917   403A      9.506055   404A      9.506352  
     405A      9.532720   406A      9.546053   407A      9.546119  
     408A      9.636314   409A      9.664124   410A      9.664162  
     411A      9.720045   412A      9.735718   413A      9.745128  
     414A      9.745137   415A      9.763930   416A      9.763991  
     417A      9.798931   418A      9.879004   419A      9.887092  
     420A      9.890061   421A      9.890096   422A      9.943359  
     423A      9.943416   424A     10.074707   425A     10.074732  
     426A     10.136933   427A     10.143766   428A     10.143788  
     429A     10.177419   430A     10.194779   431A     10.197580  
     432A     10.197623   433A     10.312570   434A     10.312624  
     435A     10.554606   436A     10.554633   437A     10.584764  
     438A     10.584783   439A     10.735280   440A     10.735304  
     441A     10.768085   442A     10.807139   443A     10.832668  
     444A     10.832674   445A     10.848061   446A     10.853882  
     447A     10.937605   448A     10.937663   449A     11.010171  
     450A     11.010204   451A     11.338954   452A     11.338966  
     453A     11.362877   454A     11.809308   455A     12.136122  
     456A     12.136163   457A     12.155184   458A     12.206822  
     459A     12.206900   460A     12.285501   461A     12.315207  
     462A     12.361797   463A     12.369557   464A     12.369570  
     465A     12.404347   466A     12.404362   467A     13.042845  
     468A     13.149511   469A     13.149521   470A     13.243996  
     471A     13.244038   472A     13.261899   473A     14.871946  
     474A     15.126022   475A     15.126029   476A     15.345066  
     477A     16.320809   478A     17.349938   479A     17.349995  
     480A     17.392804   481A     36.775888   482A     73.105680  

    Final Occupation by Irrep:
              A 
    DOCC [     5 ]

  @DF-RHF Final Energy:   -56.22389220682168

   => Energetics <=

    Nuclear Repulsion Energy =             11.9684650447326764
    One-Electron Energy =                 -99.6399639339418144
    Two-Electron Energy =                  31.4476066823874554
    Total Energy =                        -56.2238922068216738

Computation Completed


Properties will be evaluated at   0.000000,   0.000000,   0.000000 [a0]

Properties computed using the SCF density matrix

  Nuclear Dipole Moment: [e a0]
     X:    37.5998      Y:    -0.0009      Z:     0.0001

  Electronic Dipole Moment: [e a0]
     X:   -36.9483      Y:     0.0003      Z:    -0.0000

  Dipole Moment: [e a0]
     X:     0.6515      Y:    -0.0006      Z:     0.0000     Total:     0.6515

  Dipole Moment: [D]
     X:     1.6560      Y:    -0.0016      Z:     0.0001     Total:     1.6560


*** tstop() called on node37.bme.utexas.edu at Wed Apr 15 10:06:01 2020
Module time:
	user time   =      47.45 seconds =       0.79 minutes
	system time =       2.91 seconds =       0.05 minutes
	total time  =          9 seconds =       0.15 minutes
Total time:
	user time   =     286.41 seconds =       4.77 minutes
[...]
     122A      1.645531   123A      1.676192   124A      1.682454  
     125A      1.682578   126A      1.742506   127A      1.742545  
     128A      1.768507   129A      1.798002   130A      1.798107  
     131A      1.798887   132A      1.877865   133A      1.877943  
     134A      1.910009   135A      1.910059   136A      1.941700  
     137A      1.949092   138A      1.968238   139A      1.968280  
     140A      1.969971   141A      2.052744   142A      2.052771  
     143A      2.083378   144A      2.083409   145A      2.084416  
     146A      2.166543   147A      2.166578   148A      2.278504  
     149A      2.290790   150A      2.290820   151A      2.332119  
     152A      2.440345   153A      2.440365   154A      2.457465  
     155A      2.457542   156A      2.504398   157A      2.528806  
     158A      2.776591   159A      3.065720   160A      3.285229  
     161A      3.285238   162A      3.295517   163A      3.426861  
     164A      3.507733   165A      3.507750   166A      3.578005  
     167A      3.578043   168A      3.595691   169A      3.607723  
     170A      3.607733   171A      3.607748   172A      3.631119  
     173A      3.631241   174A      3.935675   175A      3.935682  
     176A      3.980976   177A      3.982666   178A      3.982687  
     179A      4.072840   180A      4.072850   181A      4.090205  
     182A      4.113937   183A      4.113959   184A      4.131737  
     185A      4.140507   186A      4.140565   187A      4.180806  
     188A      4.180823   189A      4.208955   190A      4.232202  
     191A      4.234098   192A      4.295498   193A      4.295560  
     194A      4.304302   195A      4.442476   196A      4.442653  
     197A      4.471540   198A      4.545425   199A      4.561862  
     200A      4.561914   201A      4.605598   202A      4.605627  
     203A      4.641754   204A      4.742154   205A      4.742217  
     206A      4.763293   207A      4.812003   208A      4.812039  
     209A      4.862778   210A      4.862873   211A      4.876663  
     212A      4.895452   213A      4.899855   214A      4.899890  
     215A      4.961273   216A      4.961372   217A      4.994809  
     218A      5.059912   219A      5.059916   220A      5.104761  
     221A      5.224133   222A      5.224166   223A      5.227035  
     224A      5.346090   225A      5.518876   226A      5.647895  
     227A      5.677990   228A      5.678039   229A      5.702345  
     230A      5.702428   231A      5.738070   232A      5.851103  
     233A      5.851124   234A      5.862297   235A      5.928032  
     236A      5.928062   237A      6.076221   238A      6.262813  
     239A      6.262829   240A      6.330973   241A      6.361502  
     242A      6.361622   243A      6.398101   244A      6.642107  
     245A      6.645765   246A      6.645804   247A      6.700671  
     248A      6.951501   249A      6.951514   250A      7.719803  
     251A      7.719859   252A     17.302094   253A     18.205453  

    Final Occupation by Irrep:
              A 
    DOCC [    10 ]

  @DF-RHF Final Energy:   -96.43396640150269

   => Energetics <=

    Nuclear Repulsion Energy =             38.5170306466198440
    One-Electron Energy =                -205.7261502719318855
    Two-Electron Energy =                  70.7751532238093546
    Total Energy =                        -96.4339664015026869

Computation Completed


Properties will be evaluated at   0.000000,   0.000000,   0.000000 [a0]

Properties computed using the SCF density matrix

  Nuclear Dipole Moment: [e a0]
     X:    -1.3791      Y:    -0.0009      Z:     0.0001

  Electronic Dipole Moment: [e a0]
     X:     2.1308      Y:     0.0003      Z:    -0.0000

  Dipole Moment: [e a0]
     X:     0.7517      Y:    -0.0006      Z:     0.0000     Total:     0.7517

  Dipole Moment: [D]
     X:     1.9107      Y:    -0.0015      Z:     0.0001     Total:     1.9107


*** tstop() called on node37.bme.utexas.edu at Wed Apr 15 13:17:16 2020
Module time:
	user time   =      18.94 seconds =       0.32 minutes
	system time =       1.16 seconds =       0.02 minutes
	total time  =          3 seconds =       0.05 minutes
Total time:
	user time   =    4875.07 seconds =      81.25 minutes
	system time =    1552.82 seconds =      25.88 minutes
	total time  =      11548 seconds =     192.47 minutes
 MINTS: Wrapper to libmints.
   by Justin Turney

   Calculation information:
      Number of threads:                 8
      Number of atoms:                   9
      Number of AO shells:              91
      Number of SO shells:              91
      Number of primitives:            137
      Number of atomic orbitals:       285
      Number of basis functions:       253

      Number of irreps:                  1
      Integral cutoff                 0.00e+00
      Number of functions per irrep: [ 253 ]

 OEINTS: Overlap, kinetic, potential, dipole, and quadrupole integrals
         stored in file 35.

      Computing two-electron integrals...done
      Computed 515310000 non-zero two-electron integrals.
        Stored in file 33.


*** tstart() called on node37.bme.utexas.edu
*** at Wed Apr 15 13:23:41 2020


	Wfn Parameters:
	--------------------
	Wavefunction         = CCSD_T
	Number of irreps     = 1
	Number of MOs        = 253
	Number of active MOs = 253
	AO-Basis             = NONE
	Semicanonical        = false
	Reference            = RHF
	Print Level          = 1

	IRREP	# MOs	# FZDC	# DOCC	# SOCC	# VIRT	# FZVR
	-----	-----	------	------	------	------	------
	 A	   253	    0	    10	    0	    243	    0
	Transforming integrals...
	IWL integrals will be deleted.
	(OO|OO)...
	Presorting SO-basis two-electron integrals.
	Sorting File: SO Ints (nn|nn) nbuckets = 1
	Transforming the one-electron integrals and constructing Fock matrices
	Starting first half-transformation.
	Sorting half-transformed integrals.
	First half integral transformation complete.
	Starting second half-transformation.
	Two-electron integral transformation complete.
	(OO|OV)...
	Starting second half-transformation.
	Two-electron integral transformation complete.
	(OO|VV)...
	Starting second half-transformation.
	Two-electron integral transformation complete.
	(OV|OO)...
	Starting first half-transformation.
	Sorting half-transformed integrals.
	First half integral transformation complete.
	Starting second half-transformation.
	Two-electron integral transformation complete.
	(OV|OV)...
	Starting second half-transformation.
	Two-electron integral transformation complete.
	(OV|VV)...
	Starting second half-transformation.
	Two-electron integral transformation complete.
	(VV|OO)...
	Starting first half-transformation.
	Sorting half-transformed integrals.
	First half integral transformation complete.
	Starting second half-transformation.
	Two-electron integral transformation complete.
	(VV|OV)...
	Starting second half-transformation.
	Two-electron integral transformation complete.
	(VV|VV)...
	Starting second half-transformation.
	Two-electron integral transformation complete.
	Frozen core energy     =      0.00000000000000

	Size of irrep 0 of <ab|cd> integrals:   3486.784 (MW) /  27894.275 (MB)
	Total:                                  3486.784 (MW) /  27894.275 (MB)

	Size of irrep 0 of <ia|bc> integrals:    143.489 (MW) /   1147.913 (MB)
	Total:                                   143.489 (MW) /   1147.913 (MB)

	Size of irrep 0 of tijab amplitudes:       5.905 (MW) /     47.239 (MB)
	Total:                                     5.905 (MW) /     47.239 (MB)

	Nuclear Rep. energy          =     38.51703064661984
	SCF energy                   =    -96.43396640150269
	One-electron energy          =   -205.72615137927465
	Two-electron energy          =     70.77515153096316
	Reference energy             =    -96.43396920169164

*** tstop() called on node37.bme.utexas.edu at Wed Apr 15 14:49:47 2020
Module time:
	user time   =     947.68 seconds =      15.79 minutes
	system time =     359.24 seconds =       5.99 minutes
	total time  =       5166 seconds =      86.10 minutes
Total time:
	user time   =    5876.24 seconds =      97.94 minutes
	system time =    1927.36 seconds =      32.12 minutes
	total time  =      17099 seconds =     284.98 minutes
            **************************
            *                        *
            *        CCENERGY        *
            *                        *
            **************************

    Nuclear Rep. energy (wfn)     =   38.517030646619844
    SCF energy          (wfn)     =  -96.433966401502687
    Reference energy    (file100) =  -96.433969201691639

    Input parameters:
    -----------------
    Wave function   =     CCSD_T
    Reference wfn   =     RHF
    Brueckner       =     No
    Memory (Mbytes) =     50000.0
    Maxiter         =     50
    R_Convergence   =     1.0e-07
    E_Convergence   =     1.0e-07
    Restart         =     Yes
    DIIS            =     Yes
    AO Basis        =     NONE
    ABCD            =     NEW
    Cache Level     =     2
    Cache Type      =     LOW
    Print Level     =     1
    Num. of threads =     8
    # Amps to Print =     10
    Print MP2 Amps? =     No
    Analyze T2 Amps =     No
    Print Pair Ener =     No
    Local CC        =     No
    SCS-MP2         =     False
    SCSN-MP2        =     False
    SCS-CCSD        =     False

MP2 correlation energy -0.4779814124602683
                Solving CC Amplitude Equations
                ------------------------------
  Iter             Energy              RMS        T1Diag      D1Diag    New D1Diag    D2Diag
  ----     ---------------------    ---------   ----------  ----------  ----------   --------
     0        -0.477981412460268    0.000e+00    0.000000    0.000000    0.000000    0.123579
     1        -0.498495414817750    5.112e-02    0.005952    0.014010    0.014010    0.129248
     2        -0.509225714047164    1.643e-02    0.006431    0.015212    0.015212    0.134525
     3        -0.510466611865956    5.247e-03    0.007132    0.017790    0.017790    0.135714
     4        -0.510420413402953    1.338e-03    0.007242    0.018204    0.018204    0.135933
     5        -0.510446984933905    4.800e-04    0.007287    0.018506    0.018506    0.135986
     6        -0.510452459869672    1.330e-04    0.007304    0.018604    0.018604    0.135991
     7        -0.510451027869690    4.613e-05    0.007307    0.018629    0.018629    0.135991
     8        -0.510450828487521    1.958e-05    0.007308    0.018641    0.018641    0.135992
     9        -0.510451053806299    8.214e-06    0.007309    0.018645    0.018645    0.135992
    10        -0.510450731585351    3.678e-06    0.007309    0.018645    0.018645    0.135992
    11        -0.510450768893587    1.316e-06    0.007309    0.018645    0.018645    0.135992
    12        -0.510450746219179    4.574e-07    0.007309    0.018645    0.018645    0.135992
    13        -0.510450742249652    1.600e-07    0.007309    0.018645    0.018645    0.135992
    14        -0.510450745853658    4.835e-08    0.007309    0.018645    0.018645    0.135992

    Iterations converged.


    Largest TIA Amplitudes:
              9  14         0.0092490331
              9  10        -0.0059691572
              9   6        -0.0057409425
              9  30         0.0054565571
              9  40         0.0049927243
              9  24        -0.0046583634
              8  51         0.0042549171
              4 131        -0.0041567651
              5 130        -0.0041541829
              9   1         0.0040095678

    Largest TIjAb Amplitudes:
      8   8  39  39        -0.0167251667
      8   8  53  53        -0.0159291108
      8   8  62  62        -0.0135196031
      8   8  39  62        -0.0133980204
      8   8  62  39        -0.0133980204
      8   8  21  39         0.0133490373
      8   8  39  21         0.0133490373
      6   6  60  60        -0.0132677996
      7   7  61  61        -0.0132673081
      5   5  41  41        -0.0127014050

    SCF energy       (wfn)                    =  -96.433966401502687
    Reference energy (file100)                =  -96.433969201691639

    Opposite-spin MP2 correlation energy      =   -0.382114035050162
    Same-spin MP2 correlation energy          =   -0.095867377410106
    MP2 correlation energy                    =   -0.477981412460268
      * MP2 total energy                      =  -96.911950614151905

    Opposite-spin CCSD correlation energy     =   -0.420390061230440
    Same-spin CCSD correlation energy         =   -0.090060684623221
    CCSD correlation energy                   =   -0.510450745853658
      * CCSD total energy                     =  -96.944419947545299

            **************************
            *                        *
            *        CCTRIPLES       *
            *                        *
            **************************


    Wave function   =    CCSD_T
    Reference wfn   =      RHF

    Nuclear Rep. energy (wfn)                =   38.517030646619844
    SCF energy          (wfn)                =  -96.433966401502687
    Reference energy    (file100)            =  -96.433969201691639
    CCSD energy         (file100)            =   -0.510450745853658
    Total CCSD energy   (file100)            =  -96.944419947545299

    Number of ijk index combinations:              220
    Memory available in words        :      6250000000
    ~Words needed per explicit thread:        57395628
    Number of threads for explicit ijk threading:    8

    MKL num_threads set to 1 for explicit threading.

    (T) energy                                =   -0.015400651229491
      * CCSD(T) total energy                  =  -96.959820598774783


  //>>>>>>>>>>>>>>>>>>>>>>>>>>>>>>>>>>>//
  //    CBS Results: custom function   //
  //<<<<<<<<<<<<<<<<<<<<<<<<<<<<<<<<<<<//


   ==> HF <==

   HI-zeta (4) Energy:               -96.440229700160


   ==> Helgaker 2-point correlated extrapolation for method: MP2 <==

   LO-zeta (3) Energy:               -96.911950614152
   HI-zeta (4) Energy:               -96.965933094302
   Alpha (exponent) Value:             3.000000000000
   Extrapolated Energy:              -97.005325714951

   @Extrapolated MP2/(T,Q):          -97.005325714951



   ==> Helgaker 2-point correlated extrapolation for method: HF <==

   LO-zeta (3) Energy:               -96.433966401503
   HI-zeta (4) Energy:               -96.440229700160
   Alpha (exponent) Value:             3.000000000000
   Extrapolated Energy:              -96.444800215396

   @Extrapolated HF/(T,Q):           -96.444800215396



   ==> Helgaker 2-point correlated extrapolation for method: CCSD(T) <==

   LO-zeta (2) Energy:               -96.827770861781
   HI-zeta (3) Energy:               -96.959820598775
   Alpha (exponent) Value:             3.000000000000
   Extrapolated Energy:              -97.015420488035

   @Extrapolated CCSD(T)/(D,T):      -97.015420488035



   ==> Helgaker 2-point correlated extrapolation for method: MP2 <==

   LO-zeta (2) Energy:               -96.779793494468
   HI-zeta (3) Energy:               -96.911950614152
   Alpha (exponent) Value:             3.000000000000
   Extrapolated Energy:              -96.967595717177

   @Extrapolated MP2/(D,T):          -96.967595717177


   ==> Components <==

  ---------------------------------------------------------------------------------------------------------
                          Method / Basis                      Rqd      Energy [Eh]   Variable
  ---------------------------------------------------------------------------------------------------------
                              hf / aug-cc-pvqz                  *     -96.44022970   HF TOTAL ENERGY
                             mp2 / aug-cc-pvqz                  *     -96.96593309   MP2 TOTAL ENERGY
                              hf / aug-cc-pvdz                        -96.40532185   HF TOTAL ENERGY
                             mp2 / aug-cc-pvdz                  *     -96.77979349   MP2 TOTAL ENERGY
                            ccsd / aug-cc-pvdz                        -96.81754514   CCSD TOTAL ENERGY
                         ccsd(t) / aug-cc-pvdz                  *     -96.82777086   CCSD(T) TOTAL ENERGY
                              hf / aug-cc-pvtz                  *     -96.43396640   HF TOTAL ENERGY
                             mp2 / aug-cc-pvtz                  *     -96.91195061   MP2 TOTAL ENERGY
                            ccsd / aug-cc-pvtz                        -96.94441995   CCSD TOTAL ENERGY
                         ccsd(t) / aug-cc-pvtz                  *     -96.95982060   CCSD(T) TOTAL ENERGY
  ---------------------------------------------------------------------------------------------------------

   ==> Stages <==

  ---------------------------------------------------------------------------------------------------------
      Stage               Method / Basis                       Wt      Energy [Eh]   Scheme
  ---------------------------------------------------------------------------------------------------------
        scf                   hf / aug-cc-pvqz                  1     -96.44022970   xtpl_highest_1
       corl                  mp2 / aug-cc-pv[tq]z               1     -97.00532571   corl_xtpl_helgaker_2
       corl                   hf / aug-cc-pv[tq]z              -1     -96.44480022   corl_xtpl_helgaker_2
     delta1              ccsd(t) / aug-cc-pv[dt]z               1     -97.01542049   corl_xtpl_helgaker_2
     delta1                  mp2 / aug-cc-pv[dt]z              -1     -96.96759572   corl_xtpl_helgaker_2
  ---------------------------------------------------------------------------------------------------------

   ==> CBS <==

  ---------------------------------------------------------------------------------------------------------
      Stage               Method / Basis                               Energy [Eh]   Scheme
  ---------------------------------------------------------------------------------------------------------
        scf                   hf / aug-cc-pvqz                        -96.44022970   xtpl_highest_1
       corl                  mp2 / aug-cc-pv[tq]z                      -0.56052550   corl_xtpl_helgaker_2
     delta1        ccsd(t) - mp2 / aug-cc-pv[dt]z                      -0.04782477   corl_xtpl_helgaker_2
      total                  CBS                                      -97.04857997   
  ---------------------------------------------------------------------------------------------------------
   => Loading Basis Set <=

    Name: DEF2-SVP
    Role: ORBITAL
    Keyword: BASIS
    atoms 1        entry C          line    90 file /home/liuchw/anaconda3/envs/psi4env/share/psi4/basis/def2-svp.gbs 
    atoms 2-5, 7-9 entry H          line    15 file /home/liuchw/anaconda3/envs/psi4env/share/psi4/basis/def2-svp.gbs 
    atoms 6        entry N          line   110 file /home/liuchw/anaconda3/envs/psi4env/share/psi4/basis/def2-svp.gbs 


       N-Body: Complex Energy (fragments = (1, 2), basis = (1, 2):   -97.04857997057400)

   ==> N-Body: Counterpoise Corrected (CP) energies <==

   n-Body     Total Energy [Eh]       I.E. [kcal/mol]      Delta [kcal/mol]
        1      -97.047355981713        0.000000000000        0.000000000000
        2      -97.048593214554       -0.776375328956       -0.776375328956

   => Loading Basis Set <=

    Name: DEF2-SVP
    Role: ORBITAL
    Keyword: BASIS
    atoms 1        entry C          line    90 file /home/liuchw/anaconda3/envs/psi4env/share/psi4/basis/def2-svp.gbs 
    atoms 2-5, 7-9 entry H          line    15 file /home/liuchw/anaconda3/envs/psi4env/share/psi4/basis/def2-svp.gbs 
    atoms 6        entry N          line   110 file /home/liuchw/anaconda3/envs/psi4env/share/psi4/basis/def2-svp.gbs 


    Psi4 stopped on: Wednesday, 15 April 2020 03:03PM
    Psi4 wall time for execution: 4:58:13.88

*** Psi4 exiting successfully. Buy a developer a beer!
