
    -----------------------------------------------------------------------
          Psi4: An Open-Source Ab Initio Electronic Structure Package
                               Psi4 1.4a2.dev224 

                         Git: Rev {master} e453b16 


    R. M. Parrish, L. A. Burns, D. G. A. Smith, A. C. Simmonett,
    A. E. DePrince III, E. G. Hohenstein, U. Bozkaya, A. Yu. Sokolov,
    R. Di Remigio, R. M. Richard, J. F. Gonthier, A. M. James,
    H. R. McAlexander, A. Kumar, M. Saitow, X. Wang, B. P. Pritchard,
    P. Verma, H. F. Schaefer III, K. Patkowski, R. A. King, E. F. Valeev,
    F. A. Evangelista, J. M. Turney, T. D. Crawford, and C. D. Sherrill,
    J. Chem. Theory Comput. 13(7) pp 3185--3197 (2017).
    (doi: 10.1021/acs.jctc.7b00174)


                         Additional Contributions by
    P. Kraus, H. Kruse, M. H. Lechner, M. C. Schieber, R. A. Shaw,
    A. Alenaizan, R. Galvelis, Z. L. Glick, S. Lehtola, and J. P. Misiewicz

    -----------------------------------------------------------------------


    Psi4 started on: Wednesday, 15 April 2020 03:11PM

    Process ID: 35924
    Host:       node37.bme.utexas.edu
    PSIDATADIR: /home/liuchw/anaconda3/envs/psi4env/share/psi4
    Memory:     500.0 MiB
    Threads:    8
    
  ==> Input File <==

--------------------------------------------------------------------------
#Generated by lconvert.py for cbs job

memory 50 GB

molecule  {
0 1
  C      -1.635465   -0.589711    0.000260
  C      -1.253728    0.687369   -0.000208
  H      -1.799159   -1.127792   -0.922423
  H      -1.798092   -1.127434    0.923341
  H      -1.091053    1.226753    0.921740
  H      -1.092108    1.226265   -0.922626
--
0 1
  N       2.333571    0.037163   -0.000423
  H       2.716944   -0.433027    0.809035
  H       1.342911   -0.171803   -0.001865
  H       2.720722   -0.439054   -0.804554
units angstrom
no_reorient
symmetry c1
}

set {
scf_type DF
mp2_type DF
e_convergence 7
reference rhf
}

energy(cbs, corl_wfn='mp2', corl_basis='aug-cc-pv[tq]z', delta_wfn='ccsd(t)', delta_basis='aug-cc-pv[dt]z', bsse_type='cp')
--------------------------------------------------------------------------

  Memory set to  46.566 GiB by Python driver.

Scratch directory: /scratch/liuchw/


   ===> N-Body Interaction Abacus <===
        BSSE Treatment:                     cp
        Number of 1-body computations:     4
        Number of 2-body computations:     1

   ==> N-Body: Now computing 1-body complexes <==


       N-Body: Computing complex (1/4) with fragments (2,) in the basis of fragments (2,).


Scratch directory: /scratch/liuchw/

  //>>>>>>>>>>>>>>>>>>>>>>>>>>>>>>>>>>>//
  //     CBS Setup: custom function    //
  //<<<<<<<<<<<<<<<<<<<<<<<<<<<<<<<<<<<//

    Naive listing of computations required.
             hf / aug-cc-pvqz              for  HF TOTAL ENERGY
            mp2 / aug-cc-pvtz              for  MP2 TOTAL ENERGY
            mp2 / aug-cc-pvqz              for  MP2 TOTAL ENERGY
             hf / aug-cc-pvtz              for  HF TOTAL ENERGY
             hf / aug-cc-pvqz              for  HF TOTAL ENERGY
        ccsd(t) / aug-cc-pvdz              for  CCSD(T) TOTAL ENERGY
        ccsd(t) / aug-cc-pvtz              for  CCSD(T) TOTAL ENERGY
            mp2 / aug-cc-pvdz              for  MP2 TOTAL ENERGY
            mp2 / aug-cc-pvtz              for  MP2 TOTAL ENERGY

    Enlightened listing of computations required.
            mp2 / aug-cc-pvqz              for  MP2 TOTAL ENERGY
        ccsd(t) / aug-cc-pvdz              for  CCSD(T) TOTAL ENERGY
        ccsd(t) / aug-cc-pvtz              for  CCSD(T) TOTAL ENERGY

    Full listing of computations to be obtained (required and bonus).
             hf / aug-cc-pvqz              for  HF TOTAL ENERGY
            mp2 / aug-cc-pvqz              for  MP2 TOTAL ENERGY
             hf / aug-cc-pvdz              for  HF TOTAL ENERGY
            mp2 / aug-cc-pvdz              for  MP2 TOTAL ENERGY
           ccsd / aug-cc-pvdz              for  CCSD TOTAL ENERGY
        ccsd(t) / aug-cc-pvdz              for  CCSD(T) TOTAL ENERGY
             hf / aug-cc-pvtz              for  HF TOTAL ENERGY
            mp2 / aug-cc-pvtz              for  MP2 TOTAL ENERGY
           ccsd / aug-cc-pvtz              for  CCSD TOTAL ENERGY
        ccsd(t) / aug-cc-pvtz              for  CCSD(T) TOTAL ENERGY

  //>>>>>>>>>>>>>>>>>>>>>>>>>>>>>>>>>>>>//
  // CBS Computation: MP2 / AUG-CC-PVQZ //
  //<<<<<<<<<<<<<<<<<<<<<<<<<<<<<<<<<<<<//


Scratch directory: /scratch/liuchw/

*** tstart() called on node37.bme.utexas.edu
*** at Wed Apr 15 15:11:12 2020

   => Loading Basis Set <=

    Name: AUG-CC-PVQZ
    Role: ORBITAL
    Keyword: BASIS
    atoms 1   entry N          line   363 file /home/liuchw/anaconda3/envs/psi4env/share/psi4/basis/aug-cc-pvqz.gbs 
    atoms 2-4 entry H          line    40 file /home/liuchw/anaconda3/envs/psi4env/share/psi4/basis/aug-cc-pvqz.gbs 


         ---------------------------------------------------------
                                   SCF
               by Justin Turney, Rob Parrish, Andy Simmonett
                          and Daniel G. A. Smith
                              RHF Reference
                        8 Threads,  47683 MiB Core
         ---------------------------------------------------------

  ==> Geometry <==

    Molecular point group: c1
    Full point group: C1

    Geometry (in Angstrom), charge = 0, multiplicity = 1:

       Center              X                  Y                   Z               Mass       
    ------------   -----------------  -----------------  -----------------  -----------------
         N            2.355435276389     0.018529630756    -0.000364617728    14.003074004430
         H            2.738808276389    -0.451660369244     0.809093382272     1.007825032230
         H            1.364775276389    -0.190436369244    -0.001806617728     1.007825032230
         H            2.742586276389    -0.457687369244    -0.804495617728     1.007825032230

  Running in c1 symmetry.

  Rotational constants: A =      9.79803  B =      0.17714  C =      0.17547 [cm^-1]
  Rotational constants: A = 293737.44199  B =   5310.51307  C =   5260.56501 [MHz]
  Nuclear repulsion =   11.964915390055808

  Charge       = 0
  Multiplicity = 1
  Electrons    = 10
  Nalpha       = 5
  Nbeta        = 5

  ==> Algorithm <==

  SCF Algorithm Type is DF.
  DIIS enabled.
  MOM disabled.
  Fractional occupation disabled.
  Guess Type is SAD.
  Energy threshold   = 1.00e-07
  Density threshold  = 1.00e-08
  Integral threshold = 0.00e+00

  ==> Primary Basis <==

  Basis Set: AUG-CC-PVQZ
    Blend: AUG-CC-PVQZ
    Number of shells: 62
    Number of basis function: 218
    Number of Cartesian functions: 270
    Spherical Harmonics?: true
    Max angular momentum: 4

   => Loading Basis Set <=

    Name: (AUG-CC-PVQZ AUX)
    Role: JKFIT
    Keyword: DF_BASIS_SCF
    atoms 1   entry N          line   248 file /home/liuchw/anaconda3/envs/psi4env/share/psi4/basis/aug-cc-pvqz-jkfit.gbs 
    atoms 2-4 entry H          line    70 file /home/liuchw/anaconda3/envs/psi4env/share/psi4/basis/aug-cc-pvqz-jkfit.gbs 

  ==> Pre-Iterations <==

   -------------------------------------------------------
    Irrep   Nso     Nmo     Nalpha   Nbeta   Ndocc  Nsocc
   -------------------------------------------------------
     A        218     218       0       0       0       0
   -------------------------------------------------------
    Total     218     218       5       5       5       0
   -------------------------------------------------------

  ==> Integral Setup <==

  DFHelper Memory: AOs need 0.147 GiB; user supplied 34.925 GiB. Using in-core AOs.

  ==> MemDFJK: Density-Fitted J/K Matrices <==

    J tasked:                   Yes
    K tasked:                   Yes
    wK tasked:                   No
    OpenMP threads:               8
    Memory [MiB]:             35762
    Algorithm:                 Core
    Schwarz Cutoff:           1E-12
    Mask sparsity (%):       0.0000
    Fitting Condition:        1E-10

   => Auxiliary Basis Set <=

  Basis Set: (AUG-CC-PVQZ AUX)
    Blend: AUG-CC-PVQZ-JKFIT
    Number of shells: 88
    Number of basis function: 370
    Number of Cartesian functions: 501
    Spherical Harmonics?: true
    Max angular momentum: 5

  Minimum eigenvalue in the overlap matrix is 5.1326106894E-05.
  Using Symmetric Orthogonalization.

  SCF Guess: Superposition of Atomic Densities via on-the-fly atomic UHF.

  ==> Iterations <==

                           Total Energy        Delta E     RMS |[F,P]|

   @DF-RHF iter SAD:   -55.64851680998680   -5.56485e+01   0.00000e+00 
   @DF-RHF iter   1:   -56.12575791910366   -4.77241e-01   2.14410e-03 DIIS
   @DF-RHF iter   2:   -56.19484605168127   -6.90881e-02   1.24479e-03 DIIS
   @DF-RHF iter   3:   -56.22321286711308   -2.83668e-02   1.12805e-04 DIIS
   @DF-RHF iter   4:   -56.22385095485638   -6.38088e-04   2.13525e-05 DIIS
   @DF-RHF iter   5:   -56.22387260541194   -2.16506e-05   3.98563e-06 DIIS
   @DF-RHF iter   6:   -56.22387385231293   -1.24690e-06   9.66283e-07 DIIS
   @DF-RHF iter   7:   -56.22387392597321   -7.36603e-08   2.06657e-07 DIIS
   @DF-RHF iter   8:   -56.22387392935144   -3.37823e-09   2.94766e-08 DIIS
   @DF-RHF iter   9:   -56.22387392941681   -6.53699e-11   7.06804e-09 DIIS
  Energy and wave function converged.


  ==> Post-Iterations <==

    Orbital Energies [Eh]
    ---------------------

    Doubly Occupied:                                                      

       1A    -15.540605     2A     -1.143736     3A     -0.628027  
       4A     -0.627595     5A     -0.432002  

    Virtual:                                                              

       6A      0.026483     7A      0.043759     8A      0.043786  
       9A      0.097589    10A      0.132248    11A      0.139405  
      12A      0.139443    13A      0.183565    14A      0.183624  
      15A      0.188679    16A      0.188737    17A      0.209465  
      18A      0.284015    19A      0.292800    20A      0.297819  
      21A      0.297883    22A      0.354904    23A      0.382060  
      24A      0.382212    25A      0.389958    26A      0.390079  
      27A      0.423709    28A      0.472805    29A      0.473002  
      30A      0.557929    31A      0.558089    32A      0.558255  
      33A      0.595577    34A      0.681992    35A      0.682074  
      36A      0.697418    37A      0.702404    38A      0.718251  
      39A      0.718409    40A      0.751509    41A      0.779673  
      42A      0.779802    43A      0.782498    44A      0.831770  
      45A      0.831919    46A      0.852932    47A      0.856724  
      48A      0.857071    49A      0.872890    50A      0.872971  
      51A      0.979997    52A      1.012363    53A      1.013136  
      54A      1.134591    55A      1.220336    56A      1.220494  
      57A      1.351409    58A      1.355516    59A      1.355591  
      60A      1.372097    61A      1.376961    62A      1.451960  
      63A      1.452429    64A      1.515396    65A      1.536108  
      66A      1.536376    67A      1.576803    68A      1.604911  
      69A      1.661911    70A      1.662005    71A      1.700461  
      72A      1.700912    73A      1.733992    74A      1.749207  
      75A      1.749234    76A      1.816857    77A      1.830434  
      78A      1.830663    79A      1.853868    80A      1.899072  
      81A      1.900141    82A      1.983030    83A      1.983594  
      84A      2.020282    85A      2.020493    86A      2.042607  
      87A      2.065300    88A      2.103248    89A      2.113007  
      90A      2.113393    91A      2.188066    92A      2.263734  
      93A      2.264374    94A      2.284895    95A      2.400839  
      96A      2.401098    97A      2.785054    98A      2.911588  
      99A      2.912570   100A      2.919909   101A      2.935921  
     102A      2.936445   103A      2.945247   104A      3.005711  
     105A      3.006030   106A      3.028712   107A      3.029414  
     108A      3.068574   109A      3.104005   110A      3.142653  
     111A      3.207429   112A      3.208536   113A      3.263969  
     114A      3.264934   115A      3.394826   116A      3.394999  
     117A      3.468490   118A      3.549262   119A      3.550477  
     120A      3.603905   121A      3.720813   122A      3.904396  
     123A      3.911942   124A      3.912647   125A      4.136048  
     126A      4.137882   127A      4.146616   128A      4.185037  
     129A      4.185688   130A      4.217626   131A      4.238397  
     132A      4.295326   133A      4.366898   134A      4.367959  
     135A      4.715511   136A      4.715827   137A      4.958486  
     138A      4.959239   139A      5.075432   140A      5.190978  
     141A      5.191155   142A      5.352099   143A      5.352529  
     144A      5.451592   145A      5.641379   146A      6.829776  
     147A      6.830308   148A      6.907586   149A      6.933757  
     150A      6.936977   151A      7.006667   152A      7.390080  
     153A      7.393588   154A      7.394290   155A      7.425172  
     156A      7.426561   157A      7.612596   158A      7.687792  
     159A      7.709797   160A      7.709833   161A      7.861384  
     162A      7.862308   163A      7.923549   164A      7.925645  
     165A      7.996515   166A      8.200474   167A      8.314793  
     168A      8.317795   169A      8.335605   170A      8.512469  
     171A      8.564738   172A      8.567676   173A      8.638318  
     174A      8.640620   175A      8.867791   176A      8.917878  
     177A      8.917883   178A      8.953676   179A      8.990930  
     180A      9.011133   181A      9.024118   182A      9.026208  
     183A      9.221112   184A      9.294047   185A      9.295372  
     186A      9.442761   187A      9.443201   188A      9.524962  
     189A      9.525112   190A      9.590775   191A      9.796179  
     192A      9.831749   193A      9.924662   194A      9.926079  
     195A     10.121484   196A     10.121764   197A     10.122353  
     198A     10.294088   199A     10.295941   200A     10.553358  
     201A     10.555722   202A     10.776171   203A     10.853612  
     204A     10.982936   205A     10.984618   206A     11.727997  
     207A     12.196670   208A     12.202486   209A     12.274363  
     210A     12.363940   211A     12.368415   212A     13.039973  
     213A     13.121484   214A     13.123746   215A     14.701351  
     216A     15.053435   217A     15.061245   218A     36.683043  

    Final Occupation by Irrep:
              A 
    DOCC [     5 ]

  @DF-RHF Final Energy:   -56.22387392941681

   => Energetics <=

    Nuclear Repulsion Energy =             11.9649153900558076
    One-Electron Energy =                 -99.6336470617557382
    Two-Electron Energy =                  31.4448577422831193
    Total Energy =                        -56.2238739294168113

Computation Completed


Properties will be evaluated at   0.000000,   0.000000,   0.000000 [a0]

Properties computed using the SCF density matrix

  Nuclear Dipole Moment: [e a0]
     X:    44.0953      Y:    -1.8332      Z:     0.0005

  Electronic Dipole Moment: [e a0]
     X:   -44.2173      Y:     1.1944      Z:     0.0017

  Dipole Moment: [e a0]
     X:    -0.1220      Y:    -0.6388      Z:     0.0021     Total:     0.6504

  Dipole Moment: [D]
     X:    -0.3101      Y:    -1.6237      Z:     0.0054     Total:     1.6531


*** tstop() called on node37.bme.utexas.edu at Wed Apr 15 15:11:15 2020
Module time:
	user time   =      12.71 seconds =       0.21 minutes
	system time =       0.98 seconds =       0.02 minutes
	total time  =          3 seconds =       0.05 minutes
Total time:
	user time   =      12.71 seconds =       0.21 minutes
	system time =       0.98 seconds =       0.02 minutes
	total time  =          3 seconds =       0.05 minutes

*** tstart() called on node37.bme.utexas.edu
*** at Wed Apr 15 15:11:15 2020


  //>>>>>>>>>>>>>>>>>>>>>>>>>>>>>>>>>>>//
  //               DFMP2               //
  //<<<<<<<<<<<<<<<<<<<<<<<<<<<<<<<<<<<//

   => Loading Basis Set <=

    Name: (AUG-CC-PVQZ AUX)
    Role: RIFIT
    Keyword: DF_BASIS_MP2
    atoms 1   entry N          line   258 file /home/liuchw/anaconda3/envs/psi4env/share/psi4/basis/aug-cc-pvqz-ri.gbs 
    atoms 2-4 entry H          line    30 file /home/liuchw/anaconda3/envs/psi4env/share/psi4/basis/aug-cc-pvqz-ri.gbs 

	 --------------------------------------------------------
	                          DF-MP2                         
	      2nd-Order Density-Fitted Moller-Plesset Theory     
	              RMP2 Wavefunction,   8 Threads             
	                                                         
	        Rob Parrish, Justin Turney, Andy Simmonett,      
	           Ed Hohenstein, and C. David Sherrill          
	 --------------------------------------------------------

   => Auxiliary Basis Set <=

  Basis Set: (AUG-CC-PVQZ AUX)
    Blend: AUG-CC-PVQZ-RI
    Number of shells: 96
    Number of basis function: 408
    Number of Cartesian functions: 552
    Spherical Harmonics?: true
    Max angular momentum: 5

	 --------------------------------------------------------
	                 NBF =   218, NAUX =   408
	 --------------------------------------------------------
	   CLASS    FOCC     OCC    AOCC    AVIR     VIR    FVIR
	   PAIRS       0       5       5     213     213       0
	 --------------------------------------------------------

	-----------------------------------------------------------
	 ==================> DF-MP2 Energies <==================== 
	-----------------------------------------------------------
	 Reference Energy          =     -56.2238739294168113 [Eh]
	 Singles Energy            =      -0.0000000000000000 [Eh]
	 Same-Spin Energy          =      -0.0594016593066986 [Eh]
	 Opposite-Spin Energy      =      -0.2248019796171183 [Eh]
	 Correlation Energy        =      -0.2842036389238169 [Eh]
	 Total Energy              =     -56.5080775683406316 [Eh]
	-----------------------------------------------------------
	 ================> DF-SCS-MP2 Energies <================== 
	-----------------------------------------------------------
	 SCS Same-Spin Scale       =       0.3333333333333333 [-]
	 SCS Opposite-Spin Scale   =       1.2000000000000000 [-]
	 SCS Same-Spin Energy      =      -0.0198005531022329 [Eh]
	 SCS Opposite-Spin Energy  =      -0.2697623755405419 [Eh]
	 SCS Correlation Energy    =      -0.2895629286427748 [Eh]
	 SCS Total Energy          =     -56.5134368580595847 [Eh]
	-----------------------------------------------------------


*** tstop() called on node37.bme.utexas.edu at Wed Apr 15 15:11:16 2020
Module time:
	user time   =       5.00 seconds =       0.08 minutes
	system time =       0.30 seconds =       0.00 minutes
	total time  =          1 seconds =       0.02 minutes
Total time:
	user time   =      17.71 seconds =       0.30 minutes
	system time =       1.28 seconds =       0.02 minutes
	total time  =          4 seconds =       0.07 minutes

  //>>>>>>>>>>>>>>>>>>>>>>>>>>>>>>>>>>>>>>>>//
  // CBS Computation: CCSD(T) / AUG-CC-PVDZ //
  //<<<<<<<<<<<<<<<<<<<<<<<<<<<<<<<<<<<<<<<<//


Scratch directory: /scratch/liuchw/

*** tstart() called on node37.bme.utexas.edu
*** at Wed Apr 15 15:11:16 2020

   => Loading Basis Set <=

    Name: AUG-CC-PVDZ
    Role: ORBITAL
    Keyword: BASIS
    atoms 1   entry N          line   218 file /home/liuchw/anaconda3/envs/psi4env/share/psi4/basis/aug-cc-pvdz.gbs 
    atoms 2-4 entry H          line    40 file /home/liuchw/anaconda3/envs/psi4env/share/psi4/basis/aug-cc-pvdz.gbs 


         ---------------------------------------------------------
                                   SCF
               by Justin Turney, Rob Parrish, Andy Simmonett
                          and Daniel G. A. Smith
                              RHF Reference
                        8 Threads,  47683 MiB Core
         ---------------------------------------------------------

  ==> Geometry <==

    Molecular point group: c1
    Full point group: C1

    Geometry (in Angstrom), charge = 0, multiplicity = 1:

       Center              X                  Y                   Z               Mass       
    ------------   -----------------  -----------------  -----------------  -----------------
         N            2.355435276389     0.018529630756    -0.000364617728    14.003074004430
         H            2.738808276389    -0.451660369244     0.809093382272     1.007825032230
         H            1.364775276389    -0.190436369244    -0.001806617728     1.007825032230
         H            2.742586276389    -0.457687369244    -0.804495617728     1.007825032230

  Running in c1 symmetry.

  Rotational constants: A =      9.79803  B =      0.17714  C =      0.17547 [cm^-1]
  Rotational constants: A = 293737.44199  B =   5310.51307  C =   5260.56501 [MHz]
  Nuclear repulsion =   11.964915390055808

  Charge       = 0
  Multiplicity = 1
  Electrons    = 10
  Nalpha       = 5
  Nbeta        = 5

  ==> Algorithm <==

  SCF Algorithm Type is DF.
  DIIS enabled.
  MOM disabled.
  Fractional occupation disabled.
  Guess Type is SAD.
  Energy threshold   = 1.00e-07
  Density threshold  = 1.00e-08
  Integral threshold = 0.00e+00

  ==> Primary Basis <==

  Basis Set: AUG-CC-PVDZ
    Blend: AUG-CC-PVDZ
    Number of shells: 24
    Number of basis function: 50
    Number of Cartesian functions: 52
    Spherical Harmonics?: true
    Max angular momentum: 2

   => Loading Basis Set <=

    Name: (AUG-CC-PVDZ AUX)
    Role: JKFIT
    Keyword: DF_BASIS_SCF
    atoms 1   entry N          line   212 file /home/liuchw/anaconda3/envs/psi4env/share/psi4/basis/aug-cc-pvdz-jkfit.gbs 
    atoms 2-4 entry H          line    70 file /home/liuchw/anaconda3/envs/psi4env/share/psi4/basis/aug-cc-pvdz-jkfit.gbs 

  ==> Pre-Iterations <==

   -------------------------------------------------------
    Irrep   Nso     Nmo     Nalpha   Nbeta   Ndocc  Nsocc
   -------------------------------------------------------
     A         50      50       0       0       0       0
   -------------------------------------------------------
    Total      50      50       5       5       5       0
   -------------------------------------------------------

  ==> Integral Setup <==

  DFHelper Memory: AOs need 0.004 GiB; user supplied 34.925 GiB. Using in-core AOs.

  ==> MemDFJK: Density-Fitted J/K Matrices <==

    J tasked:                   Yes
    K tasked:                   Yes
    wK tasked:                   No
    OpenMP threads:               8
    Memory [MiB]:             35762
    Algorithm:                 Core
    Schwarz Cutoff:           1E-12
    Mask sparsity (%):       0.0000
    Fitting Condition:        1E-10

   => Auxiliary Basis Set <=

  Basis Set: (AUG-CC-PVDZ AUX)
    Blend: AUG-CC-PVDZ-JKFIT
    Number of shells: 64
    Number of basis function: 182
    Number of Cartesian functions: 206
    Spherical Harmonics?: true
    Max angular momentum: 3

  Minimum eigenvalue in the overlap matrix is 2.0955553188E-03.
  Using Symmetric Orthogonalization.

  SCF Guess: Superposition of Atomic Densities via on-the-fly atomic UHF.

  ==> Iterations <==

                           Total Energy        Delta E     RMS |[F,P]|

   @DF-RHF iter SAD:   -55.63933698966180   -5.56393e+01   0.00000e+00 
   @DF-RHF iter   1:   -56.10794935465023   -4.68612e-01   9.06341e-03 DIIS
   @DF-RHF iter   2:   -56.17742482152480   -6.94755e-02   5.07664e-03 DIIS
   @DF-RHF iter   3:   -56.20468895394814   -2.72641e-02   4.81165e-04 DIIS
   @DF-RHF iter   4:   -56.20530234730403   -6.13393e-04   8.44532e-05 DIIS
   @DF-RHF iter   5:   -56.20532060355480   -1.82563e-05   1.57829e-05 DIIS
   @DF-RHF iter   6:   -56.20532162735354   -1.02380e-06   3.26253e-06 DIIS
   @DF-RHF iter   7:   -56.20532167664350   -4.92900e-08   6.17118e-07 DIIS
   @DF-RHF iter   8:   -56.20532167856090   -1.91740e-09   9.13627e-08 DIIS
   @DF-RHF iter   9:   -56.20532167860095   -4.00533e-11   2.29995e-08 DIIS
   @DF-RHF iter  10:   -56.20532167860358   -2.62901e-12   4.65147e-09 DIIS
  Energy and wave function converged.


  ==> Post-Iterations <==

    Orbital Energies [Eh]
    ---------------------

    Doubly Occupied:                                                      

       1A    -15.552084     2A     -1.145699     3A     -0.627942  
       4A     -0.627505     5A     -0.431194  

    Virtual:                                                              

       6A      0.035789     7A      0.059886     8A      0.059929  
       9A      0.149819    10A      0.197457    11A      0.202024  
      12A      0.202078    13A      0.294250    14A      0.294280  
      15A      0.340940    16A      0.342920    17A      0.343145  
      18A      0.470768    19A      0.528030    20A      0.534585  
      21A      0.534757    22A      0.616193    23A      0.639670  
      24A      0.639728    25A      0.710455    26A      0.710751  
      27A      0.841672    28A      0.918003    29A      0.918114  
      30A      1.142330    31A      1.214315    32A      1.214324  
      33A      1.360877    34A      1.810438    35A      1.810918  
      36A      1.951219    37A      2.060825    38A      2.061420  
      39A      2.101073    40A      2.331889    41A      2.332262  
      42A      2.380854    43A      2.415577    44A      2.416667  
      45A      2.670841    46A      2.908325    47A      2.909540  
      48A      3.112336    49A      3.534123    50A      3.535408  

    Final Occupation by Irrep:
              A 
    DOCC [     5 ]

  @DF-RHF Final Energy:   -56.20532167860358

   => Energetics <=

    Nuclear Repulsion Energy =             11.9649153900558076
    One-Electron Energy =                 -99.5716250652452715
    Two-Electron Energy =                  31.4013879965858784
    Total Energy =                        -56.2053216786035819

Computation Completed


Properties will be evaluated at   0.000000,   0.000000,   0.000000 [a0]

Properties computed using the SCF density matrix

  Nuclear Dipole Moment: [e a0]
     X:    44.0953      Y:    -1.8332      Z:     0.0005

  Electronic Dipole Moment: [e a0]
     X:   -44.2179      Y:     1.1913      Z:     0.0017

  Dipole Moment: [e a0]
     X:    -0.1226      Y:    -0.6419      Z:     0.0021     Total:     0.6535

  Dipole Moment: [D]
     X:    -0.3116      Y:    -1.6315      Z:     0.0054     Total:     1.6610


*** tstop() called on node37.bme.utexas.edu at Wed Apr 15 15:11:17 2020
Module time:
	user time   =       6.90 seconds =       0.11 minutes
	system time =       0.50 seconds =       0.01 minutes
	total time  =          1 seconds =       0.02 minutes
Total time:
	user time   =      24.68 seconds =       0.41 minutes
	system time =       1.78 seconds =       0.03 minutes
	total time  =          5 seconds =       0.08 minutes
 MINTS: Wrapper to libmints.
   by Justin Turney

   Calculation information:
      Number of threads:                 8
      Number of atoms:                   4
      Number of AO shells:              24
      Number of SO shells:              24
      Number of primitives:             46
      Number of atomic orbitals:        52
      Number of basis functions:        50

      Number of irreps:                  1
      Integral cutoff                 0.00e+00
      Number of functions per irrep: [  50 ]

 OEINTS: Overlap, kinetic, potential, dipole, and quadrupole integrals
         stored in file 35.

      Computing two-electron integrals...done
      Computed 786981 non-zero two-electron integrals.
        Stored in file 33.


*** tstart() called on node37.bme.utexas.edu
*** at Wed Apr 15 15:11:17 2020


	Wfn Parameters:
	--------------------
	Wavefunction         = CCSD_T
	Number of irreps     = 1
	Number of MOs        = 50
	Number of active MOs = 50
	AO-Basis             = NONE
	Semicanonical        = false
	Reference            = RHF
	Print Level          = 1

	IRREP	# MOs	# FZDC	# DOCC	# SOCC	# VIRT	# FZVR
	-----	-----	------	------	------	------	------
	 A	   50	    0	    5	    0	    45	    0
	Transforming integrals...
	IWL integrals will be deleted.
	(OO|OO)...
	Presorting SO-basis two-electron integrals.
	Sorting File: SO Ints (nn|nn) nbuckets = 1
	Transforming the one-electron integrals and constructing Fock matrices
	Starting first half-transformation.
	Sorting half-transformed integrals.
	First half integral transformation complete.
	Starting second half-transformation.
	Two-electron integral transformation complete.
	(OO|OV)...
	Starting second half-transformation.
	Two-electron integral transformation complete.
	(OO|VV)...
	Starting second half-transformation.
	Two-electron integral transformation complete.
	(OV|OO)...
	Starting first half-transformation.
	Sorting half-transformed integrals.
	First half integral transformation complete.
	Starting second half-transformation.
	Two-electron integral transformation complete.
	(OV|OV)...
	Starting second half-transformation.
	Two-electron integral transformation complete.
	(OV|VV)...
	Starting second half-transformation.
	Two-electron integral transformation complete.
	(VV|OO)...
	Starting first half-transformation.
	Sorting half-transformed integrals.
	First half integral transformation complete.
	Starting second half-transformation.
	Two-electron integral transformation complete.
	(VV|OV)...
	Starting second half-transformation.
	Two-electron integral transformation complete.
	(VV|VV)...
	Starting second half-transformation.
	Two-electron integral transformation complete.
	Frozen core energy     =      0.00000000000000

	Size of irrep 0 of <ab|cd> integrals:      4.101 (MW) /     32.805 (MB)
	Total:                                     4.101 (MW) /     32.805 (MB)

	Size of irrep 0 of <ia|bc> integrals:      0.456 (MW) /      3.645 (MB)
	Total:                                     0.456 (MW) /      3.645 (MB)

	Size of irrep 0 of tijab amplitudes:       0.051 (MW) /      0.405 (MB)
	Total:                                     0.051 (MW) /      0.405 (MB)

	Nuclear Rep. energy          =     11.96491539005581
	SCF energy                   =    -56.20532167860358
	One-electron energy          =    -99.57162493498706
	Two-electron energy          =     31.40138037250982
	Reference energy             =    -56.20532917242143

*** tstop() called on node37.bme.utexas.edu at Wed Apr 15 15:11:23 2020
Module time:
	user time   =       9.13 seconds =       0.15 minutes
	system time =       0.91 seconds =       0.02 minutes
	total time  =          6 seconds =       0.10 minutes
Total time:
	user time   =      36.23 seconds =       0.60 minutes
	system time =       2.90 seconds =       0.05 minutes
	total time  =         11 seconds =       0.18 minutes
            **************************
            *                        *
            *        CCENERGY        *
            *                        *
            **************************

    Nuclear Rep. energy (wfn)     =   11.964915390055808
    SCF energy          (wfn)     =  -56.205321678603582
    Reference energy    (file100) =  -56.205329172421429

    Input parameters:
    -----------------
    Wave function   =     CCSD_T
    Reference wfn   =     RHF
    Brueckner       =     No
    Memory (Mbytes) =     50000.0
    Maxiter         =     50
    R_Convergence   =     1.0e-07
    E_Convergence   =     1.0e-07
    Restart         =     Yes
    DIIS            =     Yes
    AO Basis        =     NONE
    ABCD            =     NEW
    Cache Level     =     2
    Cache Type      =     LOW
    Print Level     =     1
    Num. of threads =     8
    # Amps to Print =     10
    Print MP2 Amps? =     No
    Analyze T2 Amps =     No
    Print Pair Ener =     No
    Local CC        =     No
    SCS-MP2         =     False
    SCSN-MP2        =     False
    SCS-CCSD        =     False

MP2 correlation energy -0.2021736720028141
                Solving CC Amplitude Equations
                ------------------------------
  Iter             Energy              RMS        T1Diag      D1Diag    New D1Diag    D2Diag
  ----     ---------------------    ---------   ----------  ----------  ----------   --------
     0        -0.202173672002814    0.000e+00    0.000000    0.000000    0.000000    0.118462
     1        -0.211451715670423    3.612e-02    0.006556    0.016751    0.016751    0.125543
     2        -0.216104211587950    1.211e-02    0.007391    0.018951    0.018951    0.131043
     3        -0.216953939267833    4.292e-03    0.008363    0.022049    0.022049    0.132446
     4        -0.216938844795589    1.099e-03    0.008535    0.022660    0.022660    0.132766
     5        -0.216951349595046    3.743e-04    0.008609    0.022958    0.022958    0.132856
     6        -0.216952343730653    1.131e-04    0.008634    0.023055    0.023055    0.132869
     7        -0.216950884448456    4.178e-05    0.008639    0.023075    0.023075    0.132869
     8        -0.216950691984049    1.786e-05    0.008642    0.023084    0.023084    0.132871
     9        -0.216950665961869    5.875e-06    0.008642    0.023085    0.023085    0.132871
    10        -0.216950567990568    1.958e-06    0.008642    0.023085    0.023085    0.132871
    11        -0.216950635315896    6.279e-07    0.008642    0.023084    0.023084    0.132871
    12        -0.216950648791430    1.627e-07    0.008642    0.023084    0.023084    0.132871
    13        -0.216950654491118    4.614e-08    0.008642    0.023084    0.023084    0.132871

    Iterations converged.


    Largest TIA Amplitudes:
              4   3         0.0169398560
              4  12        -0.0122331945
              2  37        -0.0068278917
              3  38         0.0068221571
              4   9         0.0056352425
              4   4        -0.0038818443
              4   0        -0.0037711043
              3  19         0.0035992257
              2  20        -0.0035944862
              1   4         0.0035702347

    Largest TIjAb Amplitudes:
      4   4  27  27        -0.0294603122
      2   2   7   7        -0.0245744833
      3   3   8   8        -0.0245503653
      3   3  19  19        -0.0242249941
      2   2  20  20        -0.0242000787
      4   4  12  12        -0.0232650170
      4   4  21  21        -0.0206493576
      3   3   8  19        -0.0201026523
      3   3  19   8        -0.0201026523
      2   2   7  20         0.0200913727

    SCF energy       (wfn)                    =  -56.205321678603582
    Reference energy (file100)                =  -56.205329172421429

    Opposite-spin MP2 correlation energy      =   -0.155122456640171
    Same-spin MP2 correlation energy          =   -0.047051215362643
    MP2 correlation energy                    =   -0.202173672002814
      * MP2 total energy                      =  -56.407502844424243

    Opposite-spin CCSD correlation energy     =   -0.174079221903532
    Same-spin CCSD correlation energy         =   -0.042871432587586
    CCSD correlation energy                   =   -0.216950654491118
      * CCSD total energy                     =  -56.422279826912543

            **************************
            *                        *
            *        CCTRIPLES       *
            *                        *
            **************************


    Wave function   =    CCSD_T
    Reference wfn   =      RHF

    Nuclear Rep. energy (wfn)                =   11.964915390055808
    SCF energy          (wfn)                =  -56.205321678603582
    Reference energy    (file100)            =  -56.205329172421429
    CCSD energy         (file100)            =   -0.216950654491118
    Total CCSD energy   (file100)            =  -56.422279826912543

    Number of ijk index combinations:               35
    Memory available in words        :      6250000000
    ~Words needed per explicit thread:          364500
    Number of threads for explicit ijk threading:    8

    MKL num_threads set to 1 for explicit threading.

    (T) energy                                =   -0.005500593110320
      * CCSD(T) total energy                  =  -56.427780420022870


  //>>>>>>>>>>>>>>>>>>>>>>>>>>>>>>>>>>>>>>>>//
  // CBS Computation: CCSD(T) / AUG-CC-PVTZ //
  //<<<<<<<<<<<<<<<<<<<<<<<<<<<<<<<<<<<<<<<<//


Scratch directory: /scratch/liuchw/

*** tstart() called on node37.bme.utexas.edu
*** at Wed Apr 15 15:11:35 2020

   => Loading Basis Set <=

    Name: AUG-CC-PVTZ
    Role: ORBITAL
    Keyword: BASIS
    atoms 1   entry N          line   285 file /home/liuchw/anaconda3/envs/psi4env/share/psi4/basis/aug-cc-pvtz.gbs 
    atoms 2-4 entry H          line    40 file /home/liuchw/anaconda3/envs/psi4env/share/psi4/basis/aug-cc-pvtz.gbs 


         ---------------------------------------------------------
                                   SCF
               by Justin Turney, Rob Parrish, Andy Simmonett
                          and Daniel G. A. Smith
                              RHF Reference
                        8 Threads,  47683 MiB Core
         ---------------------------------------------------------

  ==> Geometry <==

    Molecular point group: c1
    Full point group: C1

    Geometry (in Angstrom), charge = 0, multiplicity = 1:

       Center              X                  Y                   Z               Mass       
    ------------   -----------------  -----------------  -----------------  -----------------
         N            2.355435276389     0.018529630756    -0.000364617728    14.003074004430
         H            2.738808276389    -0.451660369244     0.809093382272     1.007825032230
         H            1.364775276389    -0.190436369244    -0.001806617728     1.007825032230
         H            2.742586276389    -0.457687369244    -0.804495617728     1.007825032230

  Running in c1 symmetry.

  Rotational constants: A =      9.79803  B =      0.17714  C =      0.17547 [cm^-1]
  Rotational constants: A = 293737.44199  B =   5310.51307  C =   5260.56501 [MHz]
  Nuclear repulsion =   11.964915390055808

  Charge       = 0
  Multiplicity = 1
  Electrons    = 10
  Nalpha       = 5
  Nbeta        = 5

  ==> Algorithm <==

  SCF Algorithm Type is DF.
  DIIS enabled.
  MOM disabled.
  Fractional occupation disabled.
  Guess Type is SAD.
  Energy threshold   = 1.00e-07
  Density threshold  = 1.00e-08
  Integral threshold = 0.00e+00

  ==> Primary Basis <==

  Basis Set: AUG-CC-PVTZ
    Blend: AUG-CC-PVTZ
    Number of shells: 41
    Number of basis function: 115
    Number of Cartesian functions: 130
    Spherical Harmonics?: true
    Max angular momentum: 3

   => Loading Basis Set <=

    Name: (AUG-CC-PVTZ AUX)
    Role: JKFIT
    Keyword: DF_BASIS_SCF
    atoms 1   entry N          line   224 file /home/liuchw/anaconda3/envs/psi4env/share/psi4/basis/aug-cc-pvtz-jkfit.gbs 
    atoms 2-4 entry H          line    70 file /home/liuchw/anaconda3/envs/psi4env/share/psi4/basis/aug-cc-pvtz-jkfit.gbs 

  ==> Pre-Iterations <==

   -------------------------------------------------------
    Irrep   Nso     Nmo     Nalpha   Nbeta   Ndocc  Nsocc
   -------------------------------------------------------
     A        115     115       0       0       0       0
   -------------------------------------------------------
    Total     115     115       5       5       5       0
   -------------------------------------------------------

  ==> Integral Setup <==

  DFHelper Memory: AOs need 0.028 GiB; user supplied 34.925 GiB. Using in-core AOs.

  ==> MemDFJK: Density-Fitted J/K Matrices <==

    J tasked:                   Yes
    K tasked:                   Yes
    wK tasked:                   No
    OpenMP threads:               8
    Memory [MiB]:             35762
    Algorithm:                 Core
    Schwarz Cutoff:           1E-12
    Mask sparsity (%):       0.0000
    Fitting Condition:        1E-10

   => Auxiliary Basis Set <=

  Basis Set: (AUG-CC-PVTZ AUX)
    Blend: AUG-CC-PVTZ-JKFIT
    Number of shells: 72
    Number of basis function: 242
    Number of Cartesian functions: 296
    Spherical Harmonics?: true
    Max angular momentum: 4

  Minimum eigenvalue in the overlap matrix is 2.6929859199E-04.
  Using Symmetric Orthogonalization.

  SCF Guess: Superposition of Atomic Densities via on-the-fly atomic UHF.

  ==> Iterations <==

                           Total Energy        Delta E     RMS |[F,P]|

   @DF-RHF iter SAD:   -55.64538888872202   -5.56454e+01   0.00000e+00 
   @DF-RHF iter   1:   -56.12245214522954   -4.77063e-01   4.05669e-03 DIIS
   @DF-RHF iter   2:   -56.19137264964237   -6.89205e-02   2.35044e-03 DIIS
   @DF-RHF iter   3:   -56.21956633899435   -2.81937e-02   2.12696e-04 DIIS
   @DF-RHF iter   4:   -56.22020062025614   -6.34281e-04   3.97258e-05 DIIS
   @DF-RHF iter   5:   -56.22022170281480   -2.10826e-05   7.32432e-06 DIIS
   @DF-RHF iter   6:   -56.22022288406279   -1.18125e-06   1.72788e-06 DIIS
   @DF-RHF iter   7:   -56.22022295232525   -6.82625e-08   3.49466e-07 DIIS
   @DF-RHF iter   8:   -56.22022295522918   -2.90392e-09   5.35807e-08 DIIS
   @DF-RHF iter   9:   -56.22022295529079   -6.16112e-11   1.30070e-08 DIIS
   @DF-RHF iter  10:   -56.22022295529497   -4.18510e-12   2.74655e-09 DIIS
  Energy and wave function converged.


  ==> Post-Iterations <==

    Orbital Energies [Eh]
    ---------------------

    Doubly Occupied:                                                      

       1A    -15.542205     2A     -1.144029     3A     -0.627926  
       4A     -0.627494     5A     -0.431793  

    Virtual:                                                              

       6A      0.029436     7A      0.048680     8A      0.048710  
       9A      0.117717    10A      0.152515    11A      0.162386  
      12A      0.162419    13A      0.221551    14A      0.221585  
      15A      0.234932    16A      0.235049    17A      0.254476  
      18A      0.356254    19A      0.357599    20A      0.370681  
      21A      0.370730    22A      0.428554    23A      0.461045  
      24A      0.461133    25A      0.486737    26A      0.486886  
      27A      0.565018    28A      0.601151    29A      0.601405  
      30A      0.750039    31A      0.785550    32A      0.785699  
      33A      0.811639    34A      0.880997    35A      0.903737  
      36A      0.915166    37A      0.915379    38A      0.977488  
      39A      0.977654    40A      1.036052    41A      1.036742  
      42A      1.036915    43A      1.082168    44A      1.103401  
      45A      1.103421    46A      1.143342    47A      1.143539  
      48A      1.186534    49A      1.220217    50A      1.220563  
      51A      1.324177    52A      1.358101    53A      1.358839  
      54A      1.616275    55A      1.762541    56A      1.763081  
      57A      1.768920    58A      1.863201    59A      1.863616  
      60A      1.864872    61A      2.001865    62A      2.040876  
      63A      2.041049    64A      2.048208    65A      2.048692  
      66A      2.282414    67A      2.335131    68A      2.372408  
      69A      2.372936    70A      2.439083    71A      2.439445  
      72A      2.471449    73A      3.374698    74A      3.555216  
      75A      3.555999    76A      3.973111    77A      3.974478  
      78A      4.049333    79A      4.135140    80A      4.135842  
      81A      4.211156    82A      4.234764    83A      4.264313  
      84A      4.265222    85A      4.313373    86A      4.356002  
      87A      4.356805    88A      4.475398    89A      4.548823  
      90A      4.549663    91A      4.694861    92A      4.738049  
      93A      4.738786    94A      4.947853    95A      4.949508  
      96A      4.995584    97A      5.056229    98A      5.056559  
      99A      5.092077   100A      5.269705   101A      5.689911  
     102A      5.691443   103A      5.719659   104A      5.898827  
     105A      5.902255   106A      6.048382   107A      6.354039  
     108A      6.356966   109A      6.401173   110A      6.619823  
     111A      6.946077   112A      6.946257   113A      7.692873  
     114A      7.696547   115A     17.240146  

    Final Occupation by Irrep:
              A 
    DOCC [     5 ]

  @DF-RHF Final Energy:   -56.22022295529497

   => Energetics <=

    Nuclear Repulsion Energy =             11.9649153900558076
    One-Electron Energy =                 -99.6233831547714317
    Two-Electron Energy =                  31.4382448094206559
    Total Energy =                        -56.2202229552949717

Computation Completed


Properties will be evaluated at   0.000000,   0.000000,   0.000000 [a0]

Properties computed using the SCF density matrix

  Nuclear Dipole Moment: [e a0]
     X:    44.0953      Y:    -1.8332      Z:     0.0005

  Electronic Dipole Moment: [e a0]
     X:   -44.2173      Y:     1.1945      Z:     0.0017

  Dipole Moment: [e a0]
     X:    -0.1220      Y:    -0.6386      Z:     0.0021     Total:     0.6502

  Dipole Moment: [D]
     X:    -0.3100      Y:    -1.6233      Z:     0.0054     Total:     1.6526


*** tstop() called on node37.bme.utexas.edu at Wed Apr 15 15:11:37 2020
Module time:
	user time   =       7.48 seconds =       0.12 minutes
	system time =       0.49 seconds =       0.01 minutes
	total time  =          2 seconds =       0.03 minutes
Total time:
	user time   =      68.27 seconds =       1.14 minutes
	system time =       6.07 seconds =       0.10 minutes
	total time  =         25 seconds =       0.42 minutes
 MINTS: Wrapper to libmints.
   by Justin Turney

   Calculation information:
      Number of threads:                 8
      Number of atoms:                   4
      Number of AO shells:              41
      Number of SO shells:              41
      Number of primitives:             63
      Number of atomic orbitals:       130
      Number of basis functions:       115

      Number of irreps:                  1
      Integral cutoff                 0.00e+00
      Number of functions per irrep: [ 115 ]

 OEINTS: Overlap, kinetic, potential, dipole, and quadrupole integrals
         stored in file 35.

      Computing two-electron integrals...done
      Computed 21771780 non-zero two-electron integrals.
        Stored in file 33.


*** tstart() called on node37.bme.utexas.edu
*** at Wed Apr 15 15:12:05 2020


	Wfn Parameters:
	--------------------
	Wavefunction         = CCSD_T
	Number of irreps     = 1
	Number of MOs        = 115
	Number of active MOs = 115
	AO-Basis             = NONE
	Semicanonical        = false
	Reference            = RHF
	Print Level          = 1

	IRREP	# MOs	# FZDC	# DOCC	# SOCC	# VIRT	# FZVR
	-----	-----	------	------	------	------	------
	 A	   115	    0	    5	    0	    110	    0
	Transforming integrals...
	IWL integrals will be deleted.
	(OO|OO)...
	Presorting SO-basis two-electron integrals.
	Sorting File: SO Ints (nn|nn) nbuckets = 1
	Transforming the one-electron integrals and constructing Fock matrices
	Starting first half-transformation.
	Sorting half-transformed integrals.
	First half integral transformation complete.
	Starting second half-transformation.
	Two-electron integral transformation complete.
	(OO|OV)...
	Starting second half-transformation.
	Two-electron integral transformation complete.
	(OO|VV)...
	Starting second half-transformation.
	Two-electron integral transformation complete.
	(OV|OO)...
	Starting first half-transformation.
	Sorting half-transformed integrals.
	First half integral transformation complete.
	Starting second half-transformation.
	Two-electron integral transformation complete.
	(OV|OV)...
	Starting second half-transformation.
	Two-electron integral transformation complete.
	(OV|VV)...
	Starting second half-transformation.
	Two-electron integral transformation complete.
	(VV|OO)...
	Starting first half-transformation.
	Sorting half-transformed integrals.
	First half integral transformation complete.
	Starting second half-transformation.
	Two-electron integral transformation complete.
	(VV|OV)...
	Starting second half-transformation.
	Two-electron integral transformation complete.
	(VV|VV)...
	Starting second half-transformation.
	Two-electron integral transformation complete.
	Frozen core energy     =      0.00000000000000

	Size of irrep 0 of <ab|cd> integrals:    146.410 (MW) /   1171.280 (MB)
	Total:                                   146.410 (MW) /   1171.280 (MB)

	Size of irrep 0 of <ia|bc> integrals:      6.655 (MW) /     53.240 (MB)
	Total:                                     6.655 (MW) /     53.240 (MB)

	Size of irrep 0 of tijab amplitudes:       0.302 (MW) /      2.420 (MB)
	Total:                                     0.302 (MW) /      2.420 (MB)

	Nuclear Rep. energy          =     11.96491539005581
	SCF energy                   =    -56.22022295529497
	One-electron energy          =    -99.62338291237407
	Two-electron energy          =     31.43824085306276
	Reference energy             =    -56.22022666925551

*** tstop() called on node37.bme.utexas.edu at Wed Apr 15 15:14:12 2020
Module time:
	user time   =      40.91 seconds =       0.68 minutes
	system time =       8.20 seconds =       0.14 minutes
	total time  =        127 seconds =       2.12 minutes
Total time:
	user time   =     115.35 seconds =       1.92 minutes
	system time =      15.20 seconds =       0.25 minutes
	total time  =        180 seconds =       3.00 minutes
            **************************
            *                        *
            *        CCENERGY        *
            *                        *
            **************************

    Nuclear Rep. energy (wfn)     =   11.964915390055808
    SCF energy          (wfn)     =  -56.220222955294972
    Reference energy    (file100) =  -56.220226669255510

    Input parameters:
    -----------------
    Wave function   =     CCSD_T
    Reference wfn   =     RHF
    Brueckner       =     No
    Memory (Mbytes) =     50000.0
    Maxiter         =     50
    R_Convergence   =     1.0e-07
    E_Convergence   =     1.0e-07
    Restart         =     Yes
    DIIS            =     Yes
    AO Basis        =     NONE
    ABCD            =     NEW
    Cache Level     =     2
    Cache Type      =     LOW
    Print Level     =     1
    Num. of threads =     8
    # Amps to Print =     10
    Print MP2 Amps? =     No
    Analyze T2 Amps =     No
    Print Pair Ener =     No
    Local CC        =     No
    SCS-MP2         =     False
    SCSN-MP2        =     False
    SCS-CCSD        =     False

MP2 correlation energy -0.2571860021819796
                Solving CC Amplitude Equations
                ------------------------------
  Iter             Energy              RMS        T1Diag      D1Diag    New D1Diag    D2Diag
  ----     ---------------------    ---------   ----------  ----------  ----------   --------
     0        -0.257186002181980    0.000e+00    0.000000    0.000000    0.000000    0.122984
     1        -0.263179512349327    3.449e-02    0.006079    0.013436    0.013436    0.127252
     2        -0.268294637215857    1.161e-02    0.006374    0.014558    0.014558    0.132077
     3        -0.269129270388614    4.101e-03    0.007194    0.017071    0.017071    0.133432
     4        -0.269087431349157    1.027e-03    0.007333    0.017517    0.017517    0.133694
     5        -0.269105378270673    3.924e-04    0.007405    0.017812    0.017812    0.133783
     6        -0.269108654328459    1.079e-04    0.007429    0.017900    0.017900    0.133796
     7        -0.269107044402737    3.799e-05    0.007434    0.017920    0.017920    0.133796
     8        -0.269106783616857    1.593e-05    0.007437    0.017929    0.017929    0.133797
     9        -0.269106821762493    5.741e-06    0.007437    0.017930    0.017930    0.133798
    10        -0.269106669171487    2.106e-06    0.007437    0.017930    0.017930    0.133798
    11        -0.269106740956878    7.573e-07    0.007437    0.017930    0.017930    0.133798
    12        -0.269106740222815    2.027e-07    0.007437    0.017930    0.017930    0.133798
    13        -0.269106745193348    5.791e-08    0.007437    0.017930    0.017930    0.133798

    Iterations converged.


    Largest TIA Amplitudes:
              4   3         0.0108806853
              4  11         0.0078544019
              4  13        -0.0075697907
              3  56         0.0050241844
              2  57         0.0050164973
              4  21        -0.0045432660
              4  72         0.0035932471
              4  45         0.0034331536
              4  54         0.0033553156
              3  33         0.0033108201

    Largest TIjAb Amplitudes:
      3   3  18  18        -0.0187604907
      2   2  17  17        -0.0187015574
      4   4  13  13        -0.0161267365
      4   4  24  24        -0.0146930243
      3   3   8  18        -0.0143136489
      3   3  18   8        -0.0143136489
      2   2   7  17        -0.0142791873
      2   2  17   7        -0.0142791873
      4   4  21  21        -0.0137597888
      4   4   3  13         0.0127635625

    SCF energy       (wfn)                    =  -56.220222955294972
    Reference energy (file100)                =  -56.220226669255510

    Opposite-spin MP2 correlation energy      =   -0.201124238013242
    Same-spin MP2 correlation energy          =   -0.056061764168738
    MP2 correlation energy                    =   -0.257186002181980
      * MP2 total energy                      =  -56.477412671437492

    Opposite-spin CCSD correlation energy     =   -0.217786089289243
    Same-spin CCSD correlation energy         =   -0.051320655904104
    CCSD correlation energy                   =   -0.269106745193348
      * CCSD total energy                     =  -56.489333414448858

            **************************
            *                        *
            *        CCTRIPLES       *
            *                        *
            **************************


    Wave function   =    CCSD_T
    Reference wfn   =      RHF

    Nuclear Rep. energy (wfn)                =   11.964915390055808
    SCF energy          (wfn)                =  -56.220222955294972
    Reference energy    (file100)            =  -56.220226669255510
    CCSD energy         (file100)            =   -0.269106745193348
    Total CCSD energy   (file100)            =  -56.489333414448858

    Number of ijk index combinations:               35
    Memory available in words        :      6250000000
    ~Words needed per explicit thread:         5324000
    Number of threads for explicit ijk threading:    8

    MKL num_threads set to 1 for explicit threading.

    (T) energy                                =   -0.008503359861826
      * CCSD(T) total energy                  =  -56.497836774310684


  //>>>>>>>>>>>>>>>>>>>>>>>>>>>>>>>>>>>//
  //    CBS Results: custom function   //
  //<<<<<<<<<<<<<<<<<<<<<<<<<<<<<<<<<<<//


   ==> HF <==

   HI-zeta (4) Energy:               -56.223873929417


   ==> Helgaker 2-point correlated extrapolation for method: MP2 <==

   LO-zeta (3) Energy:               -56.477412671437
   HI-zeta (4) Energy:               -56.508077568341
   Alpha (exponent) Value:             3.000000000000
   Extrapolated Energy:              -56.530454655270

   @Extrapolated MP2/(T,Q):          -56.530454655270



   ==> Helgaker 2-point correlated extrapolation for method: HF <==

   LO-zeta (3) Energy:               -56.220222955295
   HI-zeta (4) Energy:               -56.223873929417
   Alpha (exponent) Value:             3.000000000000
   Extrapolated Energy:              -56.226538153776

   @Extrapolated HF/(T,Q):           -56.226538153776



   ==> Helgaker 2-point correlated extrapolation for method: CCSD(T) <==

   LO-zeta (2) Energy:               -56.427780420023
   HI-zeta (3) Energy:               -56.497836774311
   Alpha (exponent) Value:             3.000000000000
   Extrapolated Energy:              -56.527334186642

   @Extrapolated CCSD(T)/(D,T):      -56.527334186642



   ==> Helgaker 2-point correlated extrapolation for method: MP2 <==

   LO-zeta (2) Energy:               -56.407502844424
   HI-zeta (3) Energy:               -56.477412671437
   Alpha (exponent) Value:             3.000000000000
   Extrapolated Energy:              -56.506848388075

   @Extrapolated MP2/(D,T):          -56.506848388075


   ==> Components <==

  ---------------------------------------------------------------------------------------------------------
                          Method / Basis                      Rqd      Energy [Eh]   Variable
  ---------------------------------------------------------------------------------------------------------
                              hf / aug-cc-pvqz                  *     -56.22387393   HF TOTAL ENERGY
                             mp2 / aug-cc-pvqz                  *     -56.50807757   MP2 TOTAL ENERGY
                              hf / aug-cc-pvdz                        -56.20532168   HF TOTAL ENERGY
                             mp2 / aug-cc-pvdz                  *     -56.40750284   MP2 TOTAL ENERGY
                            ccsd / aug-cc-pvdz                        -56.42227983   CCSD TOTAL ENERGY
                         ccsd(t) / aug-cc-pvdz                  *     -56.42778042   CCSD(T) TOTAL ENERGY
                              hf / aug-cc-pvtz                  *     -56.22022296   HF TOTAL ENERGY
                             mp2 / aug-cc-pvtz                  *     -56.47741267   MP2 TOTAL ENERGY
                            ccsd / aug-cc-pvtz                        -56.48933341   CCSD TOTAL ENERGY
                         ccsd(t) / aug-cc-pvtz                  *     -56.49783677   CCSD(T) TOTAL ENERGY
  ---------------------------------------------------------------------------------------------------------

   ==> Stages <==

  ---------------------------------------------------------------------------------------------------------
      Stage               Method / Basis                       Wt      Energy [Eh]   Scheme
  ---------------------------------------------------------------------------------------------------------
        scf                   hf / aug-cc-pvqz                  1     -56.22387393   xtpl_highest_1
       corl                  mp2 / aug-cc-pv[tq]z               1     -56.53045466   corl_xtpl_helgaker_2
       corl                   hf / aug-cc-pv[tq]z              -1     -56.22653815   corl_xtpl_helgaker_2
     delta1              ccsd(t) / aug-cc-pv[dt]z               1     -56.52733419   corl_xtpl_helgaker_2
     delta1                  mp2 / aug-cc-pv[dt]z              -1     -56.50684839   corl_xtpl_helgaker_2
  ---------------------------------------------------------------------------------------------------------

   ==> CBS <==

  ---------------------------------------------------------------------------------------------------------
      Stage               Method / Basis                               Energy [Eh]   Scheme
  ---------------------------------------------------------------------------------------------------------
        scf                   hf / aug-cc-pvqz                        -56.22387393   xtpl_highest_1
       corl                  mp2 / aug-cc-pv[tq]z                      -0.30391650   corl_xtpl_helgaker_2
     delta1        ccsd(t) - mp2 / aug-cc-pv[dt]z                      -0.02048580   corl_xtpl_helgaker_2
      total                  CBS                                      -56.54827623   
  ---------------------------------------------------------------------------------------------------------
   => Loading Basis Set <=

    Name: DEF2-SVP
    Role: ORBITAL
    Keyword: BASIS
    atoms 1   entry N          line   110 file /home/liuchw/anaconda3/envs/psi4env/share/psi4/basis/def2-svp.gbs 
    atoms 2-4 entry H          line    15 file /home/liuchw/anaconda3/envs/psi4env/share/psi4/basis/def2-svp.gbs 


       N-Body: Complex Energy (fragments = (2,), basis = (2,):   -56.54827622947851)

       N-Body: Computing complex (2/4) with fragments (2,) in the basis of fragments (1, 2).


Scratch directory: /scratch/liuchw/

  //>>>>>>>>>>>>>>>>>>>>>>>>>>>>>>>>>>>//
  //     CBS Setup: custom function    //
  //<<<<<<<<<<<<<<<<<<<<<<<<<<<<<<<<<<<//

    Naive listing of computations required.
             hf / aug-cc-pvqz              for  HF TOTAL ENERGY
            mp2 / aug-cc-pvtz              for  MP2 TOTAL ENERGY
            mp2 / aug-cc-pvqz              for  MP2 TOTAL ENERGY
             hf / aug-cc-pvtz              for  HF TOTAL ENERGY
             hf / aug-cc-pvqz              for  HF TOTAL ENERGY
        ccsd(t) / aug-cc-pvdz              for  CCSD(T) TOTAL ENERGY
        ccsd(t) / aug-cc-pvtz              for  CCSD(T) TOTAL ENERGY
            mp2 / aug-cc-pvdz              for  MP2 TOTAL ENERGY
            mp2 / aug-cc-pvtz              for  MP2 TOTAL ENERGY

    Enlightened listing of computations required.
            mp2 / aug-cc-pvqz              for  MP2 TOTAL ENERGY
        ccsd(t) / aug-cc-pvdz              for  CCSD(T) TOTAL ENERGY
        ccsd(t) / aug-cc-pvtz              for  CCSD(T) TOTAL ENERGY

    Full listing of computations to be obtained (required and bonus).
             hf / aug-cc-pvqz              for  HF TOTAL ENERGY
            mp2 / aug-cc-pvqz              for  MP2 TOTAL ENERGY
             hf / aug-cc-pvdz              for  HF TOTAL ENERGY
            mp2 / aug-cc-pvdz              for  MP2 TOTAL ENERGY
           ccsd / aug-cc-pvdz              for  CCSD TOTAL ENERGY
        ccsd(t) / aug-cc-pvdz              for  CCSD(T) TOTAL ENERGY
             hf / aug-cc-pvtz              for  HF TOTAL ENERGY
            mp2 / aug-cc-pvtz              for  MP2 TOTAL ENERGY
           ccsd / aug-cc-pvtz              for  CCSD TOTAL ENERGY
        ccsd(t) / aug-cc-pvtz              for  CCSD(T) TOTAL ENERGY

  //>>>>>>>>>>>>>>>>>>>>>>>>>>>>>>>>>>>>//
  // CBS Computation: MP2 / AUG-CC-PVQZ //
  //<<<<<<<<<<<<<<<<<<<<<<<<<<<<<<<<<<<<//


Scratch directory: /scratch/liuchw/

*** tstart() called on node37.bme.utexas.edu
*** at Wed Apr 15 15:14:48 2020

   => Loading Basis Set <=

    Name: AUG-CC-PVQZ
    Role: ORBITAL
    Keyword: BASIS
    atoms 1-2       entry C          line   303 file /home/liuchw/anaconda3/envs/psi4env/share/psi4/basis/aug-cc-pvqz.gbs 
    atoms 3-6, 8-10 entry H          line    40 file /home/liuchw/anaconda3/envs/psi4env/share/psi4/basis/aug-cc-pvqz.gbs 
    atoms 7         entry N          line   363 file /home/liuchw/anaconda3/envs/psi4env/share/psi4/basis/aug-cc-pvqz.gbs 


         ---------------------------------------------------------
                                   SCF
               by Justin Turney, Rob Parrish, Andy Simmonett
                          and Daniel G. A. Smith
                              RHF Reference
                        8 Threads,  47683 MiB Core
         ---------------------------------------------------------

  ==> Geometry <==

    Molecular point group: c1
    Full point group: C1

    Geometry (in Angstrom), charge = 0, multiplicity = 1:

       Center              X                  Y                   Z               Mass       
    ------------   -----------------  -----------------  -----------------  -----------------
      Gh(C)          -1.613600723611    -0.608344369244     0.000318382272    12.000000000000
      Gh(C)          -1.231863723611     0.668735630756    -0.000149617728    12.000000000000
      Gh(H)          -1.777294723611    -1.146425369244    -0.922364617728     1.007825032230
      Gh(H)          -1.776227723611    -1.146067369244     0.923399382272     1.007825032230
      Gh(H)          -1.069188723611     1.208119630756     0.921798382272     1.007825032230
      Gh(H)          -1.070243723611     1.207631630756    -0.922567617728     1.007825032230
         N            2.355435276389     0.018529630756    -0.000364617728    14.003074004430
         H            2.738808276389    -0.451660369244     0.809093382272     1.007825032230
         H            1.364775276389    -0.190436369244    -0.001806617728     1.007825032230
         H            2.742586276389    -0.457687369244    -0.804495617728     1.007825032230

  Running in c1 symmetry.

  Rotational constants: A =      0.81887  B =      0.10697  C =      0.09993 [cm^-1]
  Rotational constants: A =  24549.05603  B =   3207.00988  C =   2995.96872 [MHz]
  Nuclear repulsion =   11.964915390055808

  Charge       = 0
  Multiplicity = 1
  Electrons    = 10
  Nalpha       = 5
  Nbeta        = 5

  ==> Algorithm <==

  SCF Algorithm Type is DF.
  DIIS enabled.
  MOM disabled.
  Fractional occupation disabled.
  Guess Type is SAD.
  Energy threshold   = 1.00e-07
  Density threshold  = 1.00e-08
  Integral threshold = 0.00e+00

  ==> Primary Basis <==

  Basis Set: AUG-CC-PVQZ
    Blend: AUG-CC-PVQZ
    Number of shells: 158
    Number of basis function: 562
    Number of Cartesian functions: 700
    Spherical Harmonics?: true
    Max angular momentum: 4

   => Loading Basis Set <=

    Name: (AUG-CC-PVQZ AUX)
    Role: JKFIT
    Keyword: DF_BASIS_SCF
    atoms 1-2       entry C          line   178 file /home/liuchw/anaconda3/envs/psi4env/share/psi4/basis/aug-cc-pvqz-jkfit.gbs 
    atoms 3-6, 8-10 entry H          line    70 file /home/liuchw/anaconda3/envs/psi4env/share/psi4/basis/aug-cc-pvqz-jkfit.gbs 
    atoms 7         entry N          line   248 file /home/liuchw/anaconda3/envs/psi4env/share/psi4/basis/aug-cc-pvqz-jkfit.gbs 

  ==> Pre-Iterations <==

   -------------------------------------------------------
    Irrep   Nso     Nmo     Nalpha   Nbeta   Ndocc  Nsocc
   -------------------------------------------------------
     A        562     562       0       0       0       0
   -------------------------------------------------------
    Total     562     562       5       5       5       0
   -------------------------------------------------------

  ==> Integral Setup <==

  DFHelper Memory: AOs need 2.202 GiB; user supplied 34.925 GiB. Using in-core AOs.

  ==> MemDFJK: Density-Fitted J/K Matrices <==

    J tasked:                   Yes
    K tasked:                   Yes
    wK tasked:                   No
    OpenMP threads:               8
    Memory [MiB]:             35762
    Algorithm:                 Core
    Schwarz Cutoff:           1E-12
    Mask sparsity (%):       6.8983
    Fitting Condition:        1E-10

   => Auxiliary Basis Set <=

  Basis Set: (AUG-CC-PVQZ AUX)
    Blend: AUG-CC-PVQZ-JKFIT
    Number of shells: 228
    Number of basis function: 958
    Number of Cartesian functions: 1301
    Spherical Harmonics?: true
    Max angular momentum: 5

  Minimum eigenvalue in the overlap matrix is 1.9522972319E-06.
  Using Symmetric Orthogonalization.

  SCF Guess: Superposition of Atomic Densities via on-the-fly atomic UHF.

  ==> Iterations <==

                           Total Energy        Delta E     RMS |[F,P]|

   @DF-RHF iter SAD:   -55.64851682115429   -5.56485e+01   0.00000e+00 
   @DF-RHF iter   1:   -56.12576385171331   -4.77247e-01   8.31697e-04 DIIS
   @DF-RHF iter   2:   -56.19485369581494   -6.90898e-02   4.82860e-04 DIIS
   @DF-RHF iter   3:   -56.22321940111058   -2.83657e-02   4.37575e-05 DIIS
   @DF-RHF iter   4:   -56.22385749885272   -6.38098e-04   8.28259e-06 DIIS
   @DF-RHF iter   5:   -56.22387915123905   -2.16524e-05   1.54652e-06 DIIS
   @DF-RHF iter   6:   -56.22388039920995   -1.24797e-06   3.74890e-07 DIIS
   @DF-RHF iter   7:   -56.22388047295367   -7.37437e-08   8.02238e-08 DIIS
   @DF-RHF iter   8:   -56.22388047633972   -3.38606e-09   1.14364e-08 DIIS
   @DF-RHF iter   9:   -56.22388047640504   -6.53131e-11   2.74651e-09 DIIS
  Energy and wave function converged.


  ==> Post-Iterations <==

    Orbital Energies [Eh]
    ---------------------

    Doubly Occupied:                                                      

       1A    -15.540608     2A     -1.143735     3A     -0.628027  
       4A     -0.627594     5A     -0.432001  

    Virtual:                                                              

       6A      0.017947     7A      0.034409     8A      0.034795  
       9A      0.036978    10A      0.053220    11A      0.054679  
      12A      0.062912    13A      0.082707    14A      0.089019  
      15A      0.090442    16A      0.101128    17A      0.103756  
      18A      0.111409    19A      0.123862    20A      0.134918  
      21A      0.140392    22A      0.149720    23A      0.151152  
      24A      0.169986    25A      0.185113    26A      0.187548  
      27A      0.194248    28A      0.213465    29A      0.222050  
      30A      0.225839    31A      0.240673    32A      0.247803  
      33A      0.252002    34A      0.255007    35A      0.261630  
      36A      0.262016    37A      0.274360    38A      0.277868  
      39A      0.284707    40A      0.289900    41A      0.304565  
      42A      0.306430    43A      0.321177    44A      0.325606  
      45A      0.329785    46A      0.330778    47A      0.331988  
      48A      0.337477    49A      0.351880    50A      0.356673  
      51A      0.365167    52A      0.370868    53A      0.383115  
      54A      0.393765    55A      0.401300    56A      0.414640  
      57A      0.416079    58A      0.421100    59A      0.439920  
      60A      0.442868    61A      0.463374    62A      0.471640  
      63A      0.472505    64A      0.488164    65A      0.493214  
      66A      0.495121    67A      0.518135    68A      0.521798  
      69A      0.530981    70A      0.533596    71A      0.542128  
      72A      0.546680    73A      0.561728    74A      0.615077  
      75A      0.623388    76A      0.635098    77A      0.646203  
      78A      0.658674    79A      0.662468    80A      0.666935  
      81A      0.672277    82A      0.699302    83A      0.704988  
      84A      0.707452    85A      0.722903    86A      0.735731  
      87A      0.737764    88A      0.746544    89A      0.754823  
      90A      0.761041    91A      0.765007    92A      0.766953  
      93A      0.774515    94A      0.778209    95A      0.795831  
      96A      0.801815    97A      0.802308    98A      0.811677  
      99A      0.822477   100A      0.831632   101A      0.852377  
     102A      0.854336   103A      0.862972   104A      0.864507  
     105A      0.870900   106A      0.879999   107A      0.886456  
     108A      0.905619   109A      0.911760   110A      0.914630  
     111A      0.922777   112A      0.926603   113A      0.937104  
     114A      0.941372   115A      0.951238   116A      0.980710  
     117A      0.985094   118A      0.993255   119A      1.008427  
     120A      1.019293   121A      1.019612   122A      1.032210  
     123A      1.032857   124A      1.046189   125A      1.062551  
     126A      1.070176   127A      1.078364   128A      1.082858  
     129A      1.102711   130A      1.114004   131A      1.138323  
     132A      1.146893   133A      1.151169   134A      1.166909  
     135A      1.191686   136A      1.213402   137A      1.223614  
     138A      1.266998   139A      1.272008   140A      1.289288  
     141A      1.293723   142A      1.310636   143A      1.312955  
     144A      1.335691   145A      1.338703   146A      1.350709  
     147A      1.411371   148A      1.426141   149A      1.433753  
     150A      1.442659   151A      1.455426   152A      1.464159  
     153A      1.473325   154A      1.478087   155A      1.507022  
     156A      1.514963   157A      1.520475   158A      1.525814  
     159A      1.548944   160A      1.553131   161A      1.572849  
     162A      1.585385   163A      1.589889   164A      1.605484  
     165A      1.629023   166A      1.633457   167A      1.641418  
     168A      1.665159   169A      1.671977   170A      1.679352  
     171A      1.686235   172A      1.697632   173A      1.706757  
     174A      1.733391   175A      1.738623   176A      1.746489  
     177A      1.752310   178A      1.759365   179A      1.779561  
     180A      1.797712   181A      1.814055   182A      1.815058  
     183A      1.832697   184A      1.837040   185A      1.850514  
     186A      1.867140   187A      1.874764   188A      1.888676  
     189A      1.896469   190A      1.904396   191A      1.915814  
     192A      1.920477   193A      1.936253   194A      1.944141  
     195A      1.958088   196A      1.960834   197A      1.961564  
     198A      1.972280   199A      2.008417   200A      2.008928  
     201A      2.029477   202A      2.030380   203A      2.037098  
     204A      2.050573   205A      2.070270   206A      2.081679  
     207A      2.092117   208A      2.107861   209A      2.114522  
     210A      2.116220   211A      2.143976   212A      2.146672  
     213A      2.159548   214A      2.168904   215A      2.172378  
     216A      2.184973   217A      2.209696   218A      2.211448  
     219A      2.225741   220A      2.243333   221A      2.269541  
     222A      2.279309   223A      2.293730   224A      2.307518  
     225A      2.318371   226A      2.343101   227A      2.354645  
     228A      2.363564   229A      2.384729   230A      2.386847  
     231A      2.414971   232A      2.415578   233A      2.444851  
     234A      2.461811   235A      2.481454   236A      2.496998  
     237A      2.542276   238A      2.551106   239A      2.574519  
     240A      2.594381   241A      2.608021   242A      2.622303  
     243A      2.646062   244A      2.648098   245A      2.695107  
     246A      2.696622   247A      2.704974   248A      2.743601  
     249A      2.754748   250A      2.762307   251A      2.815882  
     252A      2.824187   253A      2.832263   254A      2.882290  
     255A      2.903460   256A      2.923198   257A      2.939510  
     258A      2.958675   259A      2.968893   260A      2.969407  
     261A      2.983199   262A      3.012997   263A      3.018158  
     264A      3.026672   265A      3.042369   266A      3.050779  
     267A      3.064242   268A      3.067908   269A      3.076572  
     270A      3.081844   271A      3.093466   272A      3.109057  
     273A      3.117727   274A      3.119083   275A      3.140756  
     276A      3.148487   277A      3.171037   278A      3.189728  
     279A      3.203389   280A      3.221563   281A      3.227560  
     282A      3.231336   283A      3.260784   284A      3.266290  
     285A      3.270638   286A      3.312009   287A      3.319424  
     288A      3.345306   289A      3.356738   290A      3.374291  
     291A      3.409838   292A      3.410668   293A      3.437728  
     294A      3.472100   295A      3.488161   296A      3.525755  
     297A      3.535486   298A      3.612347   299A      3.616285  
     300A      3.647408   301A      3.658442   302A      3.682584  
     303A      3.701791   304A      3.703808   305A      3.725112  
     306A      3.732181   307A      3.746274   308A      3.793371  
     309A      3.822488   310A      3.832062   311A      3.856841  
     312A      3.903116   313A      3.930139   314A      3.969987  
     315A      3.982253   316A      3.996533   317A      4.010739  
     318A      4.022342   319A      4.028063   320A      4.092064  
     321A      4.094587   322A      4.132488   323A      4.185325  
     324A      4.188985   325A      4.205054   326A      4.254967  
     327A      4.261889   328A      4.286903   329A      4.306640  
     330A      4.325962   331A      4.326222   332A      4.351119  
     333A      4.355732   334A      4.412781   335A      4.416891  
     336A      4.451987   337A      4.471200   338A      4.520249  
     339A      4.534746   340A      4.592740   341A      4.605495  
     342A      4.644022   343A      4.712135   344A      4.788117  
     345A      4.789095   346A      4.822923   347A      4.839984  
     348A      4.843245   349A      4.959728   350A      4.980228  
     351A      4.989868   352A      4.995118   353A      5.013292  
     354A      5.030253   355A      5.053315   356A      5.117267  
     357A      5.127845   358A      5.154555   359A      5.168542  
     360A      5.223645   361A      5.236161   362A      5.296963  
     363A      5.398658   364A      5.428240   365A      5.436158  
     366A      5.498240   367A      5.529267   368A      5.582627  
     369A      5.643442   370A      5.719250   371A      5.912817  
     372A      5.973959   373A      6.178757   374A      6.481327  
     375A      6.530705   376A      6.593127   377A      6.624921  
     378A      6.641282   379A      6.708414   380A      6.753754  
     381A      6.767766   382A      6.810183   383A      6.856297  
     384A      6.879724   385A      6.939665   386A      6.958849  
     387A      6.960713   388A      6.975272   389A      6.994587  
     390A      7.016921   391A      7.078726   392A      7.135693  
     393A      7.178929   394A      7.181887   395A      7.201369  
     396A      7.208144   397A      7.237475   398A      7.267653  
     399A      7.279389   400A      7.297746   401A      7.307929  
     402A      7.334747   403A      7.340482   404A      7.356589  
     405A      7.361049   406A      7.417322   407A      7.443221  
     408A      7.445309   409A      7.470666   410A      7.522239  
     411A      7.564981   412A      7.568317   413A      7.601263  
     414A      7.638363   415A      7.659475   416A      7.727303  
     417A      7.750889   418A      7.775402   419A      7.816435  
     420A      7.824559   421A      7.863963   422A      7.888973  
     423A      7.910189   424A      7.920513   425A      7.940617  
     426A      7.961841   427A      7.982748   428A      8.039913  
     429A      8.107826   430A      8.129054   431A      8.138163  
     432A      8.185792   433A      8.211135   434A      8.268937  
     435A      8.345120   436A      8.365246   437A      8.413279  
     438A      8.454296   439A      8.476127   440A      8.549957  
     441A      8.560435   442A      8.593018   443A      8.594400  
     444A      8.622906   445A      8.655244   446A      8.663666  
     447A      8.710538   448A      8.743645   449A      8.865520  
     450A      8.911483   451A      8.918556   452A      8.944310  
     453A      8.964188   454A      8.973678   455A      8.989832  
     456A      9.007794   457A      9.019243   458A      9.023076  
     459A      9.031680   460A      9.052307   461A      9.089403  
     462A      9.098719   463A      9.127246   464A      9.147973  
     465A      9.187351   466A      9.245422   467A      9.337701  
     468A      9.342733   469A      9.355539   470A      9.363924  
     471A      9.405896   472A      9.409511   473A      9.440366  
     474A      9.460961   475A      9.482137   476A      9.548535  
     477A      9.552808   478A      9.564069   479A      9.579060  
     480A      9.598364   481A      9.626859   482A      9.669613  
     483A      9.689869   484A      9.735538   485A      9.761620  
     486A      9.776832   487A      9.788134   488A      9.800419  
     489A      9.856722   490A      9.886245   491A      9.912776  
     492A      9.947054   493A      9.955275   494A      9.979675  
     495A     10.028069   496A     10.158988   497A     10.159564  
     498A     10.174177   499A     10.181118   500A     10.203647  
     501A     10.212138   502A     10.228854   503A     10.255072  
     504A     10.329922   505A     10.365410   506A     10.385542  
     507A     10.460220   508A     10.476466   509A     10.490690  
     510A     10.549569   511A     10.586571   512A     10.616798  
     513A     10.670235   514A     10.671602   515A     10.693311  
     516A     10.833549   517A     10.867623   518A     10.917656  
     519A     11.005553   520A     11.023444   521A     11.036194  
     522A     11.050022   523A     11.153459   524A     11.204660  
     525A     11.235980   526A     11.296634   527A     11.392112  
     528A     11.764572   529A     11.803672   530A     11.804613  
[...]
     173A      2.168955   174A      2.198519   175A      2.222051  
     176A      2.314094   177A      2.325088   178A      2.356695  
     179A      2.376899   180A      2.394085   181A      2.397699  
     182A      2.444125   183A      2.482990   184A      2.506863  
     185A      2.525983   186A      2.575488   187A      2.644172  
     188A      2.732103   189A      3.037557   190A      3.081895  
     191A      3.145638   192A      3.256000   193A      3.300750  
     194A      3.320151   195A      3.376289   196A      3.378692  
     197A      3.407232   198A      3.428368   199A      3.489375  
     200A      3.491655   201A      3.502438   202A      3.564719  
     203A      3.604680   204A      3.615276   205A      3.623995  
     206A      3.667575   207A      3.712490   208A      3.728444  
     209A      3.750682   210A      3.761360   211A      3.812484  
     212A      3.848897   213A      3.852730   214A      3.880380  
     215A      3.898136   216A      4.006941   217A      4.027120  
     218A      4.034490   219A      4.035409   220A      4.092100  
     221A      4.108232   222A      4.111536   223A      4.148669  
     224A      4.157859   225A      4.192332   226A      4.231263  
     227A      4.240951   228A      4.245148   229A      4.290293  
     230A      4.307442   231A      4.309135   232A      4.326784  
     233A      4.347440   234A      4.362602   235A      4.379223  
     236A      4.379749   237A      4.403525   238A      4.444640  
     239A      4.517418   240A      4.525375   241A      4.562925  
     242A      4.570271   243A      4.589702   244A      4.624949  
     245A      4.710632   246A      4.727877   247A      4.734703  
     248A      4.782128   249A      4.794386   250A      4.811469  
     251A      4.841581   252A      4.919248   253A      4.945613  
     254A      4.964595   255A      4.973134   256A      4.975685  
     257A      4.990554   258A      4.993384   259A      5.027949  
     260A      5.067920   261A      5.094275   262A      5.117372  
     263A      5.171702   264A      5.180472   265A      5.259493  
     266A      5.287426   267A      5.294021   268A      5.295796  
     269A      5.350187   270A      5.395150   271A      5.506060  
     272A      5.584385   273A      5.594256   274A      5.621708  
     275A      5.679759   276A      5.734527   277A      5.759680  
     278A      5.812221   279A      5.926291   280A      5.938959  
     281A      6.004865   282A      6.088461   283A      6.112480  
     284A      6.366859   285A      6.379461   286A      6.420670  
     287A      6.484524   288A      6.600595   289A      6.686459  
     290A      6.711282   291A      6.759515   292A      6.974520  
     293A      6.986464   294A      6.990841   295A      7.726682  
     296A      7.731811   297A     17.294992   298A     17.371612  
     299A     17.775370  

    Final Occupation by Irrep:
              A 
    DOCC [    13 ]

  @DF-RHF Final Energy:  -134.28524878487613

   => Energetics <=

    Nuclear Repulsion Energy =             67.4442880739727428
    One-Electron Energy =                -313.9000409827220892
    Two-Electron Energy =                 112.1705041238732008
    Total Energy =                       -134.2852487848761314

Computation Completed


Properties will be evaluated at   0.000000,   0.000000,   0.000000 [a0]

Properties computed using the SCF density matrix

  Nuclear Dipole Moment: [e a0]
     X:     1.0743      Y:    -0.9155      Z:     0.0029

  Electronic Dipole Moment: [e a0]
     X:    -1.2696      Y:     0.3152      Z:    -0.0008

  Dipole Moment: [e a0]
     X:    -0.1954      Y:    -0.6003      Z:     0.0021     Total:     0.6313

  Dipole Moment: [D]
     X:    -0.4966      Y:    -1.5258      Z:     0.0052     Total:     1.6046


*** tstop() called on node37.bme.utexas.edu at Wed Apr 15 23:37:37 2020
Module time:
	user time   =      24.21 seconds =       0.40 minutes
	system time =       1.68 seconds =       0.03 minutes
	total time  =          4 seconds =       0.07 minutes
Total time:
	user time   =   11608.46 seconds =     193.47 minutes
	system time =    3459.16 seconds =      57.65 minutes
	total time  =      30385 seconds =     506.42 minutes
 MINTS: Wrapper to libmints.
   by Justin Turney

   Calculation information:
      Number of threads:                 8
      Number of atoms:                  10
      Number of AO shells:             105
      Number of SO shells:             105
      Number of primitives:            167
      Number of atomic orbitals:       340
      Number of basis functions:       299

      Number of irreps:                  1
      Integral cutoff                 0.00e+00
      Number of functions per irrep: [ 299 ]

 OEINTS: Overlap, kinetic, potential, dipole, and quadrupole integrals
         stored in file 35.

      Computing two-electron integrals...done
      Computed 1004411494 non-zero two-electron integrals.
        Stored in file 33.


*** tstart() called on node37.bme.utexas.edu
*** at Wed Apr 15 23:39:17 2020


	Wfn Parameters:
	--------------------
	Wavefunction         = CCSD_T
	Number of irreps     = 1
	Number of MOs        = 299
	Number of active MOs = 299
	AO-Basis             = NONE
	Semicanonical        = false
	Reference            = RHF
	Print Level          = 1

	IRREP	# MOs	# FZDC	# DOCC	# SOCC	# VIRT	# FZVR
	-----	-----	------	------	------	------	------
	 A	   299	    0	    13	    0	    286	    0
	Transforming integrals...
	IWL integrals will be deleted.
	(OO|OO)...
	Presorting SO-basis two-electron integrals.
	Sorting File: SO Ints (nn|nn) nbuckets = 1
	Transforming the one-electron integrals and constructing Fock matrices
	Starting first half-transformation.
	Sorting half-transformed integrals.
	First half integral transformation complete.
	Starting second half-transformation.
	Two-electron integral transformation complete.
	(OO|OV)...
	Starting second half-transformation.
	Two-electron integral transformation complete.
	(OO|VV)...
	Starting second half-transformation.
	Two-electron integral transformation complete.
	(OV|OO)...
	Starting first half-transformation.
	Sorting half-transformed integrals.
	First half integral transformation complete.
	Starting second half-transformation.
	Two-electron integral transformation complete.
	(OV|OV)...
	Starting second half-transformation.
	Two-electron integral transformation complete.
	(OV|VV)...
	Starting second half-transformation.
	Two-electron integral transformation complete.
	(VV|OO)...
	Starting first half-transformation.
	Sorting half-transformed integrals.
	First half integral transformation complete.
	Starting second half-transformation.
	Two-electron integral transformation complete.
	(VV|OV)...
	Starting second half-transformation.
	Two-electron integral transformation complete.
	(VV|VV)...
	Starting second half-transformation.
	Two-electron integral transformation complete.
	Frozen core energy     =      0.00000000000000

	Size of irrep 0 of <ab|cd> integrals:   6690.586 (MW) /  53524.685 (MB)
	Total:                                  6690.586 (MW) /  53524.685 (MB)

	Size of irrep 0 of <ia|bc> integrals:    304.118 (MW) /   2432.940 (MB)
	Total:                                   304.118 (MW) /   2432.940 (MB)

	Size of irrep 0 of tijab amplitudes:      13.824 (MW) /    110.588 (MB)
	Total:                                    13.824 (MW) /    110.588 (MB)

	Nuclear Rep. energy          =     67.44428807397274
	SCF energy                   =   -134.28524878487613
	One-electron energy          =   -313.90003960135192
	Two-electron energy          =    112.17047968584777
	Reference energy             =   -134.28527184153143

*** tstop() called on node37.bme.utexas.edu at Thu Apr 16 01:32:59 2020
Module time:
	user time   =    1741.07 seconds =      29.02 minutes
	system time =     489.84 seconds =       8.16 minutes
	total time  =       6822 seconds =     113.70 minutes
Total time:
	user time   =   13427.59 seconds =     223.79 minutes
	system time =    3972.16 seconds =      66.20 minutes
	total time  =      37307 seconds =     621.78 minutes
            **************************
            *                        *
            *        CCENERGY        *
            *                        *
            **************************

    Nuclear Rep. energy (wfn)     =   67.444288073972743
    SCF energy          (wfn)     = -134.285248784876131
    Reference energy    (file100) = -134.285271841531426

    Input parameters:
    -----------------
    Wave function   =     CCSD_T
    Reference wfn   =     RHF
    Brueckner       =     No
    Memory (Mbytes) =     50000.0
    Maxiter         =     50
    R_Convergence   =     1.0e-07
    E_Convergence   =     1.0e-07
    Restart         =     Yes
    DIIS            =     Yes
    AO Basis        =     NONE
    ABCD            =     NEW
    Cache Level     =     2
    Cache Type      =     LOW
    Print Level     =     1
    Num. of threads =     8
    # Amps to Print =     10
    Print MP2 Amps? =     No
    Analyze T2 Amps =     No
    Print Pair Ener =     No
    Local CC        =     No
    SCS-MP2         =     False
    SCSN-MP2        =     False
    SCS-CCSD        =     False

MP2 correlation energy -0.6353736686556481
                Solving CC Amplitude Equations
                ------------------------------
  Iter             Energy              RMS        T1Diag      D1Diag    New D1Diag    D2Diag
  ----     ---------------------    ---------   ----------  ----------  ----------   --------
     0        -0.635373668655648    0.000e+00    0.000000    0.000000    0.000000    0.165287
     1        -0.654504037635599    6.234e-02    0.006897    0.022594    0.022594    0.173282
     2        -0.669473351061532    2.311e-02    0.007398    0.025155    0.025155    0.186054
     3        -0.671792537996866    8.730e-03    0.008458    0.029474    0.029474    0.191646
     4        -0.671715202542119    2.639e-03    0.008618    0.030426    0.030426    0.193697
     5        -0.671776153201932    8.923e-04    0.008674    0.030745    0.030745    0.194385
     6        -0.671783025531607    2.256e-04    0.008683    0.030827    0.030827    0.194488
     7        -0.671778966529624    7.153e-05    0.008684    0.030836    0.030836    0.194498
     8        -0.671778286346536    2.466e-05    0.008684    0.030840    0.030840    0.194501
     9        -0.671778740451700    1.026e-05    0.008685    0.030842    0.030842    0.194502
    10        -0.671778197041821    5.001e-06    0.008685    0.030842    0.030842    0.194501
    11        -0.671778272193126    2.000e-06    0.008685    0.030842    0.030842    0.194501
    12        -0.671778237390256    7.840e-07    0.008685    0.030842    0.030842    0.194501
    13        -0.671778228699457    2.711e-07    0.008685    0.030842    0.030842    0.194501
    14        -0.671778229548666    1.057e-07    0.008685    0.030842    0.030842    0.194501
    15        -0.671778228745300    4.426e-08    0.008685    0.030842    0.030842    0.194501

    Iterations converged.


    Largest TIA Amplitudes:
             12  85        -0.0088634053
             12  83         0.0081535949
              6  43        -0.0074132810
             11  12        -0.0067745885
             12  41        -0.0065609820
             11   7         0.0065181421
             12  65         0.0064810743
             12   6         0.0063949851
             12  19        -0.0063753433
             12   9         0.0059375898

    Largest TIjAb Amplitudes:
     12  12  15  15        -0.0609228521
     12  12   7  15         0.0383490577
     12  12  15   7         0.0383490577
     12  12  12  15         0.0279001031
     12  12  15  12         0.0279001031
     12  12   7   7        -0.0245364206
     12  12  15  38        -0.0243882540
     12  12  38  15        -0.0243882540
     12  12  15  36         0.0207656861
     12  12  36  15         0.0207656861

    SCF energy       (wfn)                    = -134.285248784876131
    Reference energy (file100)                = -134.285271841531426

    Opposite-spin MP2 correlation energy      =   -0.501651858709512
    Same-spin MP2 correlation energy          =   -0.133721809946136
    MP2 correlation energy                    =   -0.635373668655648
      * MP2 total energy                      = -134.920645510187086

    Opposite-spin CCSD correlation energy     =   -0.548589614288298
    Same-spin CCSD correlation energy         =   -0.123188614456998
    CCSD correlation energy                   =   -0.671778228745300
      * CCSD total energy                     = -134.957050070276722

            **************************
            *                        *
            *        CCTRIPLES       *
            *                        *
            **************************


    Wave function   =    CCSD_T
    Reference wfn   =      RHF

    Nuclear Rep. energy (wfn)                =   67.444288073972743
    SCF energy          (wfn)                = -134.285248784876131
    Reference energy    (file100)            = -134.285271841531426
    CCSD energy         (file100)            =   -0.671778228745300
    Total CCSD energy   (file100)            = -134.957050070276722

    Number of ijk index combinations:              455
    Memory available in words        :      6250000000
    ~Words needed per explicit thread:        93574624
    Number of threads for explicit ijk threading:    8

    MKL num_threads set to 1 for explicit threading.

    (T) energy                                =   -0.024735717627783
      * CCSD(T) total energy                  = -134.981785787904499


  //>>>>>>>>>>>>>>>>>>>>>>>>>>>>>>>>>>>//
  //    CBS Results: custom function   //
  //<<<<<<<<<<<<<<<<<<<<<<<<<<<<<<<<<<<//


   ==> HF <==

   HI-zeta (4) Energy:               -134.293554495360


   ==> Helgaker 2-point correlated extrapolation for method: MP2 <==

   LO-zeta (3) Energy:               -134.920645510187
   HI-zeta (4) Energy:               -134.995423728577
   Alpha (exponent) Value:             3.000000000000
   Extrapolated Energy:              -135.049991617672

   @Extrapolated MP2/(T,Q):          -135.049991617672



   ==> Helgaker 2-point correlated extrapolation for method: HF <==

   LO-zeta (3) Energy:               -134.285248784876
   HI-zeta (4) Energy:               -134.293554495360
   Alpha (exponent) Value:             3.000000000000
   Extrapolated Energy:              -134.299615419226

   @Extrapolated HF/(T,Q):           -134.299615419226



   ==> Helgaker 2-point correlated extrapolation for method: CCSD(T) <==

   LO-zeta (2) Energy:               -134.804710219867
   HI-zeta (3) Energy:               -134.981785787904
   Alpha (exponent) Value:             3.000000000000
   Extrapolated Energy:              -135.056343921815

   @Extrapolated CCSD(T)/(D,T):      -135.056343921815



   ==> Helgaker 2-point correlated extrapolation for method: MP2 <==

   LO-zeta (2) Energy:               -134.744596774641
   HI-zeta (3) Energy:               -134.920645510187
   Alpha (exponent) Value:             3.000000000000
   Extrapolated Energy:              -134.994771293575

   @Extrapolated MP2/(D,T):          -134.994771293575


   ==> Components <==

  ---------------------------------------------------------------------------------------------------------
                          Method / Basis                      Rqd      Energy [Eh]   Variable
  ---------------------------------------------------------------------------------------------------------
                              hf / aug-cc-pvqz                  *    -134.29355450   HF TOTAL ENERGY
                             mp2 / aug-cc-pvqz                  *    -134.99542373   MP2 TOTAL ENERGY
                              hf / aug-cc-pvdz                       -134.24941200   HF TOTAL ENERGY
                             mp2 / aug-cc-pvdz                  *    -134.74459677   MP2 TOTAL ENERGY
                            ccsd / aug-cc-pvdz                       -134.78760664   CCSD TOTAL ENERGY
                         ccsd(t) / aug-cc-pvdz                  *    -134.80471022   CCSD(T) TOTAL ENERGY
                              hf / aug-cc-pvtz                  *    -134.28524878   HF TOTAL ENERGY
                             mp2 / aug-cc-pvtz                  *    -134.92064551   MP2 TOTAL ENERGY
                            ccsd / aug-cc-pvtz                       -134.95705007   CCSD TOTAL ENERGY
                         ccsd(t) / aug-cc-pvtz                  *    -134.98178579   CCSD(T) TOTAL ENERGY
  ---------------------------------------------------------------------------------------------------------

   ==> Stages <==

  ---------------------------------------------------------------------------------------------------------
      Stage               Method / Basis                       Wt      Energy [Eh]   Scheme
  ---------------------------------------------------------------------------------------------------------
        scf                   hf / aug-cc-pvqz                  1    -134.29355450   xtpl_highest_1
       corl                  mp2 / aug-cc-pv[tq]z               1    -135.04999162   corl_xtpl_helgaker_2
       corl                   hf / aug-cc-pv[tq]z              -1    -134.29961542   corl_xtpl_helgaker_2
     delta1              ccsd(t) / aug-cc-pv[dt]z               1    -135.05634392   corl_xtpl_helgaker_2
     delta1                  mp2 / aug-cc-pv[dt]z              -1    -134.99477129   corl_xtpl_helgaker_2
  ---------------------------------------------------------------------------------------------------------

   ==> CBS <==

  ---------------------------------------------------------------------------------------------------------
      Stage               Method / Basis                               Energy [Eh]   Scheme
  ---------------------------------------------------------------------------------------------------------
        scf                   hf / aug-cc-pvqz                       -134.29355450   xtpl_highest_1
       corl                  mp2 / aug-cc-pv[tq]z                      -0.75037620   corl_xtpl_helgaker_2
     delta1        ccsd(t) - mp2 / aug-cc-pv[dt]z                      -0.06157263   corl_xtpl_helgaker_2
      total                  CBS                                     -135.10550332   
  ---------------------------------------------------------------------------------------------------------
   => Loading Basis Set <=

    Name: DEF2-SVP
    Role: ORBITAL
    Keyword: BASIS
    atoms 1-2       entry C          line    90 file /home/liuchw/anaconda3/envs/psi4env/share/psi4/basis/def2-svp.gbs 
    atoms 3-6, 8-10 entry H          line    15 file /home/liuchw/anaconda3/envs/psi4env/share/psi4/basis/def2-svp.gbs 
    atoms 7         entry N          line   110 file /home/liuchw/anaconda3/envs/psi4env/share/psi4/basis/def2-svp.gbs 


       N-Body: Complex Energy (fragments = (1, 2), basis = (1, 2):  -135.10550332204573)

   ==> N-Body: Counterpoise Corrected (CP) energies <==

   n-Body     Total Energy [Eh]       I.E. [kcal/mol]      Delta [kcal/mol]
        1     -135.103487463792        0.000000000000        0.000000000000
        2     -135.105687556140       -1.380578791559       -1.380578791559

   => Loading Basis Set <=

    Name: DEF2-SVP
    Role: ORBITAL
    Keyword: BASIS
    atoms 1-2       entry C          line    90 file /home/liuchw/anaconda3/envs/psi4env/share/psi4/basis/def2-svp.gbs 
    atoms 3-6, 8-10 entry H          line    15 file /home/liuchw/anaconda3/envs/psi4env/share/psi4/basis/def2-svp.gbs 
    atoms 7         entry N          line   110 file /home/liuchw/anaconda3/envs/psi4env/share/psi4/basis/def2-svp.gbs 


    Psi4 stopped on: Thursday, 16 April 2020 02:29AM
    Psi4 wall time for execution: 11:18:17.28

*** Psi4 exiting successfully. Buy a developer a beer!
