    -----------------------------------------------------------------------
          PSI4: An Open-Source Ab Initio Electronic Structure Package
                              PSI 4.0.0-beta4 Driver

    J. M. Turney, A. C. Simmonett, R. M. Parrish, E. G. Hohenstein,
    F. A. Evangelista, J. T. Fermann, B. J. Mintz, L. A. Burns, J. J. Wilke,
    M. L. Abrams, N. J. Russ, M. L. Leininger, C. L. Janssen, E. T. Seidl,
    W. D. Allen, H. F. Schaefer, R. A. King, E. F. Valeev, C. D. Sherrill,
    and T. D. Crawford, WIREs Comput. Mol. Sci., (2011) (doi: 10.1002/wcms.93)

                         Additional Contributions by
    A. E. DePrince, M. Saitow, U. Bozkaya, A. Yu. Sokolov
    -----------------------------------------------------------------------

    Process ID:  23260
    PSI4DATADIR: /home/xzhu216/psi4/psi4-install/share/psi

    Using LocalCommunicator (Number of processes = 1)

    Memory level set to 256.000 MB

  ==> Input File <==

--------------------------------------------------------------------------
#psi4
#
memory 7 gb

molecule Water_Water {
0 1
    O    -0.702196054    -0.056060256     0.009942262
    H    -1.022193224     0.846775782    -0.011488714
    H     0.257521062     0.042121496     0.005218999
--
0 1
    O     1.665472867     0.031074520     0.001921320
    H     2.042094482    -0.407305547     0.768045702
    H     2.037737184    -0.445138455    -0.743481182
units angstrom
no_reorient  #important for SAPT in psi4, default
symmetry c1  #important for SAPT in psi4, default
}

set {
basis aug-cc-pVTZ
scf_type DF
freeze_core True
}
energy('sapt2+')
--------------------------------------------------------------------------

  Memory set to   7.000 GiB by Python script.

  //>>>>>>>>>>>>>>>>>>>>>>>>>>>>>>>>>>>//
  //              Dimer HF             //
  //<<<<<<<<<<<<<<<<<<<<<<<<<<<<<<<<<<<//


  No DF_BASIS_SCF auxiliary basis selected, defaulting to aug-cc-pvtz-jkfit


*** tstart() called on node51.bme.utexas.edu
*** at Thu Feb 13 13:47:23 2014


         ---------------------------------------------------------
                                   SCF
            by Justin Turney, Rob Parrish, and Andy Simmonett
                              RHF Reference
                        4 Threads,   7000 MiB Core
         ---------------------------------------------------------

  ==> Geometry <==

    Molecular point group: c1
    Full point group: C1

    Geometry (in Angstrom), charge = 0, multiplicity = 1:

       Center              X                  Y                   Z       
    ------------   -----------------  -----------------  -----------------
           O         -1.222685873215    -0.045985441680     0.004162461442
           H         -1.542683043215     0.856850596320    -0.017268514558
           H         -0.262968757215     0.052196310320    -0.000560801558
           O          1.144983047785     0.041149334320    -0.003858480558
           H          1.521604662785    -0.397230732680     0.762265901442
           H          1.517247364785    -0.435063640680    -0.749260982558

  Running in c1 symmetry.

  Nuclear repulsion =   40.931778001248752

  Charge       = 0
  Multiplicity = 1
  Electrons    = 20
  Nalpha       = 10
  Nbeta        = 10

  ==> Algorithm <==

  SCF Algorithm Type is DF.
  DIIS enabled.
  MOM disabled.
  Fractional occupation disabled.
  Guess Type is CORE.
  Energy threshold   = 1.00e-08
  Density threshold  = 1.00e-08
  Integral threshold = 0.00e+00

  ==> Primary Basis <==

  Basis Set: AUG-CC-PVTZ
    Number of shells: 64
    Number of basis function: 184
    Number of Cartesian functions: 210
    Spherical Harmonics?: true
    Max angular momentum: 3

  ==> Pre-Iterations <==

   -------------------------------------------------------
    Irrep   Nso     Nmo     Nalpha   Nbeta   Ndocc  Nsocc
   -------------------------------------------------------
     A        184     184       0       0       0       0
   -------------------------------------------------------
    Total     184     184      10      10      10       0
   -------------------------------------------------------

 OEINTS: Wrapper to libmints.
   by Justin Turney

   Calculation information:
      Number of atoms:                   6
      Number of AO shells:              64
      Number of SO shells:              64
      Number of primitives:            104
      Number of atomic orbitals:       210
      Number of basis functions:       184

      Number of irreps:                  1
      Number of functions per irrep: [ 184 ]

      Overlap, kinetic, potential, dipole, and quadrupole integrals
        stored in file 35.

  ==> Integral Setup <==

  ==> DFJK: Density-Fitted J/K Matrices <==

    J tasked:                  Yes
    K tasked:                  Yes
    wK tasked:                  No
    OpenMP threads:              4
    Integrals threads:           4
    Memory (MB):              5006
    Algorithm:                Core
    Integral Cache:           SAVE
    Schwarz Cutoff:          0E+00
    Fitting Condition:       1E-12

   => Auxiliary Basis Set <=

  Basis Set: aug-cc-pvtz-jkfit
    Number of shells: 116
    Number of basis function: 392
    Number of Cartesian functions: 482
    Spherical Harmonics?: true
    Max angular momentum: 4

  Minimum eigenvalue in the overlap matrix is 1.7647794306E-04.
  Using Symmetric Orthogonalization.
  SCF Guess: Core (One-Electron) Hamiltonian.

  Guess energy:  -120.35240227624107

  ==> Iterations <==

                        Total Energy        Delta E     RMS |[F,P]|

   @RHF iter   1:  -122.78247166947031   -1.22782e+02   6.22471e-02 
   @RHF iter   2:  -122.41358619498124    3.68885e-01   2.40202e-02 DIIS
   @RHF iter   3:  -146.13448233452456   -2.37209e+01   2.45213e-02 DIIS
   @RHF iter   4:  -150.87581905108343   -4.74134e+00   9.76802e-03 DIIS
   @RHF iter   5:  -152.07827835931243   -1.20246e+00   1.10036e-03 DIIS
   @RHF iter   6:  -152.10644199161942   -2.81636e-02   3.39141e-04 DIIS
   @RHF iter   7:  -152.10762121656956   -1.17922e-03   1.08224e-04 DIIS
   @RHF iter   8:  -152.10778871685409   -1.67500e-04   2.09706e-05 DIIS
   @RHF iter   9:  -152.10779996865099   -1.12518e-05   3.67772e-06 DIIS
   @RHF iter  10:  -152.10780047358045   -5.04929e-07   8.83784e-07 DIIS
   @RHF iter  11:  -152.10780050804169   -3.44612e-08   1.96059e-07 DIIS
   @RHF iter  12:  -152.10780050937831   -1.33662e-09   3.93565e-08 DIIS
   @RHF iter  13:  -152.10780050943910   -6.07940e-11   8.03198e-09 DIIS

  ==> Post-Iterations <==

	Orbital Energies (a.u.)
	-----------------------

	Doubly Occupied:                                                      

	   1A    -20.608453     2A    -20.499852     3A     -1.411889  
	   4A     -1.296573     5A     -0.762806     6A     -0.726732  
	   7A     -0.621613     8A     -0.559244     9A     -0.503823  
	  10A     -0.454220  

	Virtual:                                                              

	  11A      0.019516    12A      0.043948    13A      0.050373  
	  14A      0.077496    15A      0.119288    16A      0.136797  
	  17A      0.165247    18A      0.170776    19A      0.179893  
	  20A      0.192671    21A      0.213079    22A      0.217890  
	  23A      0.233902    24A      0.253411    25A      0.279691  
	  26A      0.289167    27A      0.309358    28A      0.322207  
	  29A      0.366987    30A      0.372028    31A      0.390060  
	  32A      0.415643    33A      0.434935    34A      0.450705  
	  35A      0.453540    36A      0.459998    37A      0.532112  
	  38A      0.589814    39A      0.594469    40A      0.628299  
	  41A      0.669675    42A      0.691420    43A      0.725107  
	  44A      0.747095    45A      0.763001    46A      0.797756  
	  47A      0.802595    48A      0.826612    49A      0.842310  
	  50A      0.853746    51A      0.882741    52A      0.916888  
	  53A      0.941154    54A      0.961687    55A      0.965236  
	  56A      0.972267    57A      0.991335    58A      0.997101  
	  59A      1.013458    60A      1.030292    61A      1.031993  
	  62A      1.036024    63A      1.065032    64A      1.071025  
	  65A      1.102523    66A      1.157815    67A      1.169781  
	  68A      1.193148    69A      1.230937    70A      1.245063  
	  71A      1.276010    72A      1.304801    73A      1.340070  
	  74A      1.367315    75A      1.433401    76A      1.511491  
	  77A      1.559342    78A      1.569109    79A      1.592460  
	  80A      1.667077    81A      1.677263    82A      1.772324  
	  83A      1.802375    84A      1.807590    85A      1.832436  
	  86A      1.901031    87A      1.988226    88A      2.037578  
	  89A      2.074297    90A      2.095377    91A      2.137118  
	  92A      2.244370    93A      2.337586    94A      2.383666  
	  95A      2.413992    96A      2.464341    97A      2.478185  
	  98A      2.505605    99A      2.529238   100A      2.556857  
	 101A      2.589739   102A      2.632828   103A      2.649559  
	 104A      2.665259   105A      2.718139   106A      2.745644  
	 107A      2.808454   108A      2.814512   109A      2.815523  
	 110A      2.851327   111A      2.878058   112A      2.955435  
	 113A      2.979867   114A      3.138138   115A      3.200525  
	 116A      3.405028   117A      3.807703   118A      3.854941  
	 119A      3.912878   120A      4.067134   121A      4.127916  
	 122A      4.154041   123A      4.168806   124A      4.224379  
	 125A      4.305236   126A      4.354202   127A      4.384252  
	 128A      4.388022   129A      4.418916   130A      4.466354  
	 131A      4.498942   132A      4.500544   133A      4.572263  
	 134A      4.605934   135A      4.651494   136A      4.695931  
	 137A      4.721843   138A      4.752840   139A      4.774301  
	 140A      4.904895   141A      4.952775   142A      5.100604  
	 143A      5.154875   144A      5.210398   145A      5.302638  
	 146A      5.331695   147A      5.375172   148A      5.392482  
	 149A      5.408404   150A      5.520216   151A      5.756404  
	 152A      5.784980   153A      5.880798   154A      5.972866  
	 155A      6.263448   156A      6.518230   157A      6.524419  
	 158A      6.595720   159A      6.863060   160A      6.932718  
	 161A      7.040100   162A      7.054823   163A      7.182943  
	 164A      7.225594   165A      7.280242   166A      7.321829  
	 167A      7.348769   168A      7.389307   169A      7.431245  
	 170A      7.478553   171A      7.554767   172A      7.610150  
	 173A      7.642954   174A      7.675641   175A      7.756758  
	 176A      7.890786   177A      8.097643   178A      8.164562  
	 179A      8.224960   180A      8.590864   181A      8.931738  
	 182A      9.247581   183A     16.544273   184A     17.544947  

	Final Occupation by Irrep:
	          A 
	DOCC [    10 ]

  Energy converged.

  @RHF Final Energy:  -152.10780050943910

   => Energetics <=

    Nuclear Repulsion Energy =             40.9317780012487518
    One-Electron Energy =                -291.1887438735640217
    Two-Electron Energy =                  98.1491653628764027
    DFT Exchange-Correlation Energy =       0.0000000000000000
    Empirical Dispersion Energy =           0.0000000000000000
    Total Energy =                       -152.1078005094388743



Properties will be evaluated at   0.000000,   0.000000,   0.000000 Bohr
  ==> Properties <==


Properties computed using the SCF density density matrix
  Nuclear Dipole Moment: (a.u.)
     X:     1.1557      Y:     0.0719      Z:    -0.0045

  Electronic Dipole Moment: (a.u.)
     X:     0.2426      Y:    -0.0627      Z:     0.0009

  Dipole Moment: (a.u.)
     X:     1.3983      Y:     0.0092      Z:    -0.0036     Total:     1.3984

  Dipole Moment: (Debye)
     X:     3.5542      Y:     0.0234      Z:    -0.0091     Total:     3.5543


  Saving occupied orbitals to File 180.

  Saving SAPT 2-DIMER file.

*** tstop() called on node51.bme.utexas.edu at Thu Feb 13 13:47:26 2014
Module time:
	user time   =      13.58 seconds =       0.23 minutes
	system time =       0.25 seconds =       0.00 minutes
	total time  =          3 seconds =       0.05 minutes
Total time:
	user time   =      13.58 seconds =       0.23 minutes
	system time =       0.25 seconds =       0.00 minutes
	total time  =          3 seconds =       0.05 minutes

  //>>>>>>>>>>>>>>>>>>>>>>>>>>>>>>>>>>>//
  //            Monomer A HF           //
  //<<<<<<<<<<<<<<<<<<<<<<<<<<<<<<<<<<<//


  No DF_BASIS_SCF auxiliary basis selected, defaulting to aug-cc-pvtz-jkfit


*** tstart() called on node51.bme.utexas.edu
*** at Thu Feb 13 13:47:27 2014


         ---------------------------------------------------------
                                   SCF
            by Justin Turney, Rob Parrish, and Andy Simmonett
                              RHF Reference
                        4 Threads,   7000 MiB Core
         ---------------------------------------------------------

  ==> Geometry <==

    Molecular point group: c1
    Full point group: C1

    Geometry (in Angstrom), charge = 0, multiplicity = 1:

       Center              X                  Y                   Z       
    ------------   -----------------  -----------------  -----------------
           O         -1.222685873215    -0.045985441680     0.004162461442
           H         -1.542683043215     0.856850596320    -0.017268514558
           H         -0.262968757215     0.052196310320    -0.000560801558
           O(Gh)      1.144983047785     0.041149334320    -0.003858480558
           H(Gh)      1.521604662785    -0.397230732680     0.762265901442
           H(Gh)      1.517247364785    -0.435063640680    -0.749260982558

  Running in c1 symmetry.

  Nuclear repulsion =    9.156714093079049

  Charge       = 0
  Multiplicity = 1
  Electrons    = 10
  Nalpha       = 5
  Nbeta        = 5

  ==> Algorithm <==

  SCF Algorithm Type is DF.
  DIIS enabled.
  MOM disabled.
  Fractional occupation disabled.
  Guess Type is CORE.
  Energy threshold   = 1.00e-08
  Density threshold  = 1.00e-08
  Integral threshold = 0.00e+00

  ==> Primary Basis <==

  Basis Set: AUG-CC-PVTZ
    Number of shells: 64
    Number of basis function: 184
    Number of Cartesian functions: 210
    Spherical Harmonics?: true
    Max angular momentum: 3

  ==> Pre-Iterations <==

   -------------------------------------------------------
    Irrep   Nso     Nmo     Nalpha   Nbeta   Ndocc  Nsocc
   -------------------------------------------------------
     A        184     184       0       0       0       0
   -------------------------------------------------------
    Total     184     184       5       5       5       0
   -------------------------------------------------------

 OEINTS: Wrapper to libmints.
   by Justin Turney

   Calculation information:
      Number of atoms:                   6
      Number of AO shells:              64
      Number of SO shells:              64
      Number of primitives:            104
      Number of atomic orbitals:       210
      Number of basis functions:       184

      Number of irreps:                  1
      Number of functions per irrep: [ 184 ]

      Overlap, kinetic, potential, dipole, and quadrupole integrals
        stored in file 35.

  ==> Integral Setup <==

  ==> DFJK: Density-Fitted J/K Matrices <==

    J tasked:                  Yes
    K tasked:                  Yes
    wK tasked:                  No
    OpenMP threads:              4
    Integrals threads:           4
    Memory (MB):              5006
    Algorithm:                Core
    Integral Cache:           LOAD
    Schwarz Cutoff:          0E+00
    Fitting Condition:       1E-12

   => Auxiliary Basis Set <=

  Basis Set: aug-cc-pvtz-jkfit
    Number of shells: 116
    Number of basis function: 392
    Number of Cartesian functions: 482
    Spherical Harmonics?: true
    Max angular momentum: 4

  Minimum eigenvalue in the overlap matrix is 1.7647794306E-04.
  Using Symmetric Orthogonalization.
  SCF Guess: Core (One-Electron) Hamiltonian.

  Guess energy:   -60.19267135590879

  ==> Iterations <==

                        Total Energy        Delta E     RMS |[F,P]|

   @RHF iter   1:   -61.29265668945935   -6.12927e+01   4.40156e-02 
   @RHF iter   2:   -62.09566659419909   -8.03010e-01   1.55551e-02 DIIS
   @RHF iter   3:   -72.60098184202036   -1.05053e+01   1.87170e-02 DIIS
   @RHF iter   4:   -75.15163112672185   -2.55065e+00   8.65644e-03 DIIS
   @RHF iter   5:   -76.03573469146517   -8.84104e-01   1.09399e-03 DIIS
   @RHF iter   6:   -76.05959588997844   -2.38612e-02   2.61830e-04 DIIS
   @RHF iter   7:   -76.06029917572833   -7.03286e-04   4.00221e-05 DIIS
   @RHF iter   8:   -76.06031838699852   -1.92113e-05   6.42530e-06 DIIS
   @RHF iter   9:   -76.06031899266657   -6.05668e-07   9.42075e-07 DIIS
   @RHF iter  10:   -76.06031901226723   -1.96007e-08   1.15498e-07 DIIS
   @RHF iter  11:   -76.06031901262615   -3.58924e-10   4.46828e-08 DIIS
   @RHF iter  12:   -76.06031901265935   -3.31966e-11   3.66210e-09 DIIS

  ==> Post-Iterations <==

	Orbital Energies (a.u.)
	-----------------------

	Doubly Occupied:                                                      

	   1A    -20.568214     2A     -1.351994     3A     -0.713852  
	   4A     -0.585735     5A     -0.510235  

	Virtual:                                                              

	   6A      0.022227     7A      0.043265     8A      0.050880  
	   9A      0.075177    10A      0.102174    11A      0.124298  
	  12A      0.152405    13A      0.160171    14A      0.176321  
	  15A      0.178657    16A      0.205611    17A      0.227953  
	  18A      0.240974    19A      0.262815    20A      0.280967  
	  21A      0.299274    22A      0.302731    23A      0.321778  
	  24A      0.322667    25A      0.344685    26A      0.377260  
	  27A      0.388812    28A      0.409807    29A      0.410653  
	  30A      0.445745    31A      0.460380    32A      0.490847  
	  33A      0.550405    34A      0.652976    35A      0.670810  
	  36A      0.697668    37A      0.713499    38A      0.716907  
	  39A      0.742263    40A      0.766720    41A      0.778045  
	  42A      0.808471    43A      0.812863    44A      0.833883  
	  45A      0.856581    46A      0.886205    47A      0.888176  
	  48A      0.916957    49A      0.926513    50A      0.951498  
	  51A      0.952660    52A      0.983724    53A      1.004055  
	  54A      1.005154    55A      1.031766    56A      1.038309  
	  57A      1.047989    58A      1.060318    59A      1.079440  
	  60A      1.144298    61A      1.173750    62A      1.182902  
	  63A      1.190582    64A      1.232425    65A      1.237364  
	  66A      1.303344    67A      1.320487    68A      1.355406  
	  69A      1.367410    70A      1.453696    71A      1.488814  
	  72A      1.490582    73A      1.548891    74A      1.628715  
	  75A      1.669968    76A      1.677230    77A      1.745410  
	  78A      1.800672    79A      1.842078    80A      1.861753  
	  81A      1.863676    82A      1.942866    83A      1.960869  
	  84A      2.016488    85A      2.062046    86A      2.111371  
	  87A      2.311095    88A      2.346740    89A      2.403236  
	  90A      2.408416    91A      2.459474    92A      2.501163  
	  93A      2.552023    94A      2.559665    95A      2.580905  
	  96A      2.611875    97A      2.615376    98A      2.709297  
	  99A      2.735642   100A      2.760052   101A      2.785747  
	 102A      2.865291   103A      2.918328   104A      2.961470  
	 105A      3.030867   106A      3.067244   107A      3.148178  
	 108A      3.166166   109A      3.244639   110A      3.299684  
	 111A      3.330011   112A      3.330738   113A      3.480584  
	 114A      3.660320   115A      3.751945   116A      3.889509  
	 117A      4.098505   118A      4.226272   119A      4.230896  
	 120A      4.302711   121A      4.343488   122A      4.368972  
	 123A      4.392655   124A      4.424708   125A      4.463319  
	 126A      4.532748   127A      4.613791   128A      4.650124  
	 129A      4.675917   130A      4.678688   131A      4.768225  
	 132A      4.862980   133A      4.949329   134A      4.976492  
	 135A      5.028576   136A      5.074471   137A      5.195355  
	 138A      5.231633   139A      5.330840   140A      5.338530  
	 141A      5.396809   142A      5.546132   143A      5.673690  
	 144A      5.777957   145A      5.793315   146A      5.818619  
	 147A      5.925572   148A      6.078615   149A      6.250211  
	 150A      6.308661   151A      6.539033   152A      6.583096  
	 153A      6.692577   154A      6.817516   155A      7.047957  
	 156A      7.074278   157A      7.212593   158A      7.294665  
	 159A      7.381556   160A      7.477174   161A      7.502915  
	 162A      7.596031   163A      7.771705   164A      7.830711  
	 165A      7.891973   166A      8.062215   167A      8.151311  
	 168A      8.187971   169A      8.392181   170A      8.394522  
	 171A      8.793967   172A      8.864879   173A      9.108521  
	 174A      9.937424   175A     10.034995   176A     10.139182  
	 177A     10.762552   178A     11.305720   179A     12.200289  
	 180A     12.366447   181A     13.758671   182A     13.838199  
	 183A     17.330005   184A     66.769997  

	Final Occupation by Irrep:
	          A 
	DOCC [     5 ]

  Energy converged.

  @RHF Final Energy:   -76.06031901265935

   => Energetics <=

    Nuclear Repulsion Energy =              9.1567140930790494
    One-Electron Energy =                -122.9740043019886997
    Two-Electron Energy =                  37.7569711962504897
    DFT Exchange-Correlation Energy =       0.0000000000000000
    Empirical Dispersion Energy =           0.0000000000000000
    Total Energy =                        -76.0603190126591642



Properties will be evaluated at   0.000000,   0.000000,   0.000000 Bohr
  ==> Properties <==


Properties computed using the SCF density density matrix
  Nuclear Dipole Moment: (a.u.)
     X:   -21.8965      Y:     1.0227      Z:     0.0292

  Electronic Dipole Moment: (a.u.)
     X:    22.3196      Y:    -0.3593      Z:    -0.0466

  Dipole Moment: (a.u.)
     X:     0.4231      Y:     0.6634      Z:    -0.0173     Total:     0.7870

  Dipole Moment: (Debye)
     X:     1.0754      Y:     1.6861      Z:    -0.0440     Total:     2.0004


  Saving occupied orbitals to File 180.

  Saving SAPT 2-MONOMER_A file.

*** tstop() called on node51.bme.utexas.edu at Thu Feb 13 13:47:29 2014
Module time:
	user time   =       9.92 seconds =       0.17 minutes
	system time =       0.15 seconds =       0.00 minutes
	total time  =          2 seconds =       0.03 minutes
Total time:
	user time   =      23.59 seconds =       0.39 minutes
	system time =       0.40 seconds =       0.01 minutes
	total time  =          6 seconds =       0.10 minutes

  //>>>>>>>>>>>>>>>>>>>>>>>>>>>>>>>>>>>//
  //            Monomer B HF           //
  //<<<<<<<<<<<<<<<<<<<<<<<<<<<<<<<<<<<//


  No DF_BASIS_SCF auxiliary basis selected, defaulting to aug-cc-pvtz-jkfit


*** tstart() called on node51.bme.utexas.edu
*** at Thu Feb 13 13:47:29 2014


         ---------------------------------------------------------
                                   SCF
            by Justin Turney, Rob Parrish, and Andy Simmonett
                              RHF Reference
                        4 Threads,   7000 MiB Core
         ---------------------------------------------------------

  ==> Geometry <==

    Molecular point group: c1
    Full point group: C1

    Geometry (in Angstrom), charge = 0, multiplicity = 1:

       Center              X                  Y                   Z       
    ------------   -----------------  -----------------  -----------------
           O(Gh)     -1.222685873215    -0.045985441680     0.004162461442
           H(Gh)     -1.542683043215     0.856850596320    -0.017268514558
           H(Gh)     -0.262968757215     0.052196310320    -0.000560801558
           O          1.144983047785     0.041149334320    -0.003858480558
           H          1.521604662785    -0.397230732680     0.762265901442
           H          1.517247364785    -0.435063640680    -0.749260982558

  Running in c1 symmetry.

  Nuclear repulsion =    9.172591112163527

  Charge       = 0
  Multiplicity = 1
  Electrons    = 10
  Nalpha       = 5
  Nbeta        = 5

  ==> Algorithm <==

  SCF Algorithm Type is DF.
  DIIS enabled.
  MOM disabled.
  Fractional occupation disabled.
  Guess Type is CORE.
  Energy threshold   = 1.00e-08
  Density threshold  = 1.00e-08
  Integral threshold = 0.00e+00

  ==> Primary Basis <==

  Basis Set: AUG-CC-PVTZ
    Number of shells: 64
    Number of basis function: 184
    Number of Cartesian functions: 210
    Spherical Harmonics?: true
    Max angular momentum: 3

  ==> Pre-Iterations <==

   -------------------------------------------------------
    Irrep   Nso     Nmo     Nalpha   Nbeta   Ndocc  Nsocc
   -------------------------------------------------------
     A        184     184       0       0       0       0
   -------------------------------------------------------
    Total     184     184       5       5       5       0
   -------------------------------------------------------

 OEINTS: Wrapper to libmints.
   by Justin Turney

   Calculation information:
      Number of atoms:                   6
      Number of AO shells:              64
      Number of SO shells:              64
      Number of primitives:            104
      Number of atomic orbitals:       210
      Number of basis functions:       184

      Number of irreps:                  1
      Number of functions per irrep: [ 184 ]

      Overlap, kinetic, potential, dipole, and quadrupole integrals
        stored in file 35.

  ==> Integral Setup <==

  ==> DFJK: Density-Fitted J/K Matrices <==

    J tasked:                  Yes
    K tasked:                  Yes
    wK tasked:                  No
    OpenMP threads:              4
    Integrals threads:           4
    Memory (MB):              5006
    Algorithm:                Core
    Integral Cache:           LOAD
    Schwarz Cutoff:          0E+00
    Fitting Condition:       1E-12

   => Auxiliary Basis Set <=

  Basis Set: aug-cc-pvtz-jkfit
    Number of shells: 116
    Number of basis function: 392
    Number of Cartesian functions: 482
    Spherical Harmonics?: true
    Max angular momentum: 4

  Minimum eigenvalue in the overlap matrix is 1.7647794306E-04.
  Using Symmetric Orthogonalization.
  SCF Guess: Core (One-Electron) Hamiltonian.

  Guess energy:   -60.18741149688091

  ==> Iterations <==

                        Total Energy        Delta E     RMS |[F,P]|

   @RHF iter   1:   -61.28206763352293   -6.12821e+01   4.41114e-02 
   @RHF iter   2:   -62.52470719895993   -1.24264e+00   1.54785e-02 DIIS
   @RHF iter   3:   -72.63105404763149   -1.01063e+01   1.86516e-02 DIIS
   @RHF iter   4:   -75.16307109953148   -2.53202e+00   8.61760e-03 DIIS
   @RHF iter   5:   -76.03690937288643   -8.73838e-01   1.06699e-03 DIIS
   @RHF iter   6:   -76.05980433795598   -2.28950e-02   2.65822e-04 DIIS
   @RHF iter   7:   -76.06052683965075   -7.22502e-04   4.30592e-05 DIIS
   @RHF iter   8:   -76.06054840214176   -2.15625e-05   7.26301e-06 DIIS
   @RHF iter   9:   -76.06054913611059   -7.33969e-07   1.06358e-06 DIIS
   @RHF iter  10:   -76.06054915891475   -2.28042e-08   1.13459e-07 DIIS
   @RHF iter  11:   -76.06054915927629   -3.61538e-10   4.05816e-08 DIIS
   @RHF iter  12:   -76.06054915930918   -3.28839e-11   6.05116e-09 DIIS

  ==> Post-Iterations <==

	Orbital Energies (a.u.)
	-----------------------

	Doubly Occupied:                                                      

	   1A    -20.567607     2A     -1.352604     3A     -0.715283  
	   4A     -0.585460     5A     -0.510297  

	Virtual:                                                              

	   6A      0.026179     7A      0.047330     8A      0.047389  
	   9A      0.070263    10A      0.123401    11A      0.142851  
	  12A      0.147314    13A      0.160317    14A      0.166931  
	  15A      0.183280    16A      0.209306    17A      0.228003  
	  18A      0.231116    19A      0.251421    20A      0.290544  
	  21A      0.302682    22A      0.311113    23A      0.326603  
	  24A      0.374564    25A      0.376461    26A      0.380494  
	  27A      0.405375    28A      0.413042    29A      0.430326  
	  30A      0.453722    31A      0.466975    32A      0.496692  
	  33A      0.552034    34A      0.619289    35A      0.652838  
	  36A      0.710723    37A      0.716296    38A      0.728714  
	  39A      0.769109    40A      0.775931    41A      0.800334  
	  42A      0.824185    43A      0.839736    44A      0.851624  
	  45A      0.859570    46A      0.886675    47A      0.897519  
	  48A      0.931223    49A      0.933414    50A      0.949190  
	  51A      0.996400    52A      0.997923    53A      1.008023  
	  54A      1.014092    55A      1.035940    56A      1.041880  
	  57A      1.050979    58A      1.064424    59A      1.087518  
	  60A      1.127365    61A      1.162837    62A      1.177037  
	  63A      1.212253    64A      1.239418    65A      1.282898  
	  66A      1.298360    67A      1.329470    68A      1.398813  
	  69A      1.404992    70A      1.449542    71A      1.521400  
	  72A      1.591850    73A      1.610458    74A      1.671829  
	  75A      1.689737    76A      1.745689    77A      1.794120  
	  78A      1.821870    79A      1.842775    80A      1.880572  
	  81A      1.887620    82A      1.906885    83A      2.002963  
	  84A      2.108135    85A      2.120570    86A      2.153112  
	  87A      2.198122    88A      2.411632    89A      2.442412  
	  90A      2.459123    91A      2.496295    92A      2.503218  
	  93A      2.548967    94A      2.575626    95A      2.600501  
	  96A      2.613491    97A      2.670998    98A      2.695108  
	  99A      2.740191   100A      2.759921   101A      2.838555  
	 102A      2.855225   103A      2.884421   104A      2.902427  
	 105A      2.965588   106A      3.063769   107A      3.125659  
	 108A      3.177087   109A      3.245969   110A      3.264851  
	 111A      3.470431   112A      3.627092   113A      3.638148  
	 114A      3.700776   115A      3.862061   116A      3.966648  
	 117A      3.969348   118A      4.142900   119A      4.220654  
	 120A      4.304280   121A      4.413386   122A      4.465190  
	 123A      4.517908   124A      4.533985   125A      4.545915  
	 126A      4.602826   127A      4.656191   128A      4.677062  
	 129A      4.707615   130A      4.751986   131A      4.813289  
	 132A      4.875997   133A      4.902565   134A      4.954343  
	 135A      5.056617   136A      5.132654   137A      5.200468  
	 138A      5.252982   139A      5.348927   140A      5.354585  
	 141A      5.416860   142A      5.448955   143A      5.607331  
	 144A      5.696438   145A      5.769974   146A      5.911589  
	 147A      5.940436   148A      6.042260   149A      6.169447  
	 150A      6.397342   151A      6.579721   152A      6.686240  
	 153A      6.811924   154A      7.008091   155A      7.136065  
	 156A      7.302344   157A      7.330809   158A      7.419986  
	 159A      7.423576   160A      7.494296   161A      7.515939  
	 162A      7.641700   163A      7.774418   164A      7.840487  
	 165A      7.978951   166A      7.982113   167A      8.155394  
	 168A      8.220475   169A      8.465200   170A      8.588339  
	 171A      8.976935   172A      9.021756   173A      9.231384  
	 174A      9.756842   175A      9.899603   176A     10.179972  
	 177A     10.457719   178A     11.469355   179A     11.998330  
	 180A     12.605042   181A     13.814378   182A     14.004476  
	 183A     16.870118   184A     67.526463  

	Final Occupation by Irrep:
	          A 
	DOCC [     5 ]

  Energy converged.

  @RHF Final Energy:   -76.06054915930918

   => Energetics <=

    Nuclear Repulsion Energy =              9.1725911121635271
    One-Electron Energy =                -123.0037735829032641
    Two-Electron Energy =                  37.7706333114303803
    DFT Exchange-Correlation Energy =       0.0000000000000000
    Empirical Dispersion Energy =           0.0000000000000000
    Total Energy =                        -76.0605491593093461



Properties will be evaluated at   0.000000,   0.000000,   0.000000 Bohr
  ==> Properties <==


Properties computed using the SCF density density matrix
  Nuclear Dipole Moment: (a.u.)
     X:    23.0522      Y:    -0.9507      Z:    -0.0338

  Electronic Dipole Moment: (a.u.)
     X:   -22.5557      Y:     0.3448      Z:     0.0475

  Dipole Moment: (a.u.)
     X:     0.4965      Y:    -0.6059      Z:     0.0137     Total:     0.7834

  Dipole Moment: (Debye)
     X:     1.2620      Y:    -1.5400      Z:     0.0349     Total:     1.9913


  Saving occupied orbitals to File 180.

  Saving SAPT 2-MONOMER_B file.

*** tstop() called on node51.bme.utexas.edu at Thu Feb 13 13:47:32 2014
Module time:
	user time   =       9.50 seconds =       0.16 minutes
	system time =       0.12 seconds =       0.00 minutes
	total time  =          3 seconds =       0.05 minutes
Total time:
	user time   =      33.11 seconds =       0.55 minutes
	system time =       0.52 seconds =       0.01 minutes
	total time  =          9 seconds =       0.15 minutes
  No DF_BASIS_SAPT auxiliary basis selected, defaulting to aug-cc-pvtz-ri

  //>>>>>>>>>>>>>>>>>>>>>>>>>>>>>>>>>>>//
  //               SAPT2+              //
  //<<<<<<<<<<<<<<<<<<<<<<<<<<<<<<<<<<<//


*** tstart() called on node51.bme.utexas.edu
*** at Thu Feb 13 13:47:32 2014

        SAPT2+  
    Ed Hohenstein
     6 June 2009

      Orbital Information
  --------------------------
    NSO        =       184
    NMO        =       184
    NRI        =       396
    NOCC A     =         5
    NOCC B     =         5
    FOCC A     =         1
    FOCC B     =         1
    NVIR A     =       179
    NVIR B     =       179

    Estimated memory usage: 120.7 MB

    Elst10,r            =    -0.041454870458 H
    Exch10 (S^2)        =     0.073231023988 H
    Exch10              =     0.076057947968 H
    Ind20,r (A<-B)      =    -0.016224411834 H
    Ind20,r (B<-A)      =    -0.020162990403 H
    Ind20,r             =    -0.036387402237 H
    Exch-Ind20,r (A<-B) =     0.014344391685 H
    Exch-Ind20,r (B<-A) =     0.009596875163 H
    Exch-Ind20,r        =     0.023941266849 H
    Disp20              =    -0.014887239188 H
    Exch-Disp20         =     0.003724109715 H
    Elst12,r            =    -0.000332422428 H
    Exch11              =     0.000677559304 H
    Exch12              =     0.005630897955 H
    Ind22               =    -0.004613361749 H
    Disp21              =     0.001008474330 H
    Disp22 (SDQ)        =    -0.000214990280 H

    (i =   1 of   4)         13 seconds
    (i =   2 of   4)         26 seconds
    (i =   3 of   4)         40 seconds
    (i =   4 of   4)         53 seconds

    Disp220 (T)         =    -0.001142743104 H

    (i =   1 of   4)         13 seconds
    (i =   2 of   4)         26 seconds
    (i =   3 of   4)         39 seconds
    (i =   4 of   4)         52 seconds

    Disp202 (T)         =    -0.000998137057 H

    Disp22 (T)          =    -0.002140880162 H

    SAPT Results  
  -----------------------------------------------------------------------
    Electrostatics         -41.78729289 mH     -26.22192327 kcal mol^-1
      Elst10,r             -41.45487046 mH     -26.01332503 kcal mol^-1
      Elst12,r              -0.33242243 mH      -0.20859823 kcal mol^-1

    Exchange                82.36640523 mH      51.68570176 kcal mol^-1
      Exch10                76.05794797 mH      47.72708490 kcal mol^-1
      Exch10(S^2)           73.23102399 mH      45.95316325 kcal mol^-1
      Exch11(S^2)            0.67755930 mH       0.42517490 kcal mol^-1
      Exch12(S^2)            5.63089796 mH       3.53344196 kcal mol^-1

    Induction              -23.11339311 mH     -14.50387375 kcal mol^-1
      Ind20,r              -36.38740224 mH     -22.83344058 kcal mol^-1
      Ind22                 -4.61336175 mH      -2.89492832 kcal mol^-1
      Exch-Ind20,r          23.94126685 mH      15.02337239 kcal mol^-1
      Exch-Ind22             3.03538362 mH       1.90473206 kcal mol^-1
      delta HF,r (2)        -9.08927959 mH      -5.70360929 kcal mol^-1

    Dispersion             -12.51052559 mH      -7.85047365 kcal mol^-1
      Disp20               -14.88723919 mH      -9.34188402 kcal mol^-1
      Disp21                 1.00847433 mH       0.63282722 kcal mol^-1
      Disp22 (SDQ)          -0.21499028 mH      -0.13490844 kcal mol^-1
      Disp22 (T)            -2.14088016 mH      -1.34342264 kcal mol^-1
      Exch-Disp20            3.72410972 mH       2.33691423 kcal mol^-1

    Total HF                13.06766253 mH       8.20008238 kcal mol^-1
    Total SAPT0              1.90453306 mH       1.19511259 kcal mol^-1
    Total SAPT2              6.30258976 mH       3.95493495 kcal mol^-1
    Total SAPT2+             4.95519365 mH       3.10943109 kcal mol^-1

*** tstop() called on node51.bme.utexas.edu at Thu Feb 13 13:50:38 2014
Module time:
	user time   =     728.24 seconds =      12.14 minutes
	system time =       8.28 seconds =       0.14 minutes
	total time  =        186 seconds =       3.10 minutes
Total time:
	user time   =     761.37 seconds =      12.69 minutes
	system time =       8.80 seconds =       0.15 minutes
	total time  =        195 seconds =       3.25 minutes

*** PSI4 exiting successfully. Buy a developer a beer!
    -----------------------------------------------------------------------
          PSI4: An Open-Source Ab Initio Electronic Structure Package
                              PSI 4.0.0-beta4 Driver

    J. M. Turney, A. C. Simmonett, R. M. Parrish, E. G. Hohenstein,
    F. A. Evangelista, J. T. Fermann, B. J. Mintz, L. A. Burns, J. J. Wilke,
    M. L. Abrams, N. J. Russ, M. L. Leininger, C. L. Janssen, E. T. Seidl,
    W. D. Allen, H. F. Schaefer, R. A. King, E. F. Valeev, C. D. Sherrill,
    and T. D. Crawford, WIREs Comput. Mol. Sci., (2011) (doi: 10.1002/wcms.93)

                         Additional Contributions by
    A. E. DePrince, M. Saitow, U. Bozkaya, A. Yu. Sokolov
    -----------------------------------------------------------------------

    Process ID:  16554
    PSI4DATADIR: /home/xzhu216/psi4/psi4-install/share/psi

    Using LocalCommunicator (Number of processes = 1)

    Memory level set to 256.000 MB

  ==> Input File <==

--------------------------------------------------------------------------
#psi4
#
memory 7 gb

molecule Water_Water {
0 1
    O    -0.702196054    -0.056060256     0.009942262
    H    -1.022193224     0.846775782    -0.011488714
    H     0.257521062     0.042121496     0.005218999
--
0 1
    O     1.866608840     0.029496380     0.001450223
    H     2.243230455    -0.408883686     0.767574605
    H     2.238873157    -0.446716595    -0.743952279
units angstrom
no_reorient  #important for SAPT in psi4, default
symmetry c1  #important for SAPT in psi4, default
}

set {
basis aug-cc-pVTZ
scf_type DF
freeze_core True
}
energy('sapt2+')
--------------------------------------------------------------------------

  Memory set to   7.000 GiB by Python script.

  //>>>>>>>>>>>>>>>>>>>>>>>>>>>>>>>>>>>//
  //              Dimer HF             //
  //<<<<<<<<<<<<<<<<<<<<<<<<<<<<<<<<<<<//


  No DF_BASIS_SCF auxiliary basis selected, defaulting to aug-cc-pvtz-jkfit


*** tstart() called on node53.bme.utexas.edu
*** at Thu Feb 13 11:47:49 2014


         ---------------------------------------------------------
                                   SCF
            by Justin Turney, Rob Parrish, and Andy Simmonett
                              RHF Reference
                        4 Threads,   7000 MiB Core
         ---------------------------------------------------------

  ==> Geometry <==

    Molecular point group: c1
    Full point group: C1

    Geometry (in Angstrom), charge = 0, multiplicity = 1:

       Center              X                  Y                   Z       
    ------------   -----------------  -----------------  -----------------
           O         -1.323253859715    -0.045196371708     0.004398009942
           H         -1.643251029715     0.857639666292    -0.017032966058
           H         -0.363536743715     0.052985380292    -0.000325253058
           O          1.245551034285     0.040360264292    -0.004094029058
           H          1.622172649285    -0.398019801708     0.762030352942
           H          1.617815351285    -0.435852710708    -0.749496531058

  Running in c1 symmetry.

  Nuclear repulsion =   39.094690770774079

  Charge       = 0
  Multiplicity = 1
  Electrons    = 20
  Nalpha       = 10
  Nbeta        = 10

  ==> Algorithm <==

  SCF Algorithm Type is DF.
  DIIS enabled.
  MOM disabled.
  Fractional occupation disabled.
  Guess Type is CORE.
  Energy threshold   = 1.00e-08
  Density threshold  = 1.00e-08
  Integral threshold = 0.00e+00

  ==> Primary Basis <==

  Basis Set: AUG-CC-PVTZ
    Number of shells: 64
    Number of basis function: 184
    Number of Cartesian functions: 210
    Spherical Harmonics?: true
    Max angular momentum: 3

  ==> Pre-Iterations <==

   -------------------------------------------------------
    Irrep   Nso     Nmo     Nalpha   Nbeta   Ndocc  Nsocc
   -------------------------------------------------------
     A        184     184       0       0       0       0
   -------------------------------------------------------
    Total     184     184      10      10      10       0
   -------------------------------------------------------

 OEINTS: Wrapper to libmints.
   by Justin Turney

   Calculation information:
      Number of atoms:                   6
      Number of AO shells:              64
      Number of SO shells:              64
      Number of primitives:            104
      Number of atomic orbitals:       210
      Number of basis functions:       184

      Number of irreps:                  1
      Number of functions per irrep: [ 184 ]

      Overlap, kinetic, potential, dipole, and quadrupole integrals
        stored in file 35.

  ==> Integral Setup <==

  ==> DFJK: Density-Fitted J/K Matrices <==

    J tasked:                  Yes
    K tasked:                  Yes
    wK tasked:                  No
    OpenMP threads:              4
    Integrals threads:           4
    Memory (MB):              5006
    Algorithm:                Core
    Integral Cache:           SAVE
    Schwarz Cutoff:          0E+00
    Fitting Condition:       1E-12

   => Auxiliary Basis Set <=

  Basis Set: aug-cc-pvtz-jkfit
    Number of shells: 116
    Number of basis function: 392
    Number of Cartesian functions: 482
    Spherical Harmonics?: true
    Max angular momentum: 4

  Minimum eigenvalue in the overlap matrix is 2.0849797252E-04.
  Using Symmetric Orthogonalization.
  SCF Guess: Core (One-Electron) Hamiltonian.

  Guess energy:  -120.36629473773330

  ==> Iterations <==

                        Total Energy        Delta E     RMS |[F,P]|

   @RHF iter   1:  -122.73407981458048   -1.22734e+02   6.20908e-02 
   @RHF iter   2:  -123.19291800897476   -4.58838e-01   2.36807e-02 DIIS
   @RHF iter   3:  -146.01281063404156   -2.28199e+01   2.48444e-02 DIIS
   @RHF iter   4:  -150.84544956582442   -4.83264e+00   1.00277e-02 DIIS
   @RHF iter   5:  -152.09286437913693   -1.24741e+00   1.05481e-03 DIIS
   @RHF iter   6:  -152.11943401150751   -2.65696e-02   2.86056e-04 DIIS
   @RHF iter   7:  -152.12034353831461   -9.09527e-04   8.82206e-05 DIIS
   @RHF iter   8:  -152.12045419249347   -1.10654e-04   2.11761e-05 DIIS
   @RHF iter   9:  -152.12046485900606   -1.06665e-05   3.60979e-06 DIIS
   @RHF iter  10:  -152.12046534500860   -4.86003e-07   8.50522e-07 DIIS
   @RHF iter  11:  -152.12046537637229   -3.13637e-08   2.01020e-07 DIIS
   @RHF iter  12:  -152.12046537767986   -1.30757e-09   4.03575e-08 DIIS
   @RHF iter  13:  -152.12046537774302   -6.31530e-11   8.59046e-09 DIIS

  ==> Post-Iterations <==

	Orbital Energies (a.u.)
	-----------------------

	Doubly Occupied:                                                      

	   1A    -20.601293     2A    -20.517188     3A     -1.395573  
	   4A     -1.308523     5A     -0.752301     6A     -0.704288  
	   7A     -0.620799     8A     -0.558560     9A     -0.521327  
	  10A     -0.466708  

	Virtual:                                                              

	  11A      0.020948    12A      0.044646    13A      0.048959  
	  14A      0.076783    15A      0.121216    16A      0.139393  
	  17A      0.164156    18A      0.171411    19A      0.177698  
	  20A      0.190093    21A      0.216170    22A      0.217616  
	  23A      0.234656    24A      0.249584    25A      0.276008  
	  26A      0.282593    27A      0.305780    28A      0.317630  
	  29A      0.367750    30A      0.372999    31A      0.385605  
	  32A      0.418524    33A      0.428037    34A      0.446077  
	  35A      0.451237    36A      0.451887    37A      0.514740  
	  38A      0.591980    39A      0.595648    40A      0.606669  
	  41A      0.668988    42A      0.698730    43A      0.726187  
	  44A      0.730139    45A      0.758631    46A      0.791044  
	  47A      0.791096    48A      0.821398    49A      0.837745  
	  50A      0.838632    51A      0.877922    52A      0.915925  
	  53A      0.919660    54A      0.955639    55A      0.961598  
	  56A      0.967303    57A      0.974982    58A      0.987292  
	  59A      1.001265    60A      1.018287    61A      1.027724  
	  62A      1.028756    63A      1.054767    64A      1.063861  
	  65A      1.089065    66A      1.147177    67A      1.171102  
	  68A      1.189436    69A      1.223366    70A      1.259467  
	  71A      1.262094    72A      1.285041    73A      1.304624  
	  74A      1.355260    75A      1.422714    76A      1.514099  
	  77A      1.550251    78A      1.562007    79A      1.580300  
	  80A      1.642928    81A      1.663216    82A      1.677960  
	  83A      1.755993    84A      1.775450    85A      1.836368  
	  86A      1.839975    87A      1.981832    88A      1.999073  
	  89A      2.080282    90A      2.107459    91A      2.131999  
	  92A      2.255135    93A      2.327255    94A      2.343857  
	  95A      2.407852    96A      2.418242    97A      2.474887  
	  98A      2.485919    99A      2.521438   100A      2.534620  
	 101A      2.556912   102A      2.597269   103A      2.607797  
	 104A      2.651845   105A      2.669812   106A      2.704344  
	 107A      2.762166   108A      2.773170   109A      2.792428  
	 110A      2.853859   111A      2.854528   112A      2.936824  
	 113A      2.971376   114A      3.063094   115A      3.123630  
	 116A      3.342561   117A      3.785492   118A      3.834040  
	 119A      3.862931   120A      4.069299   121A      4.117451  
	 122A      4.146509   123A      4.159152   124A      4.235171  
	 125A      4.258434   126A      4.292251   127A      4.337884  
	 128A      4.338155   129A      4.378980   130A      4.441093  
	 131A      4.464654   132A      4.479504   133A      4.504728  
	 134A      4.521963   135A      4.596010   136A      4.653468  
	 137A      4.664665   138A      4.731864   139A      4.759736  
	 140A      4.899111   141A      4.913808   142A      5.082409  
	 143A      5.165651   144A      5.203778   145A      5.255876  
	 146A      5.310250   147A      5.338113   148A      5.341074  
	 149A      5.379636   150A      5.553494   151A      5.638404  
	 152A      5.699470   153A      5.833698   154A      5.886033  
	 155A      6.222930   156A      6.377293   157A      6.523572  
	 158A      6.572581   159A      6.831901   160A      6.859936  
	 161A      6.966785   162A      7.043434   163A      7.194842  
	 164A      7.224896   165A      7.279379   166A      7.298132  
	 167A      7.327708   168A      7.332005   169A      7.376438  
	 170A      7.409144   171A      7.514156   172A      7.536969  
	 173A      7.537060   174A      7.594960   175A      7.720843  
	 176A      7.814053   177A      8.004946   178A      8.027666  
	 179A      8.147525   180A      8.301167   181A      8.917706  
	 182A      9.118710   183A     16.539147   184A     17.072311  

	Final Occupation by Irrep:
	          A 
	DOCC [    10 ]

  Energy converged.

  @RHF Final Energy:  -152.12046537774302

   => Energetics <=

    Nuclear Repulsion Energy =             39.0946907707740792
    One-Electron Energy =                -287.5371854525433832
    Two-Electron Energy =                  96.3220293040260742
    DFT Exchange-Correlation Energy =       0.0000000000000000
    Empirical Dispersion Energy =           0.0000000000000000
    Total Energy =                       -152.1204653777432156



Properties will be evaluated at   0.000000,   0.000000,   0.000000 Bohr
  ==> Properties <==


Properties computed using the SCF density density matrix
  Nuclear Dipole Moment: (a.u.)
     X:     1.1557      Y:     0.0719      Z:    -0.0045

  Electronic Dipole Moment: (a.u.)
     X:     0.1201      Y:    -0.0496      Z:     0.0009

  Dipole Moment: (a.u.)
     X:     1.2758      Y:     0.0223      Z:    -0.0036     Total:     1.2760

  Dipole Moment: (Debye)
     X:     3.2428      Y:     0.0567      Z:    -0.0092     Total:     3.2433


  Saving occupied orbitals to File 180.

  Saving SAPT 2-DIMER file.

*** tstop() called on node53.bme.utexas.edu at Thu Feb 13 11:47:53 2014
Module time:
	user time   =      13.72 seconds =       0.23 minutes
	system time =       0.25 seconds =       0.00 minutes
	total time  =          4 seconds =       0.07 minutes
Total time:
	user time   =      13.72 seconds =       0.23 minutes
	system time =       0.25 seconds =       0.00 minutes
	total time  =          4 seconds =       0.07 minutes

  //>>>>>>>>>>>>>>>>>>>>>>>>>>>>>>>>>>>//
  //            Monomer A HF           //
  //<<<<<<<<<<<<<<<<<<<<<<<<<<<<<<<<<<<//


  No DF_BASIS_SCF auxiliary basis selected, defaulting to aug-cc-pvtz-jkfit


*** tstart() called on node53.bme.utexas.edu
*** at Thu Feb 13 11:47:53 2014


         ---------------------------------------------------------
                                   SCF
            by Justin Turney, Rob Parrish, and Andy Simmonett
                              RHF Reference
                        4 Threads,   7000 MiB Core
         ---------------------------------------------------------

  ==> Geometry <==

    Molecular point group: c1
    Full point group: C1

    Geometry (in Angstrom), charge = 0, multiplicity = 1:

       Center              X                  Y                   Z       
    ------------   -----------------  -----------------  -----------------
           O         -1.323253859715    -0.045196371708     0.004398009942
           H         -1.643251029715     0.857639666292    -0.017032966058
           H         -0.363536743715     0.052985380292    -0.000325253058
           O(Gh)      1.245551034285     0.040360264292    -0.004094029058
           H(Gh)      1.622172649285    -0.398019801708     0.762030352942
           H(Gh)      1.617815351285    -0.435852710708    -0.749496531058

  Running in c1 symmetry.

  Nuclear repulsion =    9.156714093079048

  Charge       = 0
  Multiplicity = 1
  Electrons    = 10
  Nalpha       = 5
  Nbeta        = 5

  ==> Algorithm <==

  SCF Algorithm Type is DF.
  DIIS enabled.
  MOM disabled.
  Fractional occupation disabled.
  Guess Type is CORE.
  Energy threshold   = 1.00e-08
  Density threshold  = 1.00e-08
  Integral threshold = 0.00e+00

  ==> Primary Basis <==

  Basis Set: AUG-CC-PVTZ
    Number of shells: 64
    Number of basis function: 184
    Number of Cartesian functions: 210
    Spherical Harmonics?: true
    Max angular momentum: 3

  ==> Pre-Iterations <==

   -------------------------------------------------------
    Irrep   Nso     Nmo     Nalpha   Nbeta   Ndocc  Nsocc
   -------------------------------------------------------
     A        184     184       0       0       0       0
   -------------------------------------------------------
    Total     184     184       5       5       5       0
   -------------------------------------------------------

 OEINTS: Wrapper to libmints.
   by Justin Turney

   Calculation information:
      Number of atoms:                   6
      Number of AO shells:              64
      Number of SO shells:              64
      Number of primitives:            104
      Number of atomic orbitals:       210
      Number of basis functions:       184

      Number of irreps:                  1
      Number of functions per irrep: [ 184 ]

      Overlap, kinetic, potential, dipole, and quadrupole integrals
        stored in file 35.

  ==> Integral Setup <==

  ==> DFJK: Density-Fitted J/K Matrices <==

    J tasked:                  Yes
    K tasked:                  Yes
    wK tasked:                  No
    OpenMP threads:              4
    Integrals threads:           4
    Memory (MB):              5006
    Algorithm:                Core
    Integral Cache:           LOAD
    Schwarz Cutoff:          0E+00
    Fitting Condition:       1E-12

   => Auxiliary Basis Set <=

  Basis Set: aug-cc-pvtz-jkfit
    Number of shells: 116
    Number of basis function: 392
    Number of Cartesian functions: 482
    Spherical Harmonics?: true
    Max angular momentum: 4

  Minimum eigenvalue in the overlap matrix is 2.0849797252E-04.
  Using Symmetric Orthogonalization.
  SCF Guess: Core (One-Electron) Hamiltonian.

  Guess energy:   -60.19227345478673

  ==> Iterations <==

                        Total Energy        Delta E     RMS |[F,P]|

   @RHF iter   1:   -61.29631786402926   -6.12963e+01   4.39451e-02 
   @RHF iter   2:   -62.05464980955887   -7.58332e-01   1.55582e-02 DIIS
   @RHF iter   3:   -72.60363499261024   -1.05490e+01   1.87108e-02 DIIS
   @RHF iter   4:   -75.15327018803886   -2.54964e+00   8.64714e-03 DIIS
   @RHF iter   5:   -76.03599922022255   -8.82729e-01   1.08609e-03 DIIS
   @RHF iter   6:   -76.05956774306817   -2.35685e-02   2.62132e-04 DIIS
   @RHF iter   7:   -76.06027261788144   -7.04875e-04   3.98368e-05 DIIS
   @RHF iter   8:   -76.06029168407620   -1.90662e-05   6.37185e-06 DIIS
   @RHF iter   9:   -76.06029228106505   -5.96989e-07   9.38883e-07 DIIS
   @RHF iter  10:   -76.06029230057206   -1.95070e-08   1.15028e-07 DIIS
   @RHF iter  11:   -76.06029230092709   -3.55030e-10   4.47539e-08 DIIS
   @RHF iter  12:   -76.06029230096006   -3.29692e-11   3.58159e-09 DIIS

  ==> Post-Iterations <==

	Orbital Energies (a.u.)
	-----------------------

	Doubly Occupied:                                                      

	   1A    -20.568250     2A     -1.352012     3A     -0.713864  
	   4A     -0.585748     5A     -0.510243  

	Virtual:                                                              

	   6A      0.022067     7A      0.042968     8A      0.050654  
	   9A      0.074043    10A      0.102409    11A      0.123557  
	  12A      0.150862    13A      0.158577    14A      0.175440  
	  15A      0.178969    16A      0.203028    17A      0.226544  
	  18A      0.242420    19A      0.258975    20A      0.275258  
	  21A      0.295576    22A      0.298998    23A      0.318004  
	  24A      0.322000    25A      0.346255    26A      0.376890  
	  27A      0.382042    28A      0.402883    29A      0.406402  
	  30A      0.444490    31A      0.452336    32A      0.479760  
	  33A      0.552992    34A      0.641073    35A      0.658395  
	  36A      0.702405    37A      0.708413    38A      0.720186  
	  39A      0.744801    40A      0.769781    41A      0.770980  
	  42A      0.803165    43A      0.807301    44A      0.824558  
	  45A      0.854972    46A      0.884595    47A      0.889287  
	  48A      0.900740    49A      0.910082    50A      0.948699  
	  51A      0.949216    52A      0.963155    53A      0.988452  
	  54A      0.992832    55A      1.025215    56A      1.028328  
	  57A      1.034188    58A      1.046191    59A      1.068478  
	  60A      1.124710    61A      1.155926    62A      1.170278  
	  63A      1.187546    64A      1.213196    65A      1.235738  
	  66A      1.276778    67A      1.290122    68A      1.335185  
	  69A      1.351061    70A      1.434990    71A      1.463211  
	  72A      1.466472    73A      1.544135    74A      1.614189  
	  75A      1.644355    76A      1.657181    77A      1.766949  
	  78A      1.785950    79A      1.798312    80A      1.810384  
	  81A      1.880624    82A      1.890407    83A      1.939579  
	  84A      2.001032    85A      2.097228    86A      2.104673  
	  87A      2.305457    88A      2.345179    89A      2.393048  
	  90A      2.406429    91A      2.450904    92A      2.488975  
	  93A      2.515803    94A      2.530141    95A      2.566758  
	  96A      2.590962    97A      2.597616    98A      2.646557  
	  99A      2.690848   100A      2.728093   101A      2.763240  
	 102A      2.812263   103A      2.892898   104A      2.894207  
	 105A      2.957484   106A      3.068193   107A      3.091297  
	 108A      3.101330   109A      3.177310   110A      3.244657  
	 111A      3.320809   112A      3.338950   113A      3.498562  
	 114A      3.673611   115A      3.702174   116A      3.808724  
	 117A      4.073148   118A      4.136785   119A      4.214611  
	 120A      4.280646   121A      4.307862   122A      4.325213  
	 123A      4.386992   124A      4.406438   125A      4.407612  
	 126A      4.486758   127A      4.565142   128A      4.600313  
	 129A      4.650991   130A      4.662287   131A      4.718326  
	 132A      4.814054   133A      4.878901   134A      4.935076  
	 135A      5.024229   136A      5.031509   137A      5.185124  
	 138A      5.192688   139A      5.260974   140A      5.329501  
	 141A      5.383268   142A      5.532254   143A      5.546780  
	 144A      5.637118   145A      5.783690   146A      5.827847  
	 147A      5.849872   148A      5.956696   149A      6.260785  
	 150A      6.299537   151A      6.512468   152A      6.549301  
	 153A      6.663295   154A      6.801713   155A      6.997419  
	 156A      7.037074   157A      7.204068   158A      7.290215  
	 159A      7.361317   160A      7.438312   161A      7.455948  
	 162A      7.536617   163A      7.719586   164A      7.805508  
	 165A      7.867324   166A      8.020952   167A      8.114127  
	 168A      8.147160   169A      8.193617   170A      8.372859  
	 171A      8.749476   172A      8.822914   173A      8.959550  
	 174A      9.835192   175A      9.987097   176A     10.108167  
	 177A     10.678413   178A     11.259851   179A     11.876570  
	 180A     12.405152   181A     13.537896   182A     13.842127  
	 183A     16.986881   184A     66.429698  

	Final Occupation by Irrep:
	          A 
	DOCC [     5 ]

  Energy converged.

  @RHF Final Energy:   -76.06029230096006

   => Energetics <=

    Nuclear Repulsion Energy =              9.1567140930790476
    One-Electron Energy =                -122.9737775009782155
    Two-Electron Energy =                  37.7567711069392900
    DFT Exchange-Correlation Energy =       0.0000000000000000
    Empirical Dispersion Energy =           0.0000000000000000
    Total Energy =                        -76.0602923009598726



Properties will be evaluated at   0.000000,   0.000000,   0.000000 Bohr
  ==> Properties <==


Properties computed using the SCF density density matrix
  Nuclear Dipole Moment: (a.u.)
     X:   -23.7970      Y:     1.0376      Z:     0.0337

  Electronic Dipole Moment: (a.u.)
     X:    24.2200      Y:    -0.3741      Z:    -0.0510

  Dipole Moment: (a.u.)
     X:     0.4230      Y:     0.6634      Z:    -0.0173     Total:     0.7870

  Dipole Moment: (Debye)
     X:     1.0752      Y:     1.6863      Z:    -0.0441     Total:     2.0004


  Saving occupied orbitals to File 180.

  Saving SAPT 2-MONOMER_A file.

*** tstop() called on node53.bme.utexas.edu at Thu Feb 13 11:47:56 2014
Module time:
	user time   =       9.60 seconds =       0.16 minutes
	system time =       0.15 seconds =       0.00 minutes
	total time  =          3 seconds =       0.05 minutes
Total time:
	user time   =      23.42 seconds =       0.39 minutes
	system time =       0.40 seconds =       0.01 minutes
	total time  =          7 seconds =       0.12 minutes

  //>>>>>>>>>>>>>>>>>>>>>>>>>>>>>>>>>>>//
  //            Monomer B HF           //
  //<<<<<<<<<<<<<<<<<<<<<<<<<<<<<<<<<<<//


  No DF_BASIS_SCF auxiliary basis selected, defaulting to aug-cc-pvtz-jkfit


*** tstart() called on node53.bme.utexas.edu
*** at Thu Feb 13 11:47:56 2014


         ---------------------------------------------------------
                                   SCF
            by Justin Turney, Rob Parrish, and Andy Simmonett
                              RHF Reference
                        4 Threads,   7000 MiB Core
         ---------------------------------------------------------

  ==> Geometry <==

    Molecular point group: c1
    Full point group: C1

    Geometry (in Angstrom), charge = 0, multiplicity = 1:

       Center              X                  Y                   Z       
    ------------   -----------------  -----------------  -----------------
           O(Gh)     -1.323253859715    -0.045196371708     0.004398009942
           H(Gh)     -1.643251029715     0.857639666292    -0.017032966058
           H(Gh)     -0.363536743715     0.052985380292    -0.000325253058
           O          1.245551034285     0.040360264292    -0.004094029058
           H          1.622172649285    -0.398019801708     0.762030352942
           H          1.617815351285    -0.435852710708    -0.749496531058

  Running in c1 symmetry.

  Nuclear repulsion =    9.172591114257527

  Charge       = 0
  Multiplicity = 1
  Electrons    = 10
  Nalpha       = 5
  Nbeta        = 5

  ==> Algorithm <==

  SCF Algorithm Type is DF.
  DIIS enabled.
  MOM disabled.
  Fractional occupation disabled.
  Guess Type is CORE.
  Energy threshold   = 1.00e-08
  Density threshold  = 1.00e-08
  Integral threshold = 0.00e+00

  ==> Primary Basis <==

  Basis Set: AUG-CC-PVTZ
    Number of shells: 64
    Number of basis function: 184
    Number of Cartesian functions: 210
    Spherical Harmonics?: true
    Max angular momentum: 3

  ==> Pre-Iterations <==

   -------------------------------------------------------
    Irrep   Nso     Nmo     Nalpha   Nbeta   Ndocc  Nsocc
   -------------------------------------------------------
     A        184     184       0       0       0       0
   -------------------------------------------------------
    Total     184     184       5       5       5       0
   -------------------------------------------------------

 OEINTS: Wrapper to libmints.
   by Justin Turney

   Calculation information:
      Number of atoms:                   6
      Number of AO shells:              64
      Number of SO shells:              64
      Number of primitives:            104
      Number of atomic orbitals:       210
      Number of basis functions:       184

      Number of irreps:                  1
      Number of functions per irrep: [ 184 ]

      Overlap, kinetic, potential, dipole, and quadrupole integrals
        stored in file 35.

  ==> Integral Setup <==

  ==> DFJK: Density-Fitted J/K Matrices <==

    J tasked:                  Yes
    K tasked:                  Yes
    wK tasked:                  No
    OpenMP threads:              4
    Integrals threads:           4
    Memory (MB):              5006
    Algorithm:                Core
    Integral Cache:           LOAD
    Schwarz Cutoff:          0E+00
    Fitting Condition:       1E-12

   => Auxiliary Basis Set <=

  Basis Set: aug-cc-pvtz-jkfit
    Number of shells: 116
    Number of basis function: 392
    Number of Cartesian functions: 482
    Spherical Harmonics?: true
    Max angular momentum: 4

  Minimum eigenvalue in the overlap matrix is 2.0849797252E-04.
  Using Symmetric Orthogonalization.
  SCF Guess: Core (One-Electron) Hamiltonian.

  Guess energy:   -60.18668609175022

  ==> Iterations <==

                        Total Energy        Delta E     RMS |[F,P]|

   @RHF iter   1:   -61.29389876530692   -6.12939e+01   4.39486e-02 
   @RHF iter   2:   -62.52622289147189   -1.23232e+00   1.54752e-02 DIIS
   @RHF iter   3:   -72.64367610668464   -1.01175e+01   1.86186e-02 DIIS
   @RHF iter   4:   -75.16753203471332   -2.52386e+00   8.59416e-03 DIIS
   @RHF iter   5:   -76.03718212783633   -8.69650e-01   1.05925e-03 DIIS
   @RHF iter   6:   -76.05976651182731   -2.25844e-02   2.66552e-04 DIIS
   @RHF iter   7:   -76.06049292774021   -7.26416e-04   4.31049e-05 DIIS
   @RHF iter   8:   -76.06051453253984   -2.16048e-05   7.19559e-06 DIIS
   @RHF iter   9:   -76.06051525535371   -7.22814e-07   1.05634e-06 DIIS
   @RHF iter  10:   -76.06051527795174   -2.25980e-08   1.12954e-07 DIIS
   @RHF iter  11:   -76.06051527831315   -3.61410e-10   4.09486e-08 DIIS
   @RHF iter  12:   -76.06051527834708   -3.39355e-11   6.21559e-09 DIIS

  ==> Post-Iterations <==

	Orbital Energies (a.u.)
	-----------------------

	Doubly Occupied:                                                      

	   1A    -20.567651     2A     -1.352623     3A     -0.715301  
	   4A     -0.585468     5A     -0.510306  

	Virtual:                                                              

	   6A      0.026395     7A      0.046612     8A      0.047452  
	   9A      0.069456    10A      0.124395    11A      0.142810  
	  12A      0.145083    13A      0.158776    14A      0.166147  
	  15A      0.183374    16A      0.205026    17A      0.229175  
	  18A      0.230351    19A      0.250412    20A      0.286793  
	  21A      0.297608    22A      0.308681    23A      0.323025  
	  24A      0.373158    25A      0.375285    26A      0.376220  
	  27A      0.403331    28A      0.406097    29A      0.430488  
	  30A      0.446941    31A      0.467886    32A      0.487324  
	  33A      0.544590    34A      0.616757    35A      0.655045  
	  36A      0.708503    37A      0.709540    38A      0.730638  
	  39A      0.752397    40A      0.781994    41A      0.794219  
	  42A      0.820838    43A      0.831796    44A      0.839663  
	  45A      0.856126    46A      0.877770    47A      0.890168  
	  48A      0.917557    49A      0.924407    50A      0.939852  
	  51A      0.974588    52A      0.991617    53A      0.996783  
	  54A      1.008188    55A      1.032660    56A      1.033959  
	  57A      1.043530    58A      1.063342    59A      1.070393  
	  60A      1.111039    61A      1.160615    62A      1.164297  
	  63A      1.208768    64A      1.220476    65A      1.256113  
	  66A      1.279077    67A      1.314467    68A      1.361319  
	  69A      1.379618    70A      1.444236    71A      1.517652  
	  72A      1.595873    73A      1.603174    74A      1.643918  
	  75A      1.660975    76A      1.727404    77A      1.766726  
	  78A      1.797508    79A      1.848838    80A      1.866432  
	  81A      1.871552    82A      1.887749    83A      1.896410  
	  84A      2.088407    85A      2.110090    86A      2.160844  
	  87A      2.210484    88A      2.347894    89A      2.401943  
	  90A      2.434990    91A      2.490794    92A      2.494091  
	  93A      2.527741    94A      2.564605    95A      2.567618  
	  96A      2.592505    97A      2.654191    98A      2.681003  
	  99A      2.721817   100A      2.731605   101A      2.785752  
	 102A      2.803298   103A      2.831542   104A      2.892054  
	 105A      2.934927   106A      2.980283   107A      3.066162  
	 108A      3.135019   109A      3.219944   110A      3.236019  
	 111A      3.443560   112A      3.574300   113A      3.622346  
	 114A      3.643475   115A      3.839006   116A      3.908695  
	 117A      3.988082   118A      4.126972   119A      4.216894  
	 120A      4.284834   121A      4.389451   122A      4.417151  
	 123A      4.482661   124A      4.504983   125A      4.518283  
	 126A      4.555577   127A      4.576113   128A      4.640324  
	 129A      4.679770   130A      4.726096   131A      4.795020  
	 132A      4.804509   133A      4.893118   134A      4.960304  
	 135A      4.984106   136A      4.998000   137A      5.199011  
	 138A      5.222886   139A      5.272274   140A      5.338400  
	 141A      5.385086   142A      5.406630   143A      5.601898  
	 144A      5.659722   145A      5.675961   146A      5.808461  
	 147A      5.893696   148A      6.000473   149A      6.215798  
	 150A      6.329769   151A      6.573428   152A      6.577535  
	 153A      6.717280   154A      6.954667   155A      6.988535  
	 156A      7.215589   157A      7.276318   158A      7.321365  
	 159A      7.394179   160A      7.430341   161A      7.432913  
	 162A      7.572065   163A      7.752869   164A      7.789078  
	 165A      7.924149   166A      7.953764   167A      8.126020  
	 168A      8.162082   169A      8.332011   170A      8.455527  
	 171A      8.953645   172A      8.959258   173A      9.101626  
	 174A      9.722231   175A      9.883188   176A     10.139625  
	 177A     10.419544   178A     11.394442   179A     11.918703  
	 180A     12.418957   181A     13.713756   182A     14.011939  
	 183A     16.693232   184A     66.966900  

	Final Occupation by Irrep:
	          A 
	DOCC [     5 ]

  Energy converged.

  @RHF Final Energy:   -76.06051527834708

   => Energetics <=

    Nuclear Repulsion Energy =              9.1725911142575267
    One-Electron Energy =                -123.0035082091212786
    Two-Electron Energy =                  37.7704018165166815
    DFT Exchange-Correlation Energy =       0.0000000000000000
    Empirical Dispersion Energy =           0.0000000000000000
    Total Energy =                        -76.0605152783470686



Properties will be evaluated at   0.000000,   0.000000,   0.000000 Bohr
  ==> Properties <==


Properties computed using the SCF density density matrix
  Nuclear Dipole Moment: (a.u.)
     X:    24.9527      Y:    -0.9656      Z:    -0.0382

  Electronic Dipole Moment: (a.u.)
     X:   -24.4562      Y:     0.3598      Z:     0.0519

  Dipole Moment: (a.u.)
     X:     0.4965      Y:    -0.6058      Z:     0.0137     Total:     0.7834

  Dipole Moment: (Debye)
     X:     1.2620      Y:    -1.5398      Z:     0.0349     Total:     1.9912


  Saving occupied orbitals to File 180.

  Saving SAPT 2-MONOMER_B file.

*** tstop() called on node53.bme.utexas.edu at Thu Feb 13 11:47:58 2014
Module time:
	user time   =       9.93 seconds =       0.17 minutes
	system time =       0.12 seconds =       0.00 minutes
	total time  =          2 seconds =       0.03 minutes
Total time:
	user time   =      33.44 seconds =       0.56 minutes
	system time =       0.53 seconds =       0.01 minutes
	total time  =          9 seconds =       0.15 minutes
  No DF_BASIS_SAPT auxiliary basis selected, defaulting to aug-cc-pvtz-ri

  //>>>>>>>>>>>>>>>>>>>>>>>>>>>>>>>>>>>//
  //               SAPT2+              //
  //<<<<<<<<<<<<<<<<<<<<<<<<<<<<<<<<<<<//


*** tstart() called on node53.bme.utexas.edu
*** at Thu Feb 13 11:47:58 2014

        SAPT2+  
    Ed Hohenstein
     6 June 2009

      Orbital Information
  --------------------------
    NSO        =       184
    NMO        =       184
    NRI        =       396
    NOCC A     =         5
    NOCC B     =         5
    FOCC A     =         1
    FOCC B     =         1
    NVIR A     =       179
    NVIR B     =       179

    Estimated memory usage: 120.7 MB

    Elst10,r            =    -0.026195765662 H
    Exch10 (S^2)        =     0.036596059537 H
    Exch10              =     0.037352891448 H
    Ind20,r (A<-B)      =    -0.006429946840 H
    Ind20,r (B<-A)      =    -0.010036684600 H
    Ind20,r             =    -0.016466631441 H
    Exch-Ind20,r (A<-B) =     0.005450446819 H
    Exch-Ind20,r (B<-A) =     0.005043785874 H
    Exch-Ind20,r        =     0.010494232693 H
    Disp20              =    -0.009064782118 H
    Exch-Disp20         =     0.002087577753 H
    Elst12,r            =    -0.000077767362 H
    Exch11              =     0.000421926197 H
    Exch12              =     0.003680129890 H
    Ind22               =    -0.002258875278 H
    Disp21              =     0.000414181900 H
    Disp22 (SDQ)        =    -0.000128203249 H

    (i =   1 of   4)         13 seconds
    (i =   2 of   4)         26 seconds
    (i =   3 of   4)         39 seconds
    (i =   4 of   4)         53 seconds

    Disp220 (T)         =    -0.000730391070 H

    (i =   1 of   4)         13 seconds
    (i =   2 of   4)         26 seconds
    (i =   3 of   4)         39 seconds
    (i =   4 of   4)         52 seconds

    Disp202 (T)         =    -0.000652577093 H

    Disp22 (T)          =    -0.001382968163 H

    SAPT Results  
  -----------------------------------------------------------------------
    Electrostatics         -26.27353302 mH     -16.48689157 kcal mol^-1
      Elst10,r             -26.19576566 mH     -16.43809181 kcal mol^-1
      Elst12,r              -0.07776736 mH      -0.04879976 kcal mol^-1

    Exchange                41.45494754 mH      26.01337340 kcal mol^-1
      Exch10                37.35289145 mH      23.43929424 kcal mol^-1
      Exch10(S^2)           36.59605954 mH      22.96437502 kcal mol^-1
      Exch11(S^2)            0.42192620 mH       0.26476270 kcal mol^-1
      Exch12(S^2)            3.68012989 mH       2.30931647 kcal mol^-1

    Induction              -11.63421164 mH      -7.30057833 kcal mol^-1
      Ind20,r              -16.46663144 mH     -10.33296766 kcal mol^-1
      Ind22                 -2.25887528 mH      -1.41746570 kcal mol^-1
      Exch-Ind20,r          10.49423269 mH       6.58523071 kcal mol^-1
      Exch-Ind22             1.43958786 mH       0.90335506 kcal mol^-1
      delta HF,r (2)        -4.84252548 mH      -3.03873074 kcal mol^-1

    Dispersion              -8.07419388 mH      -5.06663336 kcal mol^-1
      Disp20                -9.06478212 mH      -5.68823689 kcal mol^-1
      Disp21                 0.41418190 mH       0.25990308 kcal mol^-1
      Disp22 (SDQ)          -0.12820325 mH      -0.08044876 kcal mol^-1
      Disp22 (T)            -1.38296816 mH      -0.86782566 kcal mol^-1
      Exch-Disp20            2.08757775 mH       1.30997487 kcal mol^-1

    Total HF                 0.34220156 mH       0.21473473 kcal mol^-1
    Total SAPT0             -6.63500280 mH      -4.16352729 kcal mol^-1
    Total SAPT2             -3.43000149 mH      -2.15235852 kcal mol^-1
    Total SAPT2+            -4.52699100 mH      -2.84072986 kcal mol^-1

*** tstop() called on node53.bme.utexas.edu at Thu Feb 13 11:51:04 2014
Module time:
	user time   =     726.35 seconds =      12.11 minutes
	system time =       8.11 seconds =       0.14 minutes
	total time  =        186 seconds =       3.10 minutes
Total time:
	user time   =     759.80 seconds =      12.66 minutes
	system time =       8.64 seconds =       0.14 minutes
	total time  =        195 seconds =       3.25 minutes

*** PSI4 exiting successfully. Buy a developer a beer!
    -----------------------------------------------------------------------
          PSI4: An Open-Source Ab Initio Electronic Structure Package
                              PSI 4.0.0-beta4 Driver

    J. M. Turney, A. C. Simmonett, R. M. Parrish, E. G. Hohenstein,
    F. A. Evangelista, J. T. Fermann, B. J. Mintz, L. A. Burns, J. J. Wilke,
    M. L. Abrams, N. J. Russ, M. L. Leininger, C. L. Janssen, E. T. Seidl,
    W. D. Allen, H. F. Schaefer, R. A. King, E. F. Valeev, C. D. Sherrill,
    and T. D. Crawford, WIREs Comput. Mol. Sci., (2011) (doi: 10.1002/wcms.93)

                         Additional Contributions by
    A. E. DePrince, M. Saitow, U. Bozkaya, A. Yu. Sokolov
    -----------------------------------------------------------------------

    Process ID:   7592
    PSI4DATADIR: /home/xzhu216/psi4/psi4-install/share/psi

    Using LocalCommunicator (Number of processes = 1)

    Memory level set to 256.000 MB

  ==> Input File <==

--------------------------------------------------------------------------
#psi4
#
memory 3 gb

molecule Water_Water {
0 1
O   -0.702196054  -0.056060256   0.009942262
H   -1.022193224   0.846775782  -0.011488714
H    0.257521062   0.042121496   0.005218999
--
0 1
O    2.067772248   0.027918025   0.000979062
H    2.444393863  -0.410462041   0.767103444
H    2.440036565  -0.448294950  -0.744423440
units angstrom
no_reorient  #important for SAPT in psi4, default
symmetry c1  #important for SAPT in psi4, default
}

set {
basis aug-cc-pVTZ
scf_type DF
freeze_core True
}
energy('sapt2+')
--------------------------------------------------------------------------

  Memory set to   3.000 GiB by Python script.

  //>>>>>>>>>>>>>>>>>>>>>>>>>>>>>>>>>>>//
  //              Dimer HF             //
  //<<<<<<<<<<<<<<<<<<<<<<<<<<<<<<<<<<<//


  No DF_BASIS_SCF auxiliary basis selected, defaulting to aug-cc-pvtz-jkfit


*** tstart() called on node62.bme.utexas.edu
*** at Fri Sep 20 14:10:07 2013


         ---------------------------------------------------------
                                   SCF
            by Justin Turney, Rob Parrish, and Andy Simmonett
                              RHF Reference
                        4 Threads,   3000 MiB Core
         ---------------------------------------------------------

  ==> Geometry <==

    Molecular point group: c1
    Full point group: C1

    Geometry (in Angstrom), charge = 0, multiplicity = 1:

       Center              X                  Y                   Z       
    ------------   -----------------  -----------------  -----------------
           O         -1.423835563715    -0.044407194208     0.004633590442
           H         -1.743832733715     0.858428843792    -0.016797385558
           H         -0.464118447715     0.053774557792    -0.000089672558
           O          1.346132738285     0.039571086792    -0.004329609558
           H          1.722754353285    -0.398808979208     0.761794772442
           H          1.718397055285    -0.436641888208    -0.749732111558

  Running in c1 symmetry.

  Nuclear repulsion =   37.543258906903453

  Charge       = 0
  Multiplicity = 1
  Electrons    = 20
  Nalpha       = 10
  Nbeta        = 10

  ==> Algorithm <==

  SCF Algorithm Type is DF.
  DIIS enabled.
  MOM disabled.
  Fractional occupation disabled.
  Guess Type is CORE.
  Energy threshold   = 1.00e-08
  Density threshold  = 1.00e-08
  Integral threshold = 0.00e+00

  ==> Primary Basis <==

  Basis Set: AUG-CC-PVTZ
    Number of shells: 64
    Number of basis function: 184
    Number of Cartesian functions: 210
    Spherical Harmonics?: true
    Max angular momentum: 3

  ==> Pre-Iterations <==

   -------------------------------------------------------
    Irrep   Nso     Nmo     Nalpha   Nbeta   Ndocc  Nsocc
   -------------------------------------------------------
     A        184     184       0       0       0       0
   -------------------------------------------------------
    Total     184     184      10      10      10       0
   -------------------------------------------------------

 OEINTS: Wrapper to libmints.
   by Justin Turney

   Calculation information:
      Number of atoms:                   6
      Number of AO shells:              64
      Number of SO shells:              64
      Number of primitives:            104
      Number of atomic orbitals:       210
      Number of basis functions:       184

      Number of irreps:                  1
      Number of functions per irrep: [ 184 ]

      Overlap, kinetic, potential, dipole, and quadrupole integrals
        stored in file 35.

  ==> Integral Setup <==

  ==> DFJK: Density-Fitted J/K Matrices <==

    J tasked:                  Yes
    K tasked:                  Yes
    wK tasked:                  No
    OpenMP threads:              4
    Integrals threads:           4
    Memory (MB):              2145
    Algorithm:                Core
[...]
     150A      6.186769   151A      6.380576   152A      6.523147  
     153A      6.597492   154A      6.714656   155A      6.910710  
     156A      7.052252   157A      7.136204   158A      7.259413  
     159A      7.295637   160A      7.321170   161A      7.343964  
     162A      7.361413   163A      7.544449   164A      7.659662  
     165A      7.808528   166A      7.898339   167A      7.939297  
     168A      8.046533   169A      8.147912   170A      8.273661  
     171A      8.721504   172A      8.814582   173A      8.818601  
     174A      9.630948   175A      9.842238   176A      9.981123  
     177A     10.210499   178A     11.232446   179A     11.605123  
     180A     12.093479   181A     13.482347   182A     13.754341  
     183A     15.735696   184A     64.503818  

    Final Occupation by Irrep:
              A 
    DOCC [     5 ]

  @DF-RHF Final Energy:   -76.06021611416658

   => Energetics <=

    Nuclear Repulsion Energy =              9.1566960196599947
    One-Electron Energy =                -122.9730504914962097
    Two-Electron Energy =                  37.7561383576696272
    Total Energy =                        -76.0602161141665931

Computation Completed


Properties will be evaluated at   0.000000,   0.000000,   0.000000 [a0]

Properties computed using the SCF density matrix

  Nuclear Dipole Moment: [e a0]
     X:   -44.7030      Y:     1.2017      Z:     0.0826

  Electronic Dipole Moment: [e a0]
     X:    45.1257      Y:    -0.5380      Z:    -0.0999

  Dipole Moment: [e a0]
     X:     0.4227      Y:     0.6636      Z:    -0.0173     Total:     0.7870

  Dipole Moment: [D]
     X:     1.0744      Y:     1.6867      Z:    -0.0441     Total:     2.0003


*** tstop() called on node73.bme.utexas.edu at Thu Apr 23 16:23:00 2020
Module time:
	user time   =       9.85 seconds =       0.16 minutes
	system time =       0.58 seconds =       0.01 minutes
	total time  =          2 seconds =       0.03 minutes
Total time:
	user time   =      23.18 seconds =       0.39 minutes
	system time =       1.37 seconds =       0.02 minutes
	total time  =          4 seconds =       0.07 minutes

  //>>>>>>>>>>>>>>>>>>>>>>>>>>>>>>>>>>>//
  //            Monomer B HF           //
  //<<<<<<<<<<<<<<<<<<<<<<<<<<<<<<<<<<<//


*** tstart() called on node73.bme.utexas.edu
*** at Thu Apr 23 16:23:00 2020

   => Loading Basis Set <=

    Name: AUG-CC-PVTZ
    Role: ORBITAL
    Keyword: BASIS
    atoms 1, 4     entry O          line   331 file /home/liuchw/anaconda3/envs/psi4env/share/psi4/basis/aug-cc-pvtz.gbs 
    atoms 2-3, 5-6 entry H          line    40 file /home/liuchw/anaconda3/envs/psi4env/share/psi4/basis/aug-cc-pvtz.gbs 


         ---------------------------------------------------------
                                   SCF
               by Justin Turney, Rob Parrish, Andy Simmonett
                          and Daniel G. A. Smith
                              RHF Reference
                        8 Threads,  47683 MiB Core
         ---------------------------------------------------------

  ==> Geometry <==

    Molecular point group: c1
    Full point group: C1

    Geometry (in Angstrom), charge = 0, multiplicity = 1:

       Center              X                  Y                   Z               Mass       
    ------------   -----------------  -----------------  -----------------  -----------------
      Gh(O)          -2.429552087624    -0.036513200625     0.006986924440    15.994914619570
      Gh(H)          -2.749542087624     0.866326799375    -0.014443075560     1.007825032230
      Gh(H)          -1.469832087624     0.061666799375     0.002266924440     1.007825032230
         O            2.351847912376     0.031676799375    -0.006683075560    15.994914619570
         H            2.728477912376    -0.406703200625     0.759436924440     1.007825032230
         H            2.724117912376    -0.444533200625    -0.752083075560     1.007825032230

  Running in c1 symmetry.

  Rotational constants: A =      7.35635  B =      0.08073  C =      0.08072 [cm^-1]
  Rotational constants: A = 220537.69355  B =   2420.08369  C =   2419.93899 [MHz]
  Nuclear repulsion =    9.172599436212028

  Charge       = 0
  Multiplicity = 1
  Electrons    = 10
  Nalpha       = 5
  Nbeta        = 5

  ==> Algorithm <==

  SCF Algorithm Type is DF.
  DIIS enabled.
  MOM disabled.
  Fractional occupation disabled.
  Guess Type is SAD.
  Energy threshold   = 1.00e-08
  Density threshold  = 1.00e-08
  Integral threshold = 0.00e+00

  ==> Primary Basis <==

  Basis Set: AUG-CC-PVTZ
    Blend: AUG-CC-PVTZ
    Number of shells: 64
    Number of basis function: 184
    Number of Cartesian functions: 210
    Spherical Harmonics?: true
    Max angular momentum: 3

   => Loading Basis Set <=

    Name: (AUG-CC-PVTZ AUX)
    Role: JKFIT
    Keyword: DF_BASIS_SCF
    atoms 1, 4     entry O          line   286 file /home/liuchw/anaconda3/envs/psi4env/share/psi4/basis/aug-cc-pvtz-jkfit.gbs 
    atoms 2-3, 5-6 entry H          line    70 file /home/liuchw/anaconda3/envs/psi4env/share/psi4/basis/aug-cc-pvtz-jkfit.gbs 

  ==> Pre-Iterations <==

   -------------------------------------------------------
    Irrep   Nso     Nmo     Nalpha   Nbeta   Ndocc  Nsocc
   -------------------------------------------------------
     A        184     184       0       0       0       0
   -------------------------------------------------------
    Total     184     184       5       5       5       0
   -------------------------------------------------------

  ==> Integral Setup <==

  ==> DiskDFJK: Density-Fitted J/K Matrices <==

    J tasked:                  Yes
    K tasked:                  Yes
    wK tasked:                  No
    OpenMP threads:              8
    Integrals threads:           8
    Memory [MiB]:            35762
    Algorithm:                Core
    Integral Cache:           LOAD
    Schwarz Cutoff:          1E-12
    Fitting Condition:       1E-10

   => Auxiliary Basis Set <=

  Basis Set: (AUG-CC-PVTZ AUX)
    Blend: AUG-CC-PVTZ-JKFIT
    Number of shells: 116
    Number of basis function: 392
    Number of Cartesian functions: 482
    Spherical Harmonics?: true
    Max angular momentum: 4

  Minimum eigenvalue in the overlap matrix is 3.3903887447E-04.
  Using Symmetric Orthogonalization.

  SCF Guess: Superposition of Atomic Densities via on-the-fly atomic UHF.

  ==> Iterations <==

                           Total Energy        Delta E     RMS |[F,P]|

   @DF-RHF iter SAD:   -75.47583109389012   -7.54758e+01   0.00000e+00 
   @DF-RHF iter   1:   -75.97599792820733   -5.00167e-01   2.54606e-03 DIIS
   @DF-RHF iter   2:   -76.02850147709921   -5.25035e-02   1.73657e-03 DIIS
   @DF-RHF iter   3:   -76.05998577642526   -3.14843e-02   1.17949e-04 DIIS
   @DF-RHF iter   4:   -76.06037453044760   -3.88754e-04   2.82426e-05 DIIS
   @DF-RHF iter   5:   -76.06039883241866   -2.43020e-05   6.41166e-06 DIIS
   @DF-RHF iter   6:   -76.06040081890626   -1.98649e-06   1.40280e-06 DIIS
   @DF-RHF iter   7:   -76.06040092347665   -1.04570e-07   2.52579e-07 DIIS
   @DF-RHF iter   8:   -76.06040092645890   -2.98225e-09   4.23462e-08 DIIS
   @DF-RHF iter   9:   -76.06040092652422   -6.53273e-11   1.03671e-08 DIIS
   @DF-RHF iter  10:   -76.06040092652796   -3.73745e-12   1.52478e-09 DIIS
  Energy and wave function converged.


  ==> Post-Iterations <==

    Orbital Energies [Eh]
    ---------------------

    Doubly Occupied:                                                      

       1A    -20.567876     2A     -1.352753     3A     -0.715427  
       4A     -0.585579     5A     -0.510323  

    Virtual:                                                              

       6A      0.027190     7A      0.040042     8A      0.047643  
       9A      0.064776    10A      0.124498    11A      0.133420  
      12A      0.140345    13A      0.147789    14A      0.171251  
      15A      0.181839    16A      0.182740    17A      0.209751  
      18A      0.227334    19A      0.248359    20A      0.257417  
      21A      0.272597    22A      0.288972    23A      0.303449  
      24A      0.311024    25A      0.327290    26A      0.328132  
      27A      0.369092    28A      0.382459    29A      0.405313  
      30A      0.424843    31A      0.442154    32A      0.466821  
      33A      0.477726    34A      0.600316    35A      0.628075  
      36A      0.660158    37A      0.664594    38A      0.723797  
      39A      0.724317    40A      0.736735    41A      0.777210  
      42A      0.789872    43A      0.813157    44A      0.819947  
      45A      0.826131    46A      0.830369    47A      0.857406  
      48A      0.864645    49A      0.891221    50A      0.910184  
      51A      0.912681    52A      0.914022    53A      0.934256  
      54A      0.949004    55A      0.952903    56A      0.969047  
      57A      0.984706    58A      0.998460    59A      1.025151  
      60A      1.037658    61A      1.045047    62A      1.046930  
      63A      1.064331    64A      1.079241    65A      1.113587  
      66A      1.129801    67A      1.180790    68A      1.186364  
      69A      1.202029    70A      1.219753    71A      1.229244  
      72A      1.264841    73A      1.450284    74A      1.467841  
      75A      1.510886    76A      1.548347    77A      1.595995  
      78A      1.695929    79A      1.708021    80A      1.738621  
      81A      1.808087    82A      1.824920    83A      1.828444  
      84A      1.876609    85A      1.986686    86A      2.078396  
      87A      2.122329    88A      2.271792    89A      2.316245  
      90A      2.332691    91A      2.393548    92A      2.398619  
      93A      2.428979    94A      2.437418    95A      2.445976  
      96A      2.493077    97A      2.528214    98A      2.538304  
      99A      2.549707   100A      2.557842   101A      2.569354  
     102A      2.637127   103A      2.677385   104A      2.722724  
     105A      2.780032   106A      2.815890   107A      2.886470  
     108A      2.892173   109A      3.161949   110A      3.164902  
     111A      3.178784   112A      3.313002   113A      3.333552  
     114A      3.524501   115A      3.655947   116A      3.682602  
     117A      3.772194   118A      4.020712   119A      4.103947  
     120A      4.171954   121A      4.252260   122A      4.287301  
     123A      4.362087   124A      4.377586   125A      4.381472  
     126A      4.411707   127A      4.430697   128A      4.470544  
     129A      4.521435   130A      4.604424   131A      4.654573  
     132A      4.667586   133A      4.744995   134A      4.849936  
     135A      4.866092   136A      4.872144   137A      4.886923  
     138A      5.153298   139A      5.153628   140A      5.207028  
     141A      5.252152   142A      5.332902   143A      5.528604  
     144A      5.555080   145A      5.612357   146A      5.653915  
     147A      5.677997   148A      5.852320   149A      6.117172  
     150A      6.190665   151A      6.392263   152A      6.516487  
     153A      6.613679   154A      6.718170   155A      6.908921  
     156A      7.061963   157A      7.148654   158A      7.278226  
     159A      7.304756   160A      7.320091   161A      7.351869  
     162A      7.363412   163A      7.544857   164A      7.669645  
     165A      7.825615   166A      7.903952   167A      7.931504  
     168A      8.046788   169A      8.155044   170A      8.289333  
     171A      8.733406   172A      8.814869   173A      8.834484  
     174A      9.626227   175A      9.833754   176A      9.993915  
     177A     10.224698   178A     11.238541   179A     11.611489  
     180A     12.086302   181A     13.492981   182A     13.799283  
     183A     15.766958   184A     64.454599  

    Final Occupation by Irrep:
              A 
    DOCC [     5 ]

  @DF-RHF Final Energy:   -76.06040092652796

   => Energetics <=

    Nuclear Repulsion Energy =              9.1725994362120282
    One-Electron Energy =                -123.0020847549602365
    Two-Electron Energy =                  37.7690843922202362
    Total Energy =                        -76.0604009265279757

Computation Completed


Properties will be evaluated at   0.000000,   0.000000,   0.000000 [a0]

Properties computed using the SCF density matrix

  Nuclear Dipole Moment: [e a0]
     X:    45.8587      Y:    -1.1297      Z:    -0.0871

  Electronic Dipole Moment: [e a0]
     X:   -45.3614      Y:     0.5230      Z:     0.1009

  Dipole Moment: [e a0]
     X:     0.4973      Y:    -0.6067      Z:     0.0137     Total:     0.7846

  Dipole Moment: [D]
     X:     1.2639      Y:    -1.5421      Z:     0.0349     Total:     1.9942


*** tstop() called on node73.bme.utexas.edu at Thu Apr 23 16:23:01 2020
Module time:
	user time   =      10.65 seconds =       0.18 minutes
	system time =       0.66 seconds =       0.01 minutes
	total time  =          1 seconds =       0.02 minutes
Total time:
	user time   =      33.88 seconds =       0.56 minutes
	system time =       2.03 seconds =       0.03 minutes
	total time  =          5 seconds =       0.08 minutes
  Constructing Basis Sets for SAPT...

   => Loading Basis Set <=

    Name: (AUG-CC-PVTZ AUX)
    Role: RIFIT
    Keyword: DF_BASIS_SAPT
    atoms 1, 4     entry O          line   264 file /home/liuchw/anaconda3/envs/psi4env/share/psi4/basis/aug-cc-pvtz-ri.gbs 
    atoms 2-3, 5-6 entry H          line    30 file /home/liuchw/anaconda3/envs/psi4env/share/psi4/basis/aug-cc-pvtz-ri.gbs 


  //>>>>>>>>>>>>>>>>>>>>>>>>>>>>>>>>>>>//
  //               SAPT2+              //
  //<<<<<<<<<<<<<<<<<<<<<<<<<<<<<<<<<<<//


*** tstart() called on node73.bme.utexas.edu
*** at Thu Apr 23 16:23:02 2020

        SAPT2+  
    Ed Hohenstein
     6 June 2009

      Orbital Information
  --------------------------
    NSO        =       184
    NMO        =       184
    NRI        =       396
    NOCC A     =         5
    NOCC B     =         5
    FOCC A     =         1
    FOCC B     =         1
    NVIR A     =       179
    NVIR B     =       179

    Estimated memory usage: 120.7 MB

    Natural Orbital Cutoff:   1.000E-06
    Disp(T3) Truncation:            Yes
    CCD (vv|vv) Truncation:         Yes
    MBPT T2 Truncation:             Yes

    Monomer A: 102 virtual orbitals dropped
    Monomer B: 102 virtual orbitals dropped

    Elst10,r            =    -0.001630674937 [Eh]
    Exch10 (S^2)        =     0.000010402563 [Eh]
    Exch10              =     0.000010402705 [Eh]
    Ind20,r (A<-B)      =    -0.000022330590 [Eh]
    Ind20,r (B<-A)      =    -0.000023735973 [Eh]
    Ind20,r             =    -0.000046066564 [Eh]
    Exch-Ind20,r (A<-B) =     0.000000227179 [Eh]
    Exch-Ind20,r (B<-A) =     0.000001117957 [Eh]
    Exch-Ind20,r        =     0.000001345136 [Eh]
    Disp20              =    -0.000112873779 [Eh]
    Disp20 (NO)         =    -0.000104844613 [Eh]
    Exch-Disp20         =     0.000001190019 [Eh]
    Elst12,r            =     0.000151099649 [Eh]
    Exch11              =     0.000000057138 [Eh]
    Exch12              =     0.000004421967 [Eh]
    Ind22               =    -0.000001585530 [Eh]
    Disp21              =     0.000002569910 [Eh]
    Disp22 (SDQ)        =    -0.000002247698 [Eh]

    (i =   1 of   4)          1 seconds
    (i =   2 of   4)          1 seconds
    (i =   3 of   4)          1 seconds
    (i =   4 of   4)          1 seconds

    Disp220 (T)         =    -0.000010201317 [Eh]

    (i =   1 of   4)          0 seconds
    (i =   2 of   4)          0 seconds
    (i =   3 of   4)          1 seconds
    (i =   4 of   4)          1 seconds

    Disp202 (T)         =    -0.000009767664 [Eh]

    Disp22 (T)          =    -0.000019968981 [Eh]

    Est. Disp220 (T)    =    -0.000010982550 [Eh]
    Est. Disp202 (T)    =    -0.000010515688 [Eh]

    Est. Disp22 (T)     =    -0.000021498237 [Eh]

    SAPT Results 
  --------------------------------------------------------------------------------------------------------
    Electrostatics                 -1.47957529 [mEh]      -0.92844751 [kcal/mol]      -3.88462438 [kJ/mol]
      Elst10,r                     -1.63067494 [mEh]      -1.02326397 [kcal/mol]      -4.28133646 [kJ/mol]
      Elst12,r                      0.15109965 [mEh]       0.09481646 [kcal/mol]       0.39671208 [kJ/mol]

    Exchange                        0.01488181 [mEh]       0.00933848 [kcal/mol]       0.03907219 [kJ/mol]
      Exch10                        0.01040270 [mEh]       0.00652780 [kcal/mol]       0.02731230 [kJ/mol]
      Exch10(S^2)                   0.01040256 [mEh]       0.00652771 [kcal/mol]       0.02731192 [kJ/mol]
      Exch11(S^2)                   0.00005714 [mEh]       0.00003585 [kcal/mol]       0.00015002 [kJ/mol]
      Exch12(S^2)                   0.00442197 [mEh]       0.00277483 [kcal/mol]       0.01160987 [kJ/mol]

    Induction                      -0.04827461 [mEh]      -0.03029277 [kcal/mol]      -0.12674496 [kJ/mol]
      Ind20,r                      -0.04606656 [mEh]      -0.02890721 [kcal/mol]      -0.12094775 [kJ/mol]
      Ind22                        -0.00158553 [mEh]      -0.00099494 [kcal/mol]      -0.00416281 [kJ/mol]
      Exch-Ind20,r                  0.00134514 [mEh]       0.00084409 [kcal/mol]       0.00353165 [kJ/mol]
      Exch-Ind22                    0.00004630 [mEh]       0.00002905 [kcal/mol]       0.00012155 [kJ/mol]
      delta HF,r (2)               -0.00201395 [mEh]      -0.00126377 [kcal/mol]      -0.00528762 [kJ/mol]

    Dispersion                     -0.13285978 [mEh]      -0.08337077 [kcal/mol]      -0.34882332 [kJ/mol]
      Disp20                       -0.11287378 [mEh]      -0.07082937 [kcal/mol]      -0.29635007 [kJ/mol]
      Disp21                        0.00256991 [mEh]       0.00161264 [kcal/mol]       0.00674730 [kJ/mol]
      Disp22 (SDQ)                 -0.00224770 [mEh]      -0.00141045 [kcal/mol]      -0.00590133 [kJ/mol]
      Disp22 (T)                   -0.01996898 [mEh]      -0.01253072 [kcal/mol]      -0.05242855 [kJ/mol]
      Est. Disp22 (T)              -0.02149824 [mEh]      -0.01349035 [kcal/mol]      -0.05644361 [kJ/mol]
      Exch-Disp20                   0.00119002 [mEh]       0.00074675 [kcal/mol]       0.00312439 [kJ/mol]

  Total HF                         -1.66700761 [mEh]      -1.04606307 [kcal/mol]      -4.37672787 [kJ/mol]
  Total SAPT0                      -1.77869137 [mEh]      -1.11614568 [kcal/mol]      -4.66995354 [kJ/mol]
  Total SAPT2                      -1.62465184 [mEh]      -1.01948442 [kcal/mol]      -4.26552283 [kJ/mol]
  Total SAPT2+                     -1.64582787 [mEh]      -1.03277258 [kcal/mol]      -4.32112048 [kJ/mol]

  Special recipe for scaled SAPT0 (see Manual):
    Electrostatics sSAPT0          -1.63067494 [mEh]      -1.02326397 [kcal/mol]      -4.28133646 [kJ/mol]
    Exchange sSAPT0                 0.01040270 [mEh]       0.00652780 [kcal/mol]       0.02731230 [kJ/mol]
    Induction sSAPT0               -0.04673532 [mEh]      -0.02932686 [kcal/mol]      -0.12270356 [kJ/mol]
    Dispersion sSAPT0              -0.11168371 [mEh]      -0.07008259 [kcal/mol]      -0.29322554 [kJ/mol]
  Total sSAPT0                     -1.77869126 [mEh]      -1.11614562 [kcal/mol]      -4.66995326 [kJ/mol]
  --------------------------------------------------------------------------------------------------------

*** tstop() called on node73.bme.utexas.edu at Thu Apr 23 16:23:11 2020
Module time:
	user time   =      64.80 seconds =       1.08 minutes
	system time =       5.45 seconds =       0.09 minutes
	total time  =          9 seconds =       0.15 minutes
Total time:
	user time   =      99.93 seconds =       1.67 minutes
	system time =       7.57 seconds =       0.13 minutes
	total time  =         15 seconds =       0.25 minutes

    Psi4 stopped on: Thursday, 23 April 2020 04:23PM
    Psi4 wall time for execution: 0:00:15.21

*** Psi4 exiting successfully. Buy a developer a beer!
