
    -----------------------------------------------------------------------
          Psi4: An Open-Source Ab Initio Electronic Structure Package
                               Psi4 1.4a2.dev224 

                         Git: Rev {master} e453b16 


    R. M. Parrish, L. A. Burns, D. G. A. Smith, A. C. Simmonett,
    A. E. DePrince III, E. G. Hohenstein, U. Bozkaya, A. Yu. Sokolov,
    R. Di Remigio, R. M. Richard, J. F. Gonthier, A. M. James,
    H. R. McAlexander, A. Kumar, M. Saitow, X. Wang, B. P. Pritchard,
    P. Verma, H. F. Schaefer III, K. Patkowski, R. A. King, E. F. Valeev,
    F. A. Evangelista, J. M. Turney, T. D. Crawford, and C. D. Sherrill,
    J. Chem. Theory Comput. 13(7) pp 3185--3197 (2017).
    (doi: 10.1021/acs.jctc.7b00174)


                         Additional Contributions by
    P. Kraus, H. Kruse, M. H. Lechner, M. C. Schieber, R. A. Shaw,
    A. Alenaizan, R. Galvelis, Z. L. Glick, S. Lehtola, and J. P. Misiewicz

    -----------------------------------------------------------------------


    Psi4 started on: Friday, 24 April 2020 12:56PM

    Process ID: 34817
    Host:       node36.bme.utexas.edu
    PSIDATADIR: /home/liuchw/anaconda3/envs/psi4env/share/psi4
    Memory:     500.0 MiB
    Threads:    8
    
  ==> Input File <==

--------------------------------------------------------------------------
#Generated by lconvert.py for sapt job

memory 50 GB

molecule  {
0 1
  O      -0.702200   -0.056060    0.009940
  H      -1.022190    0.846780   -0.011490
  H       0.257520    0.042120    0.005220
--
0 1
  O       3.475800    0.016870   -0.002320
  H       3.852420   -0.421510    0.763810
  H       3.848060   -0.459350   -0.747720
units angstrom
no_reorient
symmetry c1
}

set {
scf_type DF
basis aug-cc-pvtz
freeze_core True
guess SAD
}
energy('sapt2+')
--------------------------------------------------------------------------

  Memory set to  46.566 GiB by Python driver.

Scratch directory: /scratch/liuchw/

  //>>>>>>>>>>>>>>>>>>>>>>>>>>>>>>>>>>>//
  //              Dimer HF             //
  //<<<<<<<<<<<<<<<<<<<<<<<<<<<<<<<<<<<//


*** tstart() called on node36.bme.utexas.edu
*** at Fri Apr 24 12:56:00 2020

   => Loading Basis Set <=

    Name: AUG-CC-PVTZ
    Role: ORBITAL
    Keyword: BASIS
    atoms 1, 4     entry O          line   331 file /home/liuchw/anaconda3/envs/psi4env/share/psi4/basis/aug-cc-pvtz.gbs 
    atoms 2-3, 5-6 entry H          line    40 file /home/liuchw/anaconda3/envs/psi4env/share/psi4/basis/aug-cc-pvtz.gbs 


         ---------------------------------------------------------
                                   SCF
               by Justin Turney, Rob Parrish, Andy Simmonett
                          and Daniel G. A. Smith
                              RHF Reference
                        8 Threads,  47683 MiB Core
         ---------------------------------------------------------

  ==> Geometry <==

    Molecular point group: c1
    Full point group: C1

    Geometry (in Angstrom), charge = 0, multiplicity = 1:

       Center              X                  Y                   Z               Mass       
    ------------   -----------------  -----------------  -----------------  -----------------
         O           -2.127851528049    -0.038882920837     0.006281644653    15.994914619570
         H           -2.447841528049     0.863957079163    -0.015148355347     1.007825032230
         H           -1.168131528049     0.059297079163     0.001561644653     1.007825032230
         O            2.050148471951     0.034047079163    -0.005978355347    15.994914619570
         H            2.426768471951    -0.404332920837     0.760151644653     1.007825032230
         H            2.422408471951    -0.442172920837    -0.751378355347     1.007825032230

  Running in c1 symmetry.

  Rotational constants: A =      7.35780  B =      0.10531  C =      0.10530 [cm^-1]
  Rotational constants: A = 220581.41450  B =   3157.16379  C =   3156.90798 [MHz]
  Nuclear repulsion =   30.996935167110397

  Charge       = 0
  Multiplicity = 1
  Electrons    = 20
  Nalpha       = 10
  Nbeta        = 10

  ==> Algorithm <==

  SCF Algorithm Type is DF.
  DIIS enabled.
  MOM disabled.
  Fractional occupation disabled.
  Guess Type is SAD.
  Energy threshold   = 1.00e-08
  Density threshold  = 1.00e-08
  Integral threshold = 0.00e+00

  ==> Primary Basis <==

  Basis Set: AUG-CC-PVTZ
    Blend: AUG-CC-PVTZ
    Number of shells: 64
    Number of basis function: 184
    Number of Cartesian functions: 210
    Spherical Harmonics?: true
    Max angular momentum: 3

   => Loading Basis Set <=

    Name: (AUG-CC-PVTZ AUX)
    Role: JKFIT
    Keyword: DF_BASIS_SCF
    atoms 1, 4     entry O          line   286 file /home/liuchw/anaconda3/envs/psi4env/share/psi4/basis/aug-cc-pvtz-jkfit.gbs 
    atoms 2-3, 5-6 entry H          line    70 file /home/liuchw/anaconda3/envs/psi4env/share/psi4/basis/aug-cc-pvtz-jkfit.gbs 

  ==> Pre-Iterations <==

   -------------------------------------------------------
    Irrep   Nso     Nmo     Nalpha   Nbeta   Ndocc  Nsocc
   -------------------------------------------------------
     A        184     184       0       0       0       0
   -------------------------------------------------------
    Total     184     184      10      10      10       0
   -------------------------------------------------------

  ==> Integral Setup <==

  ==> DiskDFJK: Density-Fitted J/K Matrices <==

    J tasked:                  Yes
    K tasked:                  Yes
    wK tasked:                  No
    OpenMP threads:              8
    Integrals threads:           8
    Memory [MiB]:            35762
    Algorithm:                Core
    Integral Cache:           SAVE
    Schwarz Cutoff:          1E-12
    Fitting Condition:       1E-10

   => Auxiliary Basis Set <=

  Basis Set: (AUG-CC-PVTZ AUX)
    Blend: AUG-CC-PVTZ-JKFIT
    Number of shells: 116
    Number of basis function: 392
    Number of Cartesian functions: 482
    Spherical Harmonics?: true
    Max angular momentum: 4

  Minimum eigenvalue in the overlap matrix is 3.0386296932E-04.
  Using Symmetric Orthogonalization.

  SCF Guess: Superposition of Atomic Densities via on-the-fly atomic UHF.

  ==> Iterations <==

                           Total Energy        Delta E     RMS |[F,P]|

   @DF-RHF iter SAD:  -150.95448231222059   -1.50954e+02   0.00000e+00 
   @DF-RHF iter   1:  -151.95776734878967   -1.00329e+00   3.57363e-03 DIIS
   @DF-RHF iter   2:  -152.06145632028242   -1.03689e-01   2.42254e-03 DIIS
   @DF-RHF iter   3:  -152.12251508750640   -6.10588e-02   1.65648e-04 DIIS
   @DF-RHF iter   4:  -152.12328035205121   -7.65265e-04   3.91549e-05 DIIS
   @DF-RHF iter   5:  -152.12332708328171   -4.67312e-05   8.95784e-06 DIIS
   @DF-RHF iter   6:  -152.12333092023300   -3.83695e-06   2.12209e-06 DIIS
   @DF-RHF iter   7:  -152.12333112140297   -2.01170e-07   9.05238e-07 DIIS
   @DF-RHF iter   8:  -152.12333113757634   -1.61734e-08   2.02904e-07 DIIS
   @DF-RHF iter   9:  -152.12333113905515   -1.47881e-09   2.98229e-08 DIIS
   @DF-RHF iter  10:  -152.12333113909000   -3.48450e-11   8.07047e-09 DIIS
  Energy and wave function converged.


  ==> Post-Iterations <==

    Orbital Energies [Eh]
    ---------------------

    Doubly Occupied:                                                      

       1A    -20.577903     2A    -20.556838     3A     -1.362856  
       4A     -1.340834     5A     -0.725371     6A     -0.702628  
       7A     -0.596743     8A     -0.575053     9A     -0.520833  
      10A     -0.499319  

    Virtual:                                                              

      11A      0.024387    12A      0.042701    13A      0.045773  
      14A      0.070710    15A      0.127937    16A      0.141191  
      17A      0.162709    18A      0.166173    19A      0.178398  
      20A      0.182392    21A      0.201801    22A      0.213634  
      23A      0.225858    24A      0.237501    25A      0.248828  
      26A      0.264178    27A      0.267909    28A      0.297797  
      29A      0.330484    30A      0.336776    31A      0.343833  
      32A      0.386067    33A      0.397492    34A      0.412432  
      35A      0.437970    36A      0.461652    37A      0.464889  
      38A      0.549742    39A      0.589734    40A      0.627839  
      41A      0.652899    42A      0.704350    43A      0.709367  
      44A      0.710657    45A      0.724486    46A      0.741814  
      47A      0.754573    48A      0.760748    49A      0.809314  
      50A      0.842875    51A      0.854042    52A      0.855439  
      53A      0.888528    54A      0.890583    55A      0.908362  
      56A      0.921714    57A      0.927719    58A      0.935473  
      59A      0.948351    60A      0.961016    61A      0.965693  
      62A      0.967290    63A      1.000580    64A      1.031218  
      65A      1.040102    66A      1.046728    67A      1.067326  
      68A      1.084048    69A      1.095307    70A      1.133449  
      71A      1.165021    72A      1.173440    73A      1.206307  
      74A      1.229725    75A      1.240642    76A      1.258312  
      77A      1.296029    78A      1.308924    79A      1.489048  
      80A      1.539277    81A      1.552316    82A      1.574533  
      83A      1.598916    84A      1.623846    85A      1.819333  
      86A      1.820802    87A      1.836036    88A      1.855910  
      89A      1.981685    90A      2.028010    91A      2.112564  
      92A      2.174418    93A      2.275346    94A      2.293944  
      95A      2.306323    96A      2.349530    97A      2.356590  
      98A      2.401284    99A      2.421233   100A      2.425628  
     101A      2.434314   102A      2.450300   103A      2.461045  
     104A      2.484726   105A      2.517366   106A      2.597234  
     107A      2.668684   108A      2.714880   109A      2.725946  
     110A      2.751772   111A      2.768032   112A      2.806339  
     113A      2.809013   114A      2.855390   115A      2.875148  
     116A      2.920663   117A      3.648706   118A      3.676114  
     119A      3.758310   120A      3.789956   121A      4.011909  
     122A      4.035221   123A      4.109451   124A      4.129308  
     125A      4.172393   126A      4.181020   127A      4.243827  
     128A      4.263667   129A      4.295234   130A      4.296379  
     131A      4.369111   132A      4.373687   133A      4.396099  
     134A      4.398036   135A      4.419275   136A      4.441726  
     137A      4.512205   138A      4.551908   139A      4.744703  
     140A      4.775887   141A      4.843720   142A      4.922016  
     143A      5.144301   144A      5.146335   145A      5.161145  
     146A      5.180250   147A      5.244129   148A      5.287225  
     149A      5.325700   150A      5.353719   151A      5.525718  
     152A      5.536278   153A      5.674012   154A      5.723343  
     155A      6.193874   156A      6.207578   157A      6.508671  
     158A      6.537739   159A      6.708004   160A      6.727123  
     161A      6.900312   162A      6.927376   163A      7.147887  
     164A      7.153313   165A      7.274729   166A      7.295532  
     167A      7.296994   168A      7.309153   169A      7.310115  
     170A      7.332828   171A      7.344130   172A      7.355237  
     173A      7.365810   174A      7.386414   175A      7.539825  
     176A      7.618425   177A      7.895026   178A      7.920601  
     179A      7.921882   180A      7.959838   181A      8.806620  
     182A      8.831210   183A     15.765739   184A     15.899479  

    Final Occupation by Irrep:
              A 
    DOCC [    10 ]

  @DF-RHF Final Energy:  -152.12333113909000

   => Energetics <=

    Nuclear Repulsion Energy =             30.9969351671103972
    One-Electron Energy =                -271.3237726555254881
    Two-Electron Energy =                  88.2035063493250675
    Total Energy =                       -152.1233311390900269

Computation Completed


Properties will be evaluated at   0.000000,   0.000000,   0.000000 [a0]

Properties computed using the SCF density matrix

  Nuclear Dipole Moment: [e a0]
     X:     1.1557      Y:     0.0719      Z:    -0.0045

  Electronic Dipole Moment: [e a0]
     X:    -0.1784      Y:    -0.0198      Z:     0.0009

  Dipole Moment: [e a0]
     X:     0.9773      Y:     0.0521      Z:    -0.0036     Total:     0.9787

  Dipole Moment: [D]
     X:     2.4841      Y:     0.1325      Z:    -0.0092     Total:     2.4877


*** tstop() called on node36.bme.utexas.edu at Fri Apr 24 12:56:03 2020
Module time:
	user time   =      14.77 seconds =       0.25 minutes
	system time =       0.95 seconds =       0.02 minutes
	total time  =          3 seconds =       0.05 minutes
Total time:
	user time   =      14.77 seconds =       0.25 minutes
	system time =       0.95 seconds =       0.02 minutes
	total time  =          3 seconds =       0.05 minutes

  //>>>>>>>>>>>>>>>>>>>>>>>>>>>>>>>>>>>//
  //            Monomer A HF           //
  //<<<<<<<<<<<<<<<<<<<<<<<<<<<<<<<<<<<//


*** tstart() called on node36.bme.utexas.edu
*** at Fri Apr 24 12:56:03 2020

   => Loading Basis Set <=

    Name: AUG-CC-PVTZ
    Role: ORBITAL
    Keyword: BASIS
    atoms 1, 4     entry O          line   331 file /home/liuchw/anaconda3/envs/psi4env/share/psi4/basis/aug-cc-pvtz.gbs 
    atoms 2-3, 5-6 entry H          line    40 file /home/liuchw/anaconda3/envs/psi4env/share/psi4/basis/aug-cc-pvtz.gbs 


         ---------------------------------------------------------
                                   SCF
               by Justin Turney, Rob Parrish, Andy Simmonett
                          and Daniel G. A. Smith
                              RHF Reference
                        8 Threads,  47683 MiB Core
         ---------------------------------------------------------

  ==> Geometry <==

    Molecular point group: c1
    Full point group: C1

    Geometry (in Angstrom), charge = 0, multiplicity = 1:

       Center              X                  Y                   Z               Mass       
    ------------   -----------------  -----------------  -----------------  -----------------
         O           -2.127851528049    -0.038882920837     0.006281644653    15.994914619570
         H           -2.447841528049     0.863957079163    -0.015148355347     1.007825032230
         H           -1.168131528049     0.059297079163     0.001561644653     1.007825032230
      Gh(O)           2.050148471951     0.034047079163    -0.005978355347    15.994914619570
      Gh(H)           2.426768471951    -0.404332920837     0.760151644653     1.007825032230
      Gh(H)           2.422408471951    -0.442172920837    -0.751378355347     1.007825032230

  Running in c1 symmetry.

  Rotational constants: A =      7.35780  B =      0.10531  C =      0.10530 [cm^-1]
  Rotational constants: A = 220581.41450  B =   3157.16379  C =   3156.90798 [MHz]
  Nuclear repulsion =    9.156696019659996

  Charge       = 0
  Multiplicity = 1
  Electrons    = 10
  Nalpha       = 5
  Nbeta        = 5

  ==> Algorithm <==

  SCF Algorithm Type is DF.
  DIIS enabled.
  MOM disabled.
  Fractional occupation disabled.
  Guess Type is SAD.
  Energy threshold   = 1.00e-08
  Density threshold  = 1.00e-08
  Integral threshold = 0.00e+00

  ==> Primary Basis <==

  Basis Set: AUG-CC-PVTZ
    Blend: AUG-CC-PVTZ
    Number of shells: 64
    Number of basis function: 184
    Number of Cartesian functions: 210
    Spherical Harmonics?: true
    Max angular momentum: 3

   => Loading Basis Set <=

    Name: (AUG-CC-PVTZ AUX)
    Role: JKFIT
    Keyword: DF_BASIS_SCF
    atoms 1, 4     entry O          line   286 file /home/liuchw/anaconda3/envs/psi4env/share/psi4/basis/aug-cc-pvtz-jkfit.gbs 
    atoms 2-3, 5-6 entry H          line    70 file /home/liuchw/anaconda3/envs/psi4env/share/psi4/basis/aug-cc-pvtz-jkfit.gbs 

  ==> Pre-Iterations <==

   -------------------------------------------------------
    Irrep   Nso     Nmo     Nalpha   Nbeta   Ndocc  Nsocc
   -------------------------------------------------------
     A        184     184       0       0       0       0
   -------------------------------------------------------
    Total     184     184       5       5       5       0
   -------------------------------------------------------

  ==> Integral Setup <==

  ==> DiskDFJK: Density-Fitted J/K Matrices <==

    J tasked:                  Yes
    K tasked:                  Yes
    wK tasked:                  No
    OpenMP threads:              8
    Integrals threads:           8
    Memory [MiB]:            35762
    Algorithm:                Core
    Integral Cache:           LOAD
    Schwarz Cutoff:          1E-12
    Fitting Condition:       1E-10

   => Auxiliary Basis Set <=

  Basis Set: (AUG-CC-PVTZ AUX)
    Blend: AUG-CC-PVTZ-JKFIT
    Number of shells: 116
    Number of basis function: 392
    Number of Cartesian functions: 482
    Spherical Harmonics?: true
    Max angular momentum: 4

  Minimum eigenvalue in the overlap matrix is 3.0386296932E-04.
  Using Symmetric Orthogonalization.

  SCF Guess: Superposition of Atomic Densities via on-the-fly atomic UHF.

  ==> Iterations <==

                           Total Energy        Delta E     RMS |[F,P]|

   @DF-RHF iter SAD:   -75.47410139329673   -7.54741e+01   0.00000e+00 
   @DF-RHF iter   1:   -75.97570256019570   -5.01601e-01   2.54530e-03 DIIS
   @DF-RHF iter   2:   -76.02815772261599   -5.24552e-02   1.74009e-03 DIIS
   @DF-RHF iter   3:   -76.05980076337110   -3.16430e-02   1.18217e-04 DIIS
   @DF-RHF iter   4:   -76.06019177011305   -3.91007e-04   2.84227e-05 DIIS
   @DF-RHF iter   5:   -76.06021647226295   -2.47021e-05   6.47133e-06 DIIS
   @DF-RHF iter   6:   -76.06021849997191   -2.02771e-06   1.41591e-06 DIIS
   @DF-RHF iter   7:   -76.06021860650317   -1.06531e-07   2.53495e-07 DIIS
   @DF-RHF iter   8:   -76.06021860949912   -2.99595e-09   4.25402e-08 DIIS
   @DF-RHF iter   9:   -76.06021860956470   -6.55831e-11   1.04347e-08 DIIS
   @DF-RHF iter  10:   -76.06021860956871   -4.00746e-12   1.54904e-09 DIIS
  Energy and wave function converged.


  ==> Post-Iterations <==

    Orbital Energies [Eh]
    ---------------------

    Doubly Occupied:                                                      

       1A    -20.568326     2A     -1.352077     3A     -0.713916  
       4A     -0.585805     5A     -0.510268  

    Virtual:                                                              

       6A      0.021074     7A      0.040014     8A      0.049368  
       9A      0.065712    10A      0.107652    11A      0.121798  
      12A      0.142590    13A      0.154161    14A      0.169268  
      15A      0.171888    16A      0.189480    17A      0.202127  
      18A      0.242169    19A      0.253333    20A      0.262065  
      21A      0.262440    22A      0.275162    23A      0.295083  
      24A      0.326481    25A      0.328205    26A      0.351485  
      27A      0.351689    28A      0.377994    29A      0.389730  
      30A      0.410116    31A      0.427204    32A      0.454065  
      33A      0.516212    34A      0.602666    35A      0.612049  
      36A      0.689204    37A      0.711503    38A      0.729477  
      39A      0.741911    40A      0.742161    41A      0.749349  
      42A      0.767290    43A      0.778658    44A      0.784890  
      45A      0.796113    46A      0.831247    47A      0.836678  
      48A      0.878821    49A      0.898188    50A      0.901871  
      51A      0.908563    52A      0.919055    53A      0.927395  
      54A      0.936216    55A      0.950548    56A      0.967564  
      57A      0.976650    58A      0.986209    59A      0.991273  
      60A      1.032734    61A      1.036859    62A      1.068594  
      63A      1.081703    64A      1.097256    65A      1.160725  
      66A      1.161545    67A      1.171993    68A      1.177456  
      69A      1.220492    70A      1.264228    71A      1.286813  
      72A      1.316531    73A      1.450025    74A      1.459294  
      75A      1.524315    76A      1.563503    77A      1.584912  
      78A      1.690674    79A      1.694542    80A      1.742872  
      81A      1.797938    82A      1.828398    83A      1.830702  
      84A      1.852451    85A      2.026485    86A      2.056608  
      87A      2.182962    88A      2.269996    89A      2.332124  
      90A      2.333720    91A      2.355227    92A      2.420016  
      93A      2.422972    94A      2.437003    95A      2.464634  
      96A      2.495945    97A      2.508345    98A      2.534071  
      99A      2.536793   100A      2.543520   101A      2.644126  
     102A      2.702635   103A      2.713890   104A      2.715922  
     105A      2.798827   106A      2.849495   107A      2.857339  
     108A      2.904115   109A      3.155861   110A      3.161345  
     111A      3.250541   112A      3.301429   113A      3.314251  
     114A      3.522706   115A      3.639240   116A      3.666649  
     117A      3.774920   118A      4.022381   119A      4.101019  
     120A      4.165317   121A      4.262198   122A      4.284515  
     123A      4.346505   124A      4.380293   125A      4.380595  
     126A      4.399612   127A      4.424316   128A      4.482884  
     129A      4.527826   130A      4.601743   131A      4.645431  
     132A      4.655998   133A      4.766994   134A      4.849399  
     135A      4.877209   136A      4.884963   137A      4.924397  
     138A      5.148421   139A      5.169898   140A      5.190015  
     141A      5.279235   142A      5.341836   143A      5.524538  
     144A      5.540528   145A      5.611398   146A      5.642378  
     147A      5.668739   148A      5.847849   149A      6.084788  
     150A      6.190985   151A      6.380571   152A      6.526972  
     153A      6.615321   154A      6.715990   155A      6.917645  
     156A      7.051817   157A      7.137029   158A      7.265058  
     159A      7.298082   160A      7.323190   161A      7.348034  
     162A      7.371757   163A      7.579629   164A      7.658079  
     165A      7.809106   166A      7.905610   167A      7.946724  
     168A      8.060223   169A      8.145580   170A      8.271356  
     171A      8.722297   172A      8.817318   173A      8.819918  
     174A      9.641699   175A      9.899461   176A      9.981786  
     177A     10.208544   178A     11.230504   179A     11.626650  
     180A     12.123164   181A     13.493735   182A     13.752736  
     183A     15.874766   184A     64.578914  

    Final Occupation by Irrep:
              A 
    DOCC [     5 ]

  @DF-RHF Final Energy:   -76.06021860956871

   => Energetics <=

    Nuclear Repulsion Energy =              9.1566960196599965
    One-Electron Energy =                -122.9730472645603925
    Two-Electron Energy =                  37.7561326353316886
    Total Energy =                        -76.0602186095687216

Computation Completed


Properties will be evaluated at   0.000000,   0.000000,   0.000000 [a0]

Properties computed using the SCF density matrix

  Nuclear Dipole Moment: [e a0]
     X:   -39.0017      Y:     1.1569      Z:     0.0693

  Electronic Dipole Moment: [e a0]
     X:    39.4244      Y:    -0.4932      Z:    -0.0866

  Dipole Moment: [e a0]
     X:     0.4227      Y:     0.6636      Z:    -0.0173     Total:     0.7870

  Dipole Moment: [D]
     X:     1.0744      Y:     1.6868      Z:    -0.0441     Total:     2.0004


*** tstop() called on node36.bme.utexas.edu at Fri Apr 24 12:56:05 2020
Module time:
	user time   =      10.80 seconds =       0.18 minutes
	system time =       0.83 seconds =       0.01 minutes
	total time  =          2 seconds =       0.03 minutes
Total time:
	user time   =      25.65 seconds =       0.43 minutes
	system time =       1.79 seconds =       0.03 minutes
	total time  =          5 seconds =       0.08 minutes

  //>>>>>>>>>>>>>>>>>>>>>>>>>>>>>>>>>>>//
  //            Monomer B HF           //
  //<<<<<<<<<<<<<<<<<<<<<<<<<<<<<<<<<<<//


*** tstart() called on node36.bme.utexas.edu
*** at Fri Apr 24 12:56:05 2020

   => Loading Basis Set <=

    Name: AUG-CC-PVTZ
    Role: ORBITAL
    Keyword: BASIS
    atoms 1, 4     entry O          line   331 file /home/liuchw/anaconda3/envs/psi4env/share/psi4/basis/aug-cc-pvtz.gbs 
    atoms 2-3, 5-6 entry H          line    40 file /home/liuchw/anaconda3/envs/psi4env/share/psi4/basis/aug-cc-pvtz.gbs 


         ---------------------------------------------------------
                                   SCF
               by Justin Turney, Rob Parrish, Andy Simmonett
                          and Daniel G. A. Smith
                              RHF Reference
                        8 Threads,  47683 MiB Core
         ---------------------------------------------------------

  ==> Geometry <==

    Molecular point group: c1
    Full point group: C1

    Geometry (in Angstrom), charge = 0, multiplicity = 1:

       Center              X                  Y                   Z               Mass       
    ------------   -----------------  -----------------  -----------------  -----------------
      Gh(O)          -2.127851528049    -0.038882920837     0.006281644653    15.994914619570
      Gh(H)          -2.447841528049     0.863957079163    -0.015148355347     1.007825032230
      Gh(H)          -1.168131528049     0.059297079163     0.001561644653     1.007825032230
         O            2.050148471951     0.034047079163    -0.005978355347    15.994914619570
         H            2.426768471951    -0.404332920837     0.760151644653     1.007825032230
         H            2.422408471951    -0.442172920837    -0.751378355347     1.007825032230

  Running in c1 symmetry.

  Rotational constants: A =      7.35780  B =      0.10531  C =      0.10530 [cm^-1]
  Rotational constants: A = 220581.41450  B =   3157.16379  C =   3156.90798 [MHz]
  Nuclear repulsion =    9.172573428891322

  Charge       = 0
  Multiplicity = 1
  Electrons    = 10
  Nalpha       = 5
  Nbeta        = 5

  ==> Algorithm <==

  SCF Algorithm Type is DF.
  DIIS enabled.
  MOM disabled.
  Fractional occupation disabled.
  Guess Type is SAD.
  Energy threshold   = 1.00e-08
  Density threshold  = 1.00e-08
  Integral threshold = 0.00e+00

  ==> Primary Basis <==

  Basis Set: AUG-CC-PVTZ
    Blend: AUG-CC-PVTZ
    Number of shells: 64
    Number of basis function: 184
    Number of Cartesian functions: 210
    Spherical Harmonics?: true
    Max angular momentum: 3

   => Loading Basis Set <=

    Name: (AUG-CC-PVTZ AUX)
    Role: JKFIT
    Keyword: DF_BASIS_SCF
    atoms 1, 4     entry O          line   286 file /home/liuchw/anaconda3/envs/psi4env/share/psi4/basis/aug-cc-pvtz-jkfit.gbs 
    atoms 2-3, 5-6 entry H          line    70 file /home/liuchw/anaconda3/envs/psi4env/share/psi4/basis/aug-cc-pvtz-jkfit.gbs 

  ==> Pre-Iterations <==

   -------------------------------------------------------
    Irrep   Nso     Nmo     Nalpha   Nbeta   Ndocc  Nsocc
   -------------------------------------------------------
     A        184     184       0       0       0       0
   -------------------------------------------------------
    Total     184     184       5       5       5       0
   -------------------------------------------------------

  ==> Integral Setup <==

  ==> DiskDFJK: Density-Fitted J/K Matrices <==

    J tasked:                  Yes
    K tasked:                  Yes
    wK tasked:                  No
    OpenMP threads:              8
    Integrals threads:           8
    Memory [MiB]:            35762
    Algorithm:                Core
    Integral Cache:           LOAD
    Schwarz Cutoff:          1E-12
    Fitting Condition:       1E-10

   => Auxiliary Basis Set <=

  Basis Set: (AUG-CC-PVTZ AUX)
    Blend: AUG-CC-PVTZ-JKFIT
    Number of shells: 116
    Number of basis function: 392
    Number of Cartesian functions: 482
    Spherical Harmonics?: true
    Max angular momentum: 4

  Minimum eigenvalue in the overlap matrix is 3.0386296932E-04.
  Using Symmetric Orthogonalization.

  SCF Guess: Superposition of Atomic Densities via on-the-fly atomic UHF.

  ==> Iterations <==

                           Total Energy        Delta E     RMS |[F,P]|

   @DF-RHF iter SAD:   -75.47582750947878   -7.54758e+01   0.00000e+00 
   @DF-RHF iter   1:   -75.97599780419978   -5.00170e-01   2.54614e-03 DIIS
   @DF-RHF iter   2:   -76.02850300142654   -5.25052e-02   1.73671e-03 DIIS
   @DF-RHF iter   3:   -76.05999179064990   -3.14888e-02   1.17956e-04 DIIS
   @DF-RHF iter   4:   -76.06038056486692   -3.88774e-04   2.82491e-05 DIIS
   @DF-RHF iter   5:   -76.06040487437838   -2.43095e-05   6.41208e-06 DIIS
   @DF-RHF iter   6:   -76.06040686133204   -1.98695e-06   1.40322e-06 DIIS
   @DF-RHF iter   7:   -76.06040696597321   -1.04641e-07   2.52831e-07 DIIS
   @DF-RHF iter   8:   -76.06040696896247   -2.98925e-09   4.23995e-08 DIIS
   @DF-RHF iter   9:   -76.06040696902794   -6.54694e-11   1.03698e-08 DIIS
   @DF-RHF iter  10:   -76.06040696903185   -3.90799e-12   1.52480e-09 DIIS
  Energy and wave function converged.


  ==> Post-Iterations <==

    Orbital Energies [Eh]
    ---------------------

    Doubly Occupied:                                                      

       1A    -20.567855     2A     -1.352739     3A     -0.715414  
       4A     -0.585567     5A     -0.510322  

    Virtual:                                                              

       6A      0.027195     7A      0.041590     8A      0.047672  
       9A      0.066016    10A      0.126234    11A      0.134984  
      12A      0.139377    13A      0.148822    14A      0.170286  
      15A      0.182989    16A      0.184276    17A      0.216821  
      18A      0.232394    19A      0.248732    20A      0.256766  
      21A      0.280671    22A      0.291968    23A      0.306048  
      24A      0.326451    25A      0.343646    26A      0.348950  
      27A      0.374167    28A      0.383873    29A      0.411666  
      30A      0.435209    31A      0.446600    32A      0.467677  
      33A      0.486573    34A      0.598618    35A      0.634115  
      36A      0.663294    37A      0.673087    38A      0.721492  
      39A      0.733202    40A      0.751364    41A      0.782273  
      42A      0.793340    43A      0.807561    44A      0.815560  
      45A      0.834308    46A      0.839443    47A      0.862077  
      48A      0.881620    49A      0.892270    50A      0.903289  
      51A      0.903382    52A      0.921411    53A      0.946824  
      54A      0.959738    55A      0.964476    56A      0.986185  
      57A      0.992747    58A      1.009281    59A      1.020025  
      60A      1.042604    61A      1.053837    62A      1.057753  
      63A      1.072600    64A      1.115267    65A      1.133719  
      66A      1.149056    67A      1.192201    68A      1.220011  
      69A      1.245933    70A      1.256256    71A      1.263744  
      72A      1.270449    73A      1.458302    74A      1.521941  
      75A      1.527334    76A      1.564410    77A      1.613126  
      78A      1.713793    79A      1.714621    80A      1.767840  
      81A      1.826985    82A      1.827446    83A      1.845971  
      84A      1.897716    85A      1.990806    86A      2.097509  
      87A      2.130607    88A      2.294440    89A      2.317410  
      90A      2.359796    91A      2.416649    92A      2.423226  
      93A      2.437656    94A      2.447632    95A      2.449610  
      96A      2.523532    97A      2.540711    98A      2.541068  
      99A      2.554694   100A      2.574323   101A      2.612799  
     102A      2.644607   103A      2.679458   104A      2.761188  
     105A      2.782547   106A      2.820630   107A      2.889752  
     108A      2.927030   109A      3.169836   110A      3.173614  
     111A      3.213828   112A      3.328006   113A      3.353388  
     114A      3.544441   115A      3.659466   116A      3.725306  
     117A      3.774980   118A      4.021304   119A      4.142161  
     120A      4.195409   121A      4.254109   122A      4.301225  
     123A      4.364035   124A      4.379217   125A      4.406911  
     126A      4.435871   127A      4.438459   128A      4.476687  
     129A      4.521259   130A      4.607935   131A      4.668679  
     132A      4.678648   133A      4.757195   134A      4.852080  
     135A      4.875589   136A      4.876422   137A      4.898500  
     138A      5.154093   139A      5.155875   140A      5.217040  
     141A      5.254493   142A      5.335485   143A      5.531665  
     144A      5.566333   145A      5.619670   146A      5.656758  
     147A      5.717946   148A      5.867239   149A      6.123878  
     150A      6.210668   151A      6.408458   152A      6.519260  
     153A      6.631456   154A      6.719008   155A      6.910799  
     156A      7.073373   157A      7.167001   158A      7.305236  
     159A      7.318129   160A      7.320612   161A      7.360461  
     162A      7.367047   163A      7.554123   164A      7.673488  
     165A      7.834982   166A      7.905313   167A      7.931890  
     168A      8.050251   169A      8.161600   170A      8.294159  
     171A      8.774676   172A      8.816026   173A      8.870048  
     174A      9.635895   175A      9.839873   176A     10.005153  
     177A     10.232816   178A     11.243257   179A     11.622783  
     180A     12.098712   181A     13.521722   182A     13.843062  
     183A     15.793179   184A     64.777832  

    Final Occupation by Irrep:
              A 
    DOCC [     5 ]

  @DF-RHF Final Energy:   -76.06040696903185

   => Energetics <=

    Nuclear Repulsion Energy =              9.1725734288913223
    One-Electron Energy =                -123.0021686113162787
    Two-Electron Energy =                  37.7691882133931074
    Total Energy =                        -76.0604069690318454

Computation Completed


Properties will be evaluated at   0.000000,   0.000000,   0.000000 [a0]

Properties computed using the SCF density matrix

  Nuclear Dipole Moment: [e a0]
     X:    40.1574      Y:    -1.0849      Z:    -0.0738

  Electronic Dipole Moment: [e a0]
     X:   -39.6601      Y:     0.4784      Z:     0.0875

  Dipole Moment: [e a0]
     X:     0.4972      Y:    -0.6065      Z:     0.0137     Total:     0.7844

  Dipole Moment: [D]
     X:     1.2639      Y:    -1.5416      Z:     0.0349     Total:     1.9938


*** tstop() called on node36.bme.utexas.edu at Fri Apr 24 12:56:07 2020
Module time:
	user time   =      10.90 seconds =       0.18 minutes
	system time =       0.72 seconds =       0.01 minutes
	total time  =          2 seconds =       0.03 minutes
Total time:
	user time   =      36.93 seconds =       0.62 minutes
	system time =       2.56 seconds =       0.04 minutes
	total time  =          7 seconds =       0.12 minutes
  Constructing Basis Sets for SAPT...

   => Loading Basis Set <=

    Name: (AUG-CC-PVTZ AUX)
    Role: RIFIT
    Keyword: DF_BASIS_SAPT
    atoms 1, 4     entry O          line   264 file /home/liuchw/anaconda3/envs/psi4env/share/psi4/basis/aug-cc-pvtz-ri.gbs 
    atoms 2-3, 5-6 entry H          line    30 file /home/liuchw/anaconda3/envs/psi4env/share/psi4/basis/aug-cc-pvtz-ri.gbs 


  //>>>>>>>>>>>>>>>>>>>>>>>>>>>>>>>>>>>//
  //               SAPT2+              //
  //<<<<<<<<<<<<<<<<<<<<<<<<<<<<<<<<<<<//


*** tstart() called on node36.bme.utexas.edu
*** at Fri Apr 24 12:56:07 2020

        SAPT2+  
    Ed Hohenstein
     6 June 2009

      Orbital Information
  --------------------------
    NSO        =       184
    NMO        =       184
    NRI        =       396
    NOCC A     =         5
    NOCC B     =         5
    FOCC A     =         1
    FOCC B     =         1
    NVIR A     =       179
    NVIR B     =       179

    Estimated memory usage: 120.7 MB

    Natural Orbital Cutoff:   1.000E-06
    Disp(T3) Truncation:            Yes
    CCD (vv|vv) Truncation:         Yes
    MBPT T2 Truncation:             Yes

    Monomer A: 102 virtual orbitals dropped
    Monomer B: 102 virtual orbitals dropped

    Elst10,r            =    -0.002668146815 [Eh]
    Exch10 (S^2)        =     0.000100109419 [Eh]
    Exch10              =     0.000100120103 [Eh]
    Ind20,r (A<-B)      =    -0.000058056427 [Eh]
    Ind20,r (B<-A)      =    -0.000078220413 [Eh]
    Ind20,r             =    -0.000136276840 [Eh]
    Exch-Ind20,r (A<-B) =     0.000002676748 [Eh]
    Exch-Ind20,r (B<-A) =     0.000010388653 [Eh]
    Exch-Ind20,r        =     0.000013065402 [Eh]
    Disp20              =    -0.000297781845 [Eh]
    Disp20 (NO)         =    -0.000265488420 [Eh]
    Exch-Disp20         =     0.000009975147 [Eh]
    Elst12,r            =     0.000217781664 [Eh]
    Exch11              =     0.000000794676 [Eh]
    Exch12              =     0.000032946893 [Eh]
    Ind22               =    -0.000009610455 [Eh]
    Disp21              =     0.000002080885 [Eh]
    Disp22 (SDQ)        =    -0.000007339722 [Eh]

    (i =   1 of   4)          0 seconds
    (i =   2 of   4)          0 seconds
    (i =   3 of   4)          0 seconds
    (i =   4 of   4)          1 seconds

    Disp220 (T)         =    -0.000025703785 [Eh]

    (i =   1 of   4)          0 seconds
    (i =   2 of   4)          0 seconds
    (i =   3 of   4)          0 seconds
    (i =   4 of   4)          0 seconds

    Disp202 (T)         =    -0.000024478324 [Eh]

    Disp22 (T)          =    -0.000050182109 [Eh]

    Est. Disp220 (T)    =    -0.000028830337 [Eh]
    Est. Disp202 (T)    =    -0.000027455814 [Eh]

    Est. Disp22 (T)     =    -0.000056286150 [Eh]

    SAPT Results 
  --------------------------------------------------------------------------------------------------------
    Electrostatics                 -2.45036515 [mEh]      -1.53762735 [kcal/mol]      -6.43343282 [kJ/mol]
      Elst10,r                     -2.66814681 [mEh]      -1.67428740 [kcal/mol]      -7.00521850 [kJ/mol]
      Elst12,r                      0.21778166 [mEh]       0.13666006 [kcal/mol]       0.57178568 [kJ/mol]

    Exchange                        0.13386167 [mEh]       0.08399947 [kcal/mol]       0.35145377 [kJ/mol]
      Exch10                        0.10012010 [mEh]       0.06282631 [kcal/mol]       0.26286529 [kJ/mol]
      Exch10(S^2)                   0.10010942 [mEh]       0.06281961 [kcal/mol]       0.26283724 [kJ/mol]
      Exch11(S^2)                   0.00079468 [mEh]       0.00049867 [kcal/mol]       0.00208642 [kJ/mol]
      Exch12(S^2)                   0.03294689 [mEh]       0.02067449 [kcal/mol]       0.08650205 [kJ/mol]

    Induction                      -0.14622284 [mEh]      -0.09175622 [kcal/mol]      -0.38390801 [kJ/mol]
      Ind20,r                      -0.13627684 [mEh]      -0.08551501 [kcal/mol]      -0.35779480 [kJ/mol]
      Ind22                        -0.00961045 [mEh]      -0.00603065 [kcal/mol]      -0.02523225 [kJ/mol]
      Exch-Ind20,r                  0.01306540 [mEh]       0.00819866 [kcal/mol]       0.03430321 [kJ/mol]
      Exch-Ind22                    0.00092139 [mEh]       0.00057818 [kcal/mol]       0.00241912 [kJ/mol]
      delta HF,r (2)               -0.01432234 [mEh]      -0.00898740 [kcal/mol]      -0.03760330 [kJ/mol]

    Dispersion                     -0.34935169 [mEh]      -0.21922149 [kcal/mol]      -0.91722273 [kJ/mol]
      Disp20                       -0.29778185 [mEh]      -0.18686093 [kcal/mol]      -0.78182613 [kJ/mol]
      Disp21                        0.00208088 [mEh]       0.00130577 [kcal/mol]       0.00546336 [kJ/mol]
      Disp22 (SDQ)                 -0.00733972 [mEh]      -0.00460574 [kcal/mol]      -0.01927044 [kJ/mol]
      Disp22 (T)                   -0.05018211 [mEh]      -0.03148975 [kcal/mol]      -0.13175311 [kJ/mol]
      Est. Disp22 (T)              -0.05628615 [mEh]      -0.03532009 [kcal/mol]      -0.14777927 [kJ/mol]
      Exch-Disp20                   0.00997515 [mEh]       0.00625950 [kcal/mol]       0.02618974 [kJ/mol]

  Total HF                         -2.70556049 [mEh]      -1.69776484 [kcal/mol]      -7.10344809 [kJ/mol]
  Total SAPT0                      -2.99336719 [mEh]      -1.87836627 [kcal/mol]      -7.85908447 [kJ/mol]
  Total SAPT2                      -2.75053302 [mEh]      -1.72598553 [kcal/mol]      -7.22152344 [kJ/mol]
  Total SAPT2+                     -2.81207801 [mEh]      -1.76460559 [kcal/mol]      -7.38310979 [kJ/mol]

  Special recipe for scaled SAPT0 (see Manual):
    Electrostatics sSAPT0          -2.66814681 [mEh]      -1.67428740 [kcal/mol]      -7.00521850 [kJ/mol]
    Exchange sSAPT0                 0.10012010 [mEh]       0.06282631 [kcal/mol]       0.26286529 [kJ/mol]
    Induction sSAPT0               -0.13752959 [mEh]      -0.08630112 [kcal/mol]      -0.36108390 [kJ/mol]
    Dispersion sSAPT0              -0.28780350 [mEh]      -0.18059943 [kcal/mol]      -0.75562800 [kJ/mol]
  Total sSAPT0                     -2.99335981 [mEh]      -1.87836164 [kcal/mol]      -7.85906510 [kJ/mol]
  --------------------------------------------------------------------------------------------------------

*** tstop() called on node36.bme.utexas.edu at Fri Apr 24 12:56:19 2020
Module time:
	user time   =      82.71 seconds =       1.38 minutes
	system time =       8.38 seconds =       0.14 minutes
	total time  =         12 seconds =       0.20 minutes
Total time:
	user time   =     120.30 seconds =       2.00 minutes
	system time =      11.00 seconds =       0.18 minutes
	total time  =         19 seconds =       0.32 minutes

    Psi4 stopped on: Friday, 24 April 2020 12:56PM
    Psi4 wall time for execution: 0:00:19.29

*** Psi4 exiting successfully. Buy a developer a beer!
