    -----------------------------------------------------------------------
          PSI4: An Open-Source Ab Initio Electronic Structure Package
                              PSI 4.0.0-beta4 Driver

    J. M. Turney, A. C. Simmonett, R. M. Parrish, E. G. Hohenstein,
    F. A. Evangelista, J. T. Fermann, B. J. Mintz, L. A. Burns, J. J. Wilke,
    M. L. Abrams, N. J. Russ, M. L. Leininger, C. L. Janssen, E. T. Seidl,
    W. D. Allen, H. F. Schaefer, R. A. King, E. F. Valeev, C. D. Sherrill,
    and T. D. Crawford, WIREs Comput. Mol. Sci., (2011) (doi: 10.1002/wcms.93)

                         Additional Contributions by
    A. E. DePrince, M. Saitow, U. Bozkaya, A. Yu. Sokolov
    -----------------------------------------------------------------------

    Process ID:   4503
    PSI4DATADIR: /home/xzhu216/psi4/psi4-install/share/psi

    Using LocalCommunicator (Number of processes = 1)

    Memory level set to 256.000 MB

  ==> Input File <==

--------------------------------------------------------------------------
#psi4
#
memory 7 gb

molecule Water_MeOH {
0 1
    O    -0.525329794    -0.050971084    -0.314516861
    H    -0.942006633     0.747901631     0.011252816
    H     0.403696525     0.059785981    -0.073568368
--
0 1
    O     1.773348983     0.049557903     0.030556409
    H     2.141331807    -0.522519500     0.708084736
    C     2.238354054    -0.422072013    -1.231602701
    H     1.807536959     0.229021678    -1.984716733
    H     3.324317741    -0.371279152    -1.305914629
    H     1.910011436    -1.441941510    -1.430683335
units angstrom
no_reorient  #important for SAPT in psi4, default
symmetry c1  #important for SAPT in psi4, default
}

set {
basis aug-cc-pVTZ
scf_type DF
freeze_core True
}
energy('sapt2+')
--------------------------------------------------------------------------

  Memory set to   7.000 GiB by Python script.

  //>>>>>>>>>>>>>>>>>>>>>>>>>>>>>>>>>>>//
  //              Dimer HF             //
  //<<<<<<<<<<<<<<<<<<<<<<<<<<<<<<<<<<<//


  No DF_BASIS_SCF auxiliary basis selected, defaulting to aug-cc-pvtz-jkfit


*** tstart() called on node55.bme.utexas.edu
*** at Thu Feb 13 09:53:15 2014


         ---------------------------------------------------------
                                   SCF
            by Justin Turney, Rob Parrish, and Andy Simmonett
                              RHF Reference
                        4 Threads,   7000 MiB Core
         ---------------------------------------------------------

  ==> Geometry <==

    Molecular point group: c1
    Full point group: C1

    Geometry (in Angstrom), charge = 0, multiplicity = 1:

       Center              X                  Y                   Z       
    ------------   -----------------  -----------------  -----------------
           O         -1.635208247612     0.076868152824     0.153710563918
           H         -2.051885086612     0.875740867824     0.479480240918
           H         -0.706181928612     0.187625217824     0.394659056918
           O          0.663470529388     0.177397139824     0.498783833918
           H          1.031453353388    -0.394680263176     1.176312160918
           C          1.128475600388    -0.294232776176    -0.763375276082
           H          0.697658505388     0.356860914824    -1.516489308082
           H          2.214439287388    -0.243439915176    -0.837687204082
           H          0.800132982388    -1.314102273176    -0.962455910082

  Running in c1 symmetry.

  Nuclear repulsion =   86.373492183824069

  Charge       = 0
  Multiplicity = 1
  Electrons    = 28
  Nalpha       = 14
  Nbeta        = 14

  ==> Algorithm <==

  SCF Algorithm Type is DF.
  DIIS enabled.
  MOM disabled.
  Fractional occupation disabled.
  Guess Type is CORE.
  Energy threshold   = 1.00e-08
  Density threshold  = 1.00e-08
  Integral threshold = 0.00e+00

  ==> Primary Basis <==

  Basis Set: AUG-CC-PVTZ
    Number of shells: 96
    Number of basis function: 276
    Number of Cartesian functions: 315
    Spherical Harmonics?: true
    Max angular momentum: 3

  ==> Pre-Iterations <==

   -------------------------------------------------------
    Irrep   Nso     Nmo     Nalpha   Nbeta   Ndocc  Nsocc
   -------------------------------------------------------
     A        276     276       0       0       0       0
   -------------------------------------------------------
    Total     276     276      14      14      14       0
   -------------------------------------------------------

 OEINTS: Wrapper to libmints.
   by Justin Turney

   Calculation information:
      Number of atoms:                   9
      Number of AO shells:              96
      Number of SO shells:              96
      Number of primitives:            156
      Number of atomic orbitals:       315
      Number of basis functions:       276

      Number of irreps:                  1
      Number of functions per irrep: [ 276 ]

      Overlap, kinetic, potential, dipole, and quadrupole integrals
        stored in file 35.

  ==> Integral Setup <==

  ==> DFJK: Density-Fitted J/K Matrices <==

    J tasked:                  Yes
    K tasked:                  Yes
    wK tasked:                  No
    OpenMP threads:              4
    Integrals threads:           4
    Memory (MB):              5006
    Algorithm:                Core
    Integral Cache:           SAVE
    Schwarz Cutoff:          0E+00
    Fitting Condition:       1E-12

   => Auxiliary Basis Set <=

  Basis Set: aug-cc-pvtz-jkfit
    Number of shells: 174
    Number of basis function: 588
    Number of Cartesian functions: 723
    Spherical Harmonics?: true
    Max angular momentum: 4

  Minimum eigenvalue in the overlap matrix is 4.4400740952E-05.
  Using Symmetric Orthogonalization.
  SCF Guess: Core (One-Electron) Hamiltonian.

  Guess energy:  -152.87108882452344

  ==> Iterations <==

                        Total Energy        Delta E     RMS |[F,P]|

   @RHF iter   1:  -151.10091616551381   -1.51101e+02   4.50265e-02 
   @RHF iter   2:  -139.65342967196426    1.14475e+01   1.67653e-02 DIIS
   @RHF iter   3:  -170.06986027485596   -3.04164e+01   2.36490e-02 DIIS
   @RHF iter   4:  -184.04604098010441   -1.39762e+01   1.52838e-02 DIIS
   @RHF iter   5:  -188.74774153186542   -4.70170e+00   8.52407e-03 DIIS
   @RHF iter   6:  -190.69741684147021   -1.94968e+00   3.26643e-03 DIIS
   @RHF iter   7:  -191.11017785605776   -4.12761e-01   8.00732e-04 DIIS
   @RHF iter   8:  -191.13410117030986   -2.39233e-02   2.79090e-04 DIIS
   @RHF iter   9:  -191.13686645931557   -2.76529e-03   5.25239e-05 DIIS
   @RHF iter  10:  -191.13705399130532   -1.87532e-04   1.32182e-05 DIIS
   @RHF iter  11:  -191.13706983029232   -1.58390e-05   4.64245e-06 DIIS
   @RHF iter  12:  -191.13707105585820   -1.22557e-06   1.44645e-06 DIIS
   @RHF iter  13:  -191.13707118373088   -1.27873e-07   2.05122e-07 DIIS
   @RHF iter  14:  -191.13707118785641   -4.12552e-09   4.73687e-08 DIIS
   @RHF iter  15:  -191.13707118801915   -1.62743e-10   1.03567e-08 DIIS
   @RHF iter  16:  -191.13707118802768   -8.52651e-12   2.03432e-09 DIIS

  ==> Post-Iterations <==

	Orbital Energies (a.u.)
	-----------------------

	Doubly Occupied:                                                      

	   1A    -20.595687     2A    -20.496040     3A    -11.289163  
	   4A     -1.411862     5A     -1.293765     6A     -0.951878  
	   7A     -0.757173     8A     -0.696271     9A     -0.635916  
	  10A     -0.605433    11A     -0.555218    12A     -0.515862  
	  13A     -0.471141    14A     -0.451269  

	Virtual:                                                              

	  15A      0.023572    16A      0.039453    17A      0.044817  
	  18A      0.048067    19A      0.063792    20A      0.089433  
	  21A      0.095607    22A      0.117968    23A      0.132028  
	  24A      0.143367    25A      0.147911    26A      0.160892  
	  27A      0.167272    28A      0.188688    29A      0.205824  
	  30A      0.209444    31A      0.222830    32A      0.246486  
	  33A      0.254450    34A      0.271482    35A      0.275809  
	  36A      0.296120    37A      0.298814    38A      0.305671  
	  39A      0.321349    40A      0.331926    41A      0.334115  
	  42A      0.357712    43A      0.366645    44A      0.376288  
	  45A      0.391495    46A      0.405399    47A      0.410672  
	  48A      0.420157    49A      0.427113    50A      0.435547  
	  51A      0.439340    52A      0.446102    53A      0.465554  
	  54A      0.478577    55A      0.482509    56A      0.491031  
	  57A      0.503944    58A      0.513541    59A      0.534104  
	  60A      0.549806    61A      0.588231    62A      0.624910  
	  63A      0.654432    64A      0.682274    65A      0.691748  
	  66A      0.718860    67A      0.742679    68A      0.756082  
	  69A      0.772863    70A      0.783442    71A      0.792880  
	  72A      0.813743    73A      0.827468    74A      0.857667  
	  75A      0.863264    76A      0.880694    77A      0.887993  
	  78A      0.899516    79A      0.913670    80A      0.918680  
	  81A      0.929950    82A      0.946661    83A      0.962270  
	  84A      0.973398    85A      0.984558    86A      0.992708  
	  87A      1.002081    88A      1.013570    89A      1.028299  
	  90A      1.036941    91A      1.049250    92A      1.061503  
	  93A      1.067202    94A      1.085475    95A      1.096681  
	  96A      1.108427    97A      1.124019    98A      1.127074  
	  99A      1.157481   100A      1.165524   101A      1.187940  
	 102A      1.198992   103A      1.228985   104A      1.240787  
	 105A      1.262693   106A      1.275536   107A      1.305132  
	 108A      1.321022   109A      1.332315   110A      1.351660  
	 111A      1.376098   112A      1.402232   113A      1.431841  
	 114A      1.465258   115A      1.491535   116A      1.522119  
	 117A      1.538023   118A      1.575001   119A      1.581231  
	 120A      1.602574   121A      1.608071   122A      1.623888  
	 123A      1.642399   124A      1.652573   125A      1.671896  
	 126A      1.681753   127A      1.694040   128A      1.732179  
	 129A      1.738105   130A      1.764877   131A      1.813971  
	 132A      1.834521   133A      1.886118   134A      1.894151  
	 135A      1.954219   136A      1.997910   137A      2.012113  
	 138A      2.034051   139A      2.041895   140A      2.056460  
	 141A      2.082687   142A      2.111465   143A      2.155462  
	 144A      2.179421   145A      2.189882   146A      2.211202  
	 147A      2.301461   148A      2.370218   149A      2.387358  
	 150A      2.468578   151A      2.486224   152A      2.520144  
	 153A      2.540564   154A      2.565530   155A      2.593009  
	 156A      2.627830   157A      2.656991   158A      2.695535  
	 159A      2.718636   160A      2.731143   161A      2.813799  
	 162A      2.821680   163A      2.834110   164A      2.870942  
	 165A      2.906874   166A      2.920097   167A      2.942674  
	 168A      2.985310   169A      3.017075   170A      3.078299  
	 171A      3.102142   172A      3.195108   173A      3.268832  
	 174A      3.317000   175A      3.374851   176A      3.414139  
	 177A      3.531479   178A      3.583676   179A      3.612164  
	 180A      3.615769   181A      3.669154   182A      3.695763  
	 183A      3.735227   184A      3.859792   185A      3.877052  
	 186A      3.914251   187A      3.921382   188A      3.949864  
	 189A      4.023320   190A      4.059770   191A      4.100550  
	 192A      4.125157   193A      4.147026   194A      4.187447  
	 195A      4.213130   196A      4.242495   197A      4.274455  
	 198A      4.282329   199A      4.339294   200A      4.368546  
	 201A      4.409679   202A      4.432028   203A      4.443213  
	 204A      4.484169   205A      4.520341   206A      4.548402  
	 207A      4.574930   208A      4.579425   209A      4.644893  
	 210A      4.696376   211A      4.701045   212A      4.736721  
	 213A      4.762974   214A      4.777345   215A      4.805151  
	 216A      4.826383   217A      4.855685   218A      4.913630  
	 219A      4.988589   220A      5.017408   221A      5.055232  
	 222A      5.105035   223A      5.128353   224A      5.132441  
	 225A      5.199861   226A      5.277945   227A      5.302449  
	 228A      5.332532   229A      5.366064   230A      5.446650  
	 231A      5.512818   232A      5.557230   233A      5.576300  
	 234A      5.606028   235A      5.638827   236A      5.740041  
	 237A      5.766402   238A      5.897558   239A      5.962540  
	 240A      6.038457   241A      6.115183   242A      6.140078  
	 243A      6.189711   244A      6.313764   245A      6.463785  
	 246A      6.602155   247A      6.649188   248A      6.668629  
	 249A      6.702609   250A      6.903713   251A      6.978479  
	 252A      7.080751   253A      7.148548   254A      7.172536  
	 255A      7.270861   256A      7.319388   257A      7.374238  
	 258A      7.407932   259A      7.458851   260A      7.469379  
	 261A      7.542724   262A      7.563260   263A      7.670569  
	 264A      7.743379   265A      7.831979   266A      7.920016  
	 267A      7.968905   268A      8.141695   269A      8.223196  
	 270A      8.272750   271A      8.583714   272A      8.703157  
	 273A      9.318836   274A     16.567579   275A     17.558578  
	 276A     18.052235  

	Final Occupation by Irrep:
	          A 
	DOCC [    14 ]

  Energy converged.

  @RHF Final Energy:  -191.13707118802768

   => Energetics <=

    Nuclear Repulsion Energy =             86.3734921838240695
    One-Electron Energy =                -433.5677707198177586
    Two-Electron Energy =                 156.0572073479661981
    DFT Exchange-Correlation Energy =       0.0000000000000000
    Empirical Dispersion Energy =           0.0000000000000000
    Total Energy =                       -191.1370711880275053



Properties will be evaluated at   0.000000,   0.000000,   0.000000 Bohr
  ==> Properties <==


Properties computed using the SCF density density matrix
  Nuclear Dipole Moment: (a.u.)
     X:     1.8568      Y:    -0.4975      Z:    -1.1839

  Electronic Dipole Moment: (a.u.)
     X:    -0.5834      Y:     0.4693      Z:     1.3926

  Dipole Moment: (a.u.)
     X:     1.2734      Y:    -0.0282      Z:     0.2087     Total:     1.2907

  Dipole Moment: (Debye)
     X:     3.2367      Y:    -0.0717      Z:     0.5305     Total:     3.2807


  Saving occupied orbitals to File 180.

  Saving SAPT 2-DIMER file.

*** tstop() called on node55.bme.utexas.edu at Thu Feb 13 09:53:31 2014
Module time:
	user time   =      60.61 seconds =       1.01 minutes
	system time =       0.74 seconds =       0.01 minutes
	total time  =         16 seconds =       0.27 minutes
Total time:
	user time   =      60.61 seconds =       1.01 minutes
	system time =       0.74 seconds =       0.01 minutes
	total time  =         16 seconds =       0.27 minutes

  //>>>>>>>>>>>>>>>>>>>>>>>>>>>>>>>>>>>//
  //            Monomer A HF           //
  //<<<<<<<<<<<<<<<<<<<<<<<<<<<<<<<<<<<//


  No DF_BASIS_SCF auxiliary basis selected, defaulting to aug-cc-pvtz-jkfit


*** tstart() called on node55.bme.utexas.edu
*** at Thu Feb 13 09:53:31 2014


         ---------------------------------------------------------
                                   SCF
            by Justin Turney, Rob Parrish, and Andy Simmonett
                              RHF Reference
                        4 Threads,   7000 MiB Core
         ---------------------------------------------------------

  ==> Geometry <==

    Molecular point group: c1
    Full point group: C1

    Geometry (in Angstrom), charge = 0, multiplicity = 1:

       Center              X                  Y                   Z       
    ------------   -----------------  -----------------  -----------------
           O         -1.635208247612     0.076868152824     0.153710563918
           H         -2.051885086612     0.875740867824     0.479480240918
           H         -0.706181928612     0.187625217824     0.394659056918
           O(Gh)      0.663470529388     0.177397139824     0.498783833918
           H(Gh)      1.031453353388    -0.394680263176     1.176312160918
           C(Gh)      1.128475600388    -0.294232776176    -0.763375276082
           H(Gh)      0.697658505388     0.356860914824    -1.516489308082
           H(Gh)      2.214439287388    -0.243439915176    -0.837687204082
           H(Gh)      0.800132982388    -1.314102273176    -0.962455910082

  Running in c1 symmetry.

  Nuclear repulsion =    9.149968299767009

  Charge       = 0
  Multiplicity = 1
  Electrons    = 10
  Nalpha       = 5
  Nbeta        = 5

  ==> Algorithm <==

  SCF Algorithm Type is DF.
  DIIS enabled.
  MOM disabled.
  Fractional occupation disabled.
  Guess Type is CORE.
  Energy threshold   = 1.00e-08
  Density threshold  = 1.00e-08
  Integral threshold = 0.00e+00

  ==> Primary Basis <==

  Basis Set: AUG-CC-PVTZ
    Number of shells: 96
    Number of basis function: 276
    Number of Cartesian functions: 315
    Spherical Harmonics?: true
    Max angular momentum: 3

  ==> Pre-Iterations <==

   -------------------------------------------------------
    Irrep   Nso     Nmo     Nalpha   Nbeta   Ndocc  Nsocc
   -------------------------------------------------------
     A        276     276       0       0       0       0
   -------------------------------------------------------
    Total     276     276       5       5       5       0
   -------------------------------------------------------

 OEINTS: Wrapper to libmints.
   by Justin Turney

   Calculation information:
      Number of atoms:                   9
      Number of AO shells:              96
      Number of SO shells:              96
      Number of primitives:            156
      Number of atomic orbitals:       315
      Number of basis functions:       276

      Number of irreps:                  1
      Number of functions per irrep: [ 276 ]

      Overlap, kinetic, potential, dipole, and quadrupole integrals
        stored in file 35.

  ==> Integral Setup <==

  ==> DFJK: Density-Fitted J/K Matrices <==

    J tasked:                  Yes
    K tasked:                  Yes
    wK tasked:                  No
    OpenMP threads:              4
    Integrals threads:           4
    Memory (MB):              5006
    Algorithm:                Core
    Integral Cache:           LOAD
    Schwarz Cutoff:          0E+00
    Fitting Condition:       1E-12

   => Auxiliary Basis Set <=

  Basis Set: aug-cc-pvtz-jkfit
    Number of shells: 174
    Number of basis function: 588
    Number of Cartesian functions: 723
    Spherical Harmonics?: true
    Max angular momentum: 4

  Minimum eigenvalue in the overlap matrix is 4.4400740952E-05.
  Using Symmetric Orthogonalization.
  SCF Guess: Core (One-Electron) Hamiltonian.

  Guess energy:   -60.19607986760063

  ==> Iterations <==

                        Total Energy        Delta E     RMS |[F,P]|

   @RHF iter   1:   -61.28558046781559   -6.12856e+01   2.93946e-02 
   @RHF iter   2:   -61.97844111695420   -6.92861e-01   1.03538e-02 DIIS
   @RHF iter   3:   -72.57786739052342   -1.05994e+01   1.25200e-02 DIIS
   @RHF iter   4:   -75.13667021705204   -2.55880e+00   5.82115e-03 DIIS
   @RHF iter   5:   -76.03455133647714   -8.97881e-01   7.48647e-04 DIIS
   @RHF iter   6:   -76.05954152224307   -2.49902e-02   1.76876e-04 DIIS
   @RHF iter   7:   -76.06026355880991   -7.22037e-04   2.67834e-05 DIIS
   @RHF iter   8:   -76.06028292385444   -1.93650e-05   4.29351e-06 DIIS
   @RHF iter   9:   -76.06028353143502   -6.07581e-07   6.33541e-07 DIIS
   @RHF iter  10:   -76.06028355111043   -1.96754e-08   7.35159e-08 DIIS
   @RHF iter  11:   -76.06028355144537   -3.34936e-10   2.91519e-08 DIIS
   @RHF iter  12:   -76.06028355147630   -3.09370e-11   2.26551e-09 DIIS

  ==> Post-Iterations <==

	Orbital Energies (a.u.)
	-----------------------

	Doubly Occupied:                                                      

	   1A    -20.568280     2A     -1.351568     3A     -0.713654  
	   4A     -0.585415     5A     -0.510143  

	Virtual:                                                              

	   6A      0.019835     7A      0.037157     8A      0.043492  
	   9A      0.050243    10A      0.060978    11A      0.082079  
	  12A      0.096078    13A      0.104614    14A      0.120232  
	  15A      0.130803    16A      0.135577    17A      0.154006  
	  18A      0.159275    19A      0.180257    20A      0.198641  
	  21A      0.204063    22A      0.218898    23A      0.236082  
	  24A      0.252468    25A      0.264746    26A      0.285692  
	  27A      0.293291    28A      0.298341    29A      0.299939  
	  30A      0.314305    31A      0.318561    32A      0.326379  
	  33A      0.337920    34A      0.344015    35A      0.358998  
	  36A      0.376937    37A      0.395636    38A      0.403423  
	  39A      0.412283    40A      0.426574    41A      0.439217  
	  42A      0.444408    43A      0.449885    44A      0.472115  
	  45A      0.479110    46A      0.491532    47A      0.492771  
	  48A      0.530019    49A      0.532666    50A      0.548118  
	  51A      0.577007    52A      0.586760    53A      0.622919  
	  54A      0.635214    55A      0.653273    56A      0.675651  
	  57A      0.707188    58A      0.714931    59A      0.744940  
	  60A      0.786270    61A      0.793333    62A      0.807768  
	  63A      0.841282    64A      0.849144    65A      0.861017  
	  66A      0.868311    67A      0.888348    68A      0.903610  
	  69A      0.938481    70A      0.947246    71A      0.954141  
	  72A      0.961936    73A      0.969693    74A      0.993792  
	  75A      1.005070    76A      1.019415    77A      1.031905  
	  78A      1.038282    79A      1.041483    80A      1.053093  
	  81A      1.058855    82A      1.069007    83A      1.083047  
	  84A      1.088939    85A      1.106329    86A      1.131221  
	  87A      1.140843    88A      1.173398    89A      1.176543  
	  90A      1.185798    91A      1.196973    92A      1.216643  
	  93A      1.232818    94A      1.242068    95A      1.254272  
	  96A      1.270921    97A      1.298811    98A      1.312183  
	  99A      1.315217   100A      1.340947   101A      1.356405  
	 102A      1.371296   103A      1.386151   104A      1.412718  
	 105A      1.442444   106A      1.476742   107A      1.482194  
	 108A      1.500197   109A      1.534063   110A      1.570586  
	 111A      1.621214   112A      1.624540   113A      1.672273  
	 114A      1.687873   115A      1.696141   116A      1.745820  
	 117A      1.765948   118A      1.780159   119A      1.809120  
	 120A      1.824617   121A      1.866968   122A      1.877326  
	 123A      1.900331   124A      1.904868   125A      1.960314  
	 126A      1.966478   127A      1.999532   128A      2.008561  
	 129A      2.039165   130A      2.077141   131A      2.118401  
	 132A      2.126302   133A      2.177538   134A      2.221381  
	 135A      2.255222   136A      2.294732   137A      2.322993  
	 138A      2.367343   139A      2.414134   140A      2.421584  
	 141A      2.439367   142A      2.471232   143A      2.487830  
	 144A      2.506728   145A      2.541977   146A      2.581970  
	 147A      2.601199   148A      2.641387   149A      2.657340  
	 150A      2.695829   151A      2.745047   152A      2.758287  
	 153A      2.809804   154A      2.886344   155A      2.905484  
	 156A      2.941864   157A      2.973687   158A      3.009872  
	 159A      3.024068   160A      3.073885   161A      3.096689  
	 162A      3.147794   163A      3.228737   164A      3.266571  
	 165A      3.337009   166A      3.361780   167A      3.438753  
	 168A      3.505872   169A      3.518984   170A      3.717626  
	 171A      3.729421   172A      3.844753   173A      3.947051  
	 174A      4.075827   175A      4.086874   176A      4.128354  
	 177A      4.144522   178A      4.174573   179A      4.188679  
	 180A      4.243696   181A      4.309465   182A      4.341938  
	 183A      4.357022   184A      4.399247   185A      4.412251  
	 186A      4.437472   187A      4.449999   188A      4.484891  
	 189A      4.501928   190A      4.526422   191A      4.532060  
	 192A      4.549556   193A      4.577223   194A      4.654417  
	 195A      4.671275   196A      4.700195   197A      4.759666  
	 198A      4.776331   199A      4.828959   200A      4.852349  
	 201A      4.940212   202A      4.964213   203A      5.001580  
	 204A      5.007699   205A      5.055999   206A      5.105963  
	 207A      5.121671   208A      5.135684   209A      5.198765  
	 210A      5.248465   211A      5.289709   212A      5.341594  
	 213A      5.361807   214A      5.372187   215A      5.397235  
	 216A      5.446374   217A      5.476785   218A      5.513085  
	 219A      5.536810   220A      5.605788   221A      5.673816  
	 222A      5.736779   223A      5.764200   224A      5.833098  
	 225A      5.833547   226A      5.973352   227A      6.015875  
	 228A      6.151211   229A      6.256840   230A      6.271378  
	 231A      6.328635   232A      6.363783   233A      6.505527  
	 234A      6.594541   235A      6.600543   236A      6.765700  
	 237A      6.791787   238A      6.845357   239A      7.070148  
	 240A      7.122378   241A      7.222679   242A      7.302911  
	 243A      7.334485   244A      7.412932   245A      7.500253  
	 246A      7.550242   247A      7.656464   248A      7.750303  
	 249A      7.773109   250A      7.834926   251A      7.889172  
	 252A      7.937105   253A      8.005783   254A      8.075180  
	 255A      8.125122   256A      8.172190   257A      8.221374  
	 258A      8.283013   259A      8.396825   260A      8.457633  
	 261A      8.565394   262A      8.838316   263A      9.213329  
	 264A     10.019170   265A     10.241668   266A     10.398652  
	 267A     10.492313   268A     10.948349   269A     11.033338  
	 270A     12.286819   271A     12.559744   272A     13.412089  
	 273A     14.041867   274A     17.544103   275A     53.156514  
	 276A     67.083881  

	Final Occupation by Irrep:
	          A 
	DOCC [     5 ]

  Energy converged.

  @RHF Final Energy:   -76.06028355147630

   => Energetics <=

    Nuclear Repulsion Energy =              9.1499682997670089
    One-Electron Energy =                -122.9623819001293157
    Two-Electron Energy =                  37.7521300488860376
    DFT Exchange-Correlation Energy =       0.0000000000000000
    Empirical Dispersion Energy =           0.0000000000000000
    Total Energy =                        -76.0602835514762603



Properties will be evaluated at   0.000000,   0.000000,   0.000000 Bohr
  ==> Properties <==


Properties computed using the SCF density density matrix
  Nuclear Dipole Moment: (a.u.)
     X:   -29.9328      Y:     3.1715      Z:     3.9757

  Electronic Dipole Moment: (a.u.)
     X:    30.2711      Y:    -2.5688      Z:    -3.6001

  Dipole Moment: (a.u.)
     X:     0.3383      Y:     0.6027      Z:     0.3755     Total:     0.7866

  Dipole Moment: (Debye)
     X:     0.8599      Y:     1.5319      Z:     0.9545     Total:     1.9993


  Saving occupied orbitals to File 180.

  Saving SAPT 2-MONOMER_A file.

*** tstop() called on node55.bme.utexas.edu at Thu Feb 13 09:53:41 2014
Module time:
	user time   =      36.65 seconds =       0.61 minutes
	system time =       0.36 seconds =       0.01 minutes
	total time  =         10 seconds =       0.17 minutes
Total time:
	user time   =      97.28 seconds =       1.62 minutes
	system time =       1.10 seconds =       0.02 minutes
	total time  =         26 seconds =       0.43 minutes

  //>>>>>>>>>>>>>>>>>>>>>>>>>>>>>>>>>>>//
  //            Monomer B HF           //
  //<<<<<<<<<<<<<<<<<<<<<<<<<<<<<<<<<<<//


  No DF_BASIS_SCF auxiliary basis selected, defaulting to aug-cc-pvtz-jkfit


*** tstart() called on node55.bme.utexas.edu
*** at Thu Feb 13 09:53:41 2014


         ---------------------------------------------------------
                                   SCF
            by Justin Turney, Rob Parrish, and Andy Simmonett
                              RHF Reference
                        4 Threads,   7000 MiB Core
         ---------------------------------------------------------

  ==> Geometry <==

    Molecular point group: c1
    Full point group: C1

    Geometry (in Angstrom), charge = 0, multiplicity = 1:

       Center              X                  Y                   Z       
    ------------   -----------------  -----------------  -----------------
           O(Gh)     -1.635208247612     0.076868152824     0.153710563918
           H(Gh)     -2.051885086612     0.875740867824     0.479480240918
           H(Gh)     -0.706181928612     0.187625217824     0.394659056918
           O          0.663470529388     0.177397139824     0.498783833918
           H          1.031453353388    -0.394680263176     1.176312160918
           C          1.128475600388    -0.294232776176    -0.763375276082
           H          0.697658505388     0.356860914824    -1.516489308082
           H          2.214439287388    -0.243439915176    -0.837687204082
           H          0.800132982388    -1.314102273176    -0.962455910082

  Running in c1 symmetry.

  Nuclear repulsion =   40.294631916025537

  Charge       = 0
  Multiplicity = 1
  Electrons    = 18
  Nalpha       = 9
  Nbeta        = 9

  ==> Algorithm <==

  SCF Algorithm Type is DF.
  DIIS enabled.
  MOM disabled.
  Fractional occupation disabled.
  Guess Type is CORE.
  Energy threshold   = 1.00e-08
  Density threshold  = 1.00e-08
  Integral threshold = 0.00e+00

  ==> Primary Basis <==

  Basis Set: AUG-CC-PVTZ
    Number of shells: 96
    Number of basis function: 276
    Number of Cartesian functions: 315
    Spherical Harmonics?: true
    Max angular momentum: 3

  ==> Pre-Iterations <==

   -------------------------------------------------------
    Irrep   Nso     Nmo     Nalpha   Nbeta   Ndocc  Nsocc
   -------------------------------------------------------
     A        276     276       0       0       0       0
   -------------------------------------------------------
    Total     276     276       9       9       9       0
   -------------------------------------------------------

 OEINTS: Wrapper to libmints.
   by Justin Turney

   Calculation information:
      Number of atoms:                   9
      Number of AO shells:              96
      Number of SO shells:              96
      Number of primitives:            156
      Number of atomic orbitals:       315
      Number of basis functions:       276

      Number of irreps:                  1
      Number of functions per irrep: [ 276 ]

      Overlap, kinetic, potential, dipole, and quadrupole integrals
        stored in file 35.

  ==> Integral Setup <==

  ==> DFJK: Density-Fitted J/K Matrices <==

    J tasked:                  Yes
    K tasked:                  Yes
    wK tasked:                  No
    OpenMP threads:              4
    Integrals threads:           4
    Memory (MB):              5006
    Algorithm:                Core
    Integral Cache:           LOAD
    Schwarz Cutoff:          0E+00
    Fitting Condition:       1E-12

   => Auxiliary Basis Set <=

  Basis Set: aug-cc-pvtz-jkfit
    Number of shells: 174
    Number of basis function: 588
    Number of Cartesian functions: 723
    Spherical Harmonics?: true
    Max angular momentum: 4

  Minimum eigenvalue in the overlap matrix is 4.4400740952E-05.
  Using Symmetric Orthogonalization.
  SCF Guess: Core (One-Electron) Hamiltonian.

  Guess energy:   -92.13638733355265

  ==> Iterations <==

                        Total Energy        Delta E     RMS |[F,P]|

   @RHF iter   1:   -89.49845886515260   -8.94985e+01   3.42434e-02 
   @RHF iter   2:   -89.23063540255933    2.67823e-01   1.17585e-02 DIIS
   @RHF iter   3:  -105.12612124141910   -1.58955e+01   1.84590e-02 DIIS
   @RHF iter   4:  -110.13257096657421   -5.00645e+00   1.28153e-02 DIIS
   @RHF iter   5:  -113.12891661133727   -2.99635e+00   7.82088e-03 DIIS
   @RHF iter   6:  -114.91108299791557   -1.78217e+00   2.06929e-03 DIIS
   @RHF iter   7:  -115.07324220392621   -1.62159e-01   7.30278e-04 DIIS
   @RHF iter   8:  -115.09155294354736   -1.83107e-02   1.46003e-04 DIIS
   @RHF iter   9:  -115.09214870828032   -5.95765e-04   2.19195e-05 DIIS
   @RHF iter  10:  -115.09218292349610   -3.42152e-05   4.07985e-06 DIIS
   @RHF iter  11:  -115.09218453988183   -1.61639e-06   8.79102e-07 DIIS
   @RHF iter  12:  -115.09218461489814   -7.50163e-08   1.81224e-07 DIIS
   @RHF iter  13:  -115.09218461833026   -3.43212e-09   3.83011e-08 DIIS
   @RHF iter  14:  -115.09218461845910   -1.28836e-10   1.00248e-08 DIIS
   @RHF iter  15:  -115.09218461846578   -6.67910e-12   1.54219e-09 DIIS

  ==> Post-Iterations <==

	Orbital Energies (a.u.)
	-----------------------

	Doubly Occupied:                                                      

	   1A    -20.558888     2A    -11.270653     3A     -1.356144  
	   4A     -0.926740     5A     -0.690169     6A     -0.621041  
	   7A     -0.592157     8A     -0.505402     9A     -0.452629  

	Virtual:                                                              

	  10A      0.027308    11A      0.041876    12A      0.042448  
	  13A      0.047546    14A      0.064360    15A      0.084404  
	  16A      0.098850    17A      0.120783    18A      0.126032  
	  19A      0.140487    20A      0.145462    21A      0.161028  
	  22A      0.165027    23A      0.172174    24A      0.188652  
	  25A      0.209968    26A      0.222669    27A      0.235494  
	  28A      0.256589    29A      0.274216    30A      0.285453  
	  31A      0.291712    32A      0.306791    33A      0.311992  
	  34A      0.326427    35A      0.333208    36A      0.342150  
	  37A      0.350750    38A      0.370497    39A      0.372249  
	  40A      0.390290    41A      0.399932    42A      0.403473  
	  43A      0.408711    44A      0.428351    45A      0.440146  
	  46A      0.444101    47A      0.448844    48A      0.450112  
	  49A      0.468771    50A      0.473896    51A      0.497239  
	  52A      0.506591    53A      0.520832    54A      0.527773  
	  55A      0.546289    56A      0.575741    57A      0.634288  
	  58A      0.670946    59A      0.682261    60A      0.705151  
	  61A      0.746842    62A      0.760000    63A      0.773547  
	  64A      0.785316    65A      0.796621    66A      0.801496  
	  67A      0.817446    68A      0.830602    69A      0.843730  
	  70A      0.860310    71A      0.880920    72A      0.887599  
	  73A      0.895358    74A      0.913035    75A      0.926521  
	  76A      0.937026    77A      0.941298    78A      0.956186  
	  79A      0.960214    80A      0.984988    81A      0.996062  
	  82A      1.012229    83A      1.023181    84A      1.029883  
	  85A      1.046893    86A      1.052658    87A      1.060644  
	  88A      1.073685    89A      1.088143    90A      1.117794  
	  91A      1.127989    92A      1.137404    93A      1.141117  
	  94A      1.153643    95A      1.165116    96A      1.195988  
	  97A      1.207431    98A      1.227766    99A      1.256564  
	 100A      1.268380   101A      1.288090   102A      1.319376  
	 103A      1.341564   104A      1.347030   105A      1.381029  
	 106A      1.404485   107A      1.418087   108A      1.447917  
	 109A      1.461458   110A      1.535193   111A      1.554555  
	 112A      1.559377   113A      1.606842   114A      1.623162  
	 115A      1.633263   116A      1.641283   117A      1.647421  
	 118A      1.656882   119A      1.681245   120A      1.684275  
	 121A      1.704500   122A      1.719422   123A      1.746151  
	 124A      1.787954   125A      1.804615   126A      1.813747  
	 127A      1.842423   128A      1.877885   129A      1.895049  
	 130A      1.938251   131A      1.959775   132A      2.012895  
	 133A      2.043995   134A      2.056391   135A      2.066492  
	 136A      2.107315   137A      2.137087   138A      2.143194  
	 139A      2.152052   140A      2.205818   141A      2.236271  
	 142A      2.287557   143A      2.378113   144A      2.450751  
	 145A      2.505984   146A      2.535070   147A      2.554414  
	 148A      2.569126   149A      2.608374   150A      2.651938  
	 151A      2.678190   152A      2.715405   153A      2.735226  
	 154A      2.743456   155A      2.798918   156A      2.842633  
	 157A      2.881512   158A      2.907476   159A      2.942962  
	 160A      2.980592   161A      2.990435   162A      3.048218  
	 163A      3.077158   164A      3.158757   165A      3.190889  
	 166A      3.250166   167A      3.278026   168A      3.313356  
	 169A      3.357489   170A      3.405324   171A      3.431973  
	 172A      3.512509   173A      3.603635   174A      3.615783  
	 175A      3.636744   176A      3.661636   177A      3.671815  
	 178A      3.710065   179A      3.726012   180A      3.763351  
	 181A      3.794749   182A      3.889221   183A      3.902593  
	 184A      3.944019   185A      3.959637   186A      4.032165  
	 187A      4.084741   188A      4.117221   189A      4.128677  
	 190A      4.178936   191A      4.209058   192A      4.243172  
	 193A      4.285047   194A      4.324739   195A      4.346788  
	 196A      4.428489   197A      4.506457   198A      4.528679  
	 199A      4.561171   200A      4.574835   201A      4.609670  
	 202A      4.636874   203A      4.690168   204A      4.722516  
	 205A      4.777929   206A      4.795776   207A      4.796890  
	 208A      4.867110   209A      4.878010   210A      4.910878  
	 211A      4.968152   212A      4.975402   213A      5.017825  
	 214A      5.047074   215A      5.071462   216A      5.086828  
	 217A      5.166015   218A      5.195534   219A      5.251841  
	 220A      5.316863   221A      5.338835   222A      5.415776  
	 223A      5.477177   224A      5.540027   225A      5.575297  
	 226A      5.597395   227A      5.641700   228A      5.700965  
	 229A      5.719010   230A      5.781297   231A      5.860692  
	 232A      5.914538   233A      6.081037   234A      6.114207  
	 235A      6.136686   236A      6.172097   237A      6.223302  
	 238A      6.251917   239A      6.472479   240A      6.623558  
	 241A      6.655028   242A      6.713167   243A      6.742863  
	 244A      6.873424   245A      7.049400   246A      7.158330  
	 247A      7.235155   248A      7.357100   249A      7.454173  
	 250A      7.511938   251A      7.580905   252A      7.679696  
	 253A      7.744389   254A      7.814294   255A      7.906254  
	 256A      8.006579   257A      8.136127   258A      8.181929  
	 259A      8.268045   260A      8.472291   261A      8.589133  
	 262A      8.728623   263A      9.052197   264A      9.326784  
	 265A      9.793892   266A      9.952261   267A     10.213452  
	 268A     10.486895   269A     11.489440   270A     12.001172  
	 271A     12.673524   272A     13.890213   273A     14.088001  
	 274A     16.693475   275A     18.043901   276A     68.050011  

	Final Occupation by Irrep:
	          A 
	DOCC [     9 ]

  Energy converged.

  @RHF Final Energy:  -115.09218461846578

   => Energetics <=

    Nuclear Repulsion Energy =             40.2946319160255371
    One-Electron Energy =                -236.8259898260599243
    Two-Electron Energy =                  81.4391732915686646
    DFT Exchange-Correlation Energy =       0.0000000000000000
    Empirical Dispersion Energy =           0.0000000000000000
    Total Energy =                       -115.0921846184657227



Properties will be evaluated at   0.000000,   0.000000,   0.000000 Bohr
  ==> Properties <==


Properties computed using the SCF density density matrix
  Nuclear Dipole Moment: (a.u.)
     X:    31.7895      Y:    -3.6691      Z:    -5.1595

  Electronic Dipole Moment: (a.u.)
     X:   -31.3597      Y:     3.1092      Z:     5.0323

  Dipole Moment: (a.u.)
     X:     0.4299      Y:    -0.5599      Z:    -0.1272     Total:     0.7172

  Dipole Moment: (Debye)
     X:     1.0926      Y:    -1.4231      Z:    -0.3234     Total:     1.8230


  Saving occupied orbitals to File 180.

  Saving SAPT 2-MONOMER_B file.

*** tstop() called on node55.bme.utexas.edu at Thu Feb 13 09:53:54 2014
Module time:
	user time   =      47.23 seconds =       0.79 minutes
	system time =       0.44 seconds =       0.01 minutes
	total time  =         13 seconds =       0.22 minutes
Total time:
	user time   =     144.60 seconds =       2.41 minutes
	system time =       1.54 seconds =       0.03 minutes
	total time  =         39 seconds =       0.65 minutes
  No DF_BASIS_SAPT auxiliary basis selected, defaulting to aug-cc-pvtz-ri

  //>>>>>>>>>>>>>>>>>>>>>>>>>>>>>>>>>>>//
  //               SAPT2+              //
  //<<<<<<<<<<<<<<<<<<<<<<<<<<<<<<<<<<<//


*** tstart() called on node55.bme.utexas.edu
*** at Thu Feb 13 09:53:54 2014

        SAPT2+  
    Ed Hohenstein
     6 June 2009

      Orbital Information
  --------------------------
    NSO        =       276
    NMO        =       276
    NRI        =       594
    NOCC A     =         5
    NOCC B     =         9
    FOCC A     =         1
    FOCC B     =         2
    NVIR A     =       271
    NVIR B     =       267

    Estimated memory usage: 491.8 MB

    Elst10,r            =    -0.047481127688 H
    Exch10 (S^2)        =     0.084608200815 H
    Exch10              =     0.088255534900 H
    Ind20,r (A<-B)      =    -0.019960904183 H
    Ind20,r (B<-A)      =    -0.024399216736 H
    Ind20,r             =    -0.044360120918 H
    Exch-Ind20,r (A<-B) =     0.017596746150 H
    Exch-Ind20,r (B<-A) =     0.011566926346 H
    Exch-Ind20,r        =     0.029163672496 H
    Disp20              =    -0.018455258130 H
    Exch-Disp20         =     0.004475171061 H
    Elst12,r            =    -0.000776473075 H
    Exch11              =     0.000699730573 H
    Exch12              =     0.006965558530 H
    Ind22               =    -0.005860840216 H
    Disp21              =     0.001565546361 H
    Disp22 (SDQ)        =    -0.000314245761 H

    (i =   1 of   7)         62 seconds
    (i =   2 of   7)        124 seconds
    (i =   3 of   7)        187 seconds
    (i =   4 of   7)        249 seconds
    (i =   5 of   7)        311 seconds
    (i =   6 of   7)        374 seconds
    (i =   7 of   7)        436 seconds

    Disp220 (T)         =    -0.001430352417 H

    (i =   1 of   4)        114 seconds
    (i =   2 of   4)        228 seconds
    (i =   3 of   4)        342 seconds
    (i =   4 of   4)        456 seconds

    Disp202 (T)         =    -0.001287727859 H

    Disp22 (T)          =    -0.002718080276 H

    SAPT Results  
  -----------------------------------------------------------------------
    Electrostatics         -48.25760076 mH     -30.28210293 kcal mol^-1
      Elst10,r             -47.48112769 mH     -29.79485869 kcal mol^-1
      Elst12,r              -0.77647307 mH      -0.48724423 kcal mol^-1

    Exchange                95.92082400 mH      60.19122831 kcal mol^-1
      Exch10                88.25553490 mH      55.38118658 kcal mol^-1
      Exch10(S^2)           84.60820081 mH      53.09244979 kcal mol^-1
      Exch11(S^2)            0.69973057 mH       0.43908758 kcal mol^-1
      Exch12(S^2)            6.96555853 mH       4.37095415 kcal mol^-1

    Induction              -27.38517357 mH     -17.18445657 kcal mol^-1
      Ind20,r              -44.36012092 mH     -27.83639730 kcal mol^-1
      Ind22                 -5.86084022 mH      -3.67773291 kcal mol^-1
      Exch-Ind20,r          29.16367250 mH      18.30048155 kcal mol^-1
      Exch-Ind22             3.85309195 mH       2.41785180 kcal mol^-1
      delta HF,r (2)       -10.18097688 mH      -6.38865971 kcal mol^-1

    Dispersion             -15.44686675 mH      -9.69305563 kcal mol^-1
      Disp20               -18.45525813 mH     -11.58084980 kcal mol^-1
      Disp21                 1.56554636 mH       0.98239521 kcal mol^-1
      Disp22 (SDQ)          -0.31424576 mH      -0.19719220 kcal mol^-1
      Disp22 (T)            -2.71808028 mH      -1.70562120 kcal mol^-1
      Exch-Disp20            4.47517106 mH       2.80821236 kcal mol^-1

    Total HF                15.39698191 mH       9.66175242 kcal mol^-1
    Total SAPT0              1.41689485 mH       0.88911498 kcal mol^-1
    Total SAPT2              6.29796260 mH       3.95203136 kcal mol^-1
    Total SAPT2+             4.83118293 mH       3.03161318 kcal mol^-1

*** tstop() called on node55.bme.utexas.edu at Thu Feb 13 10:17:49 2014
Module time:
	user time   =    5581.16 seconds =      93.02 minutes
	system time =      38.86 seconds =       0.65 minutes
	total time  =       1435 seconds =      23.92 minutes
Total time:
	user time   =    5725.76 seconds =      95.43 minutes
	system time =      40.40 seconds =       0.67 minutes
	total time  =       1474 seconds =      24.57 minutes

*** PSI4 exiting successfully. Buy a developer a beer!
    -----------------------------------------------------------------------
          PSI4: An Open-Source Ab Initio Electronic Structure Package
                              PSI 4.0.0-beta4 Driver

    J. M. Turney, A. C. Simmonett, R. M. Parrish, E. G. Hohenstein,
    F. A. Evangelista, J. T. Fermann, B. J. Mintz, L. A. Burns, J. J. Wilke,
    M. L. Abrams, N. J. Russ, M. L. Leininger, C. L. Janssen, E. T. Seidl,
    W. D. Allen, H. F. Schaefer, R. A. King, E. F. Valeev, C. D. Sherrill,
    and T. D. Crawford, WIREs Comput. Mol. Sci., (2011) (doi: 10.1002/wcms.93)

                         Additional Contributions by
    A. E. DePrince, M. Saitow, U. Bozkaya, A. Yu. Sokolov
    -----------------------------------------------------------------------

    Process ID:  15330
    PSI4DATADIR: /home/xzhu216/psi4/psi4-install/share/psi

    Using LocalCommunicator (Number of processes = 1)

    Memory level set to 256.000 MB

  ==> Input File <==

--------------------------------------------------------------------------
#psi4
#
memory 7 gb

molecule Water_MeOH {
0 1
    O    -0.525329794    -0.050971084    -0.314516861
    H    -0.942006633     0.747901631     0.011252816
    H     0.403696525     0.059785981    -0.073568368
--
0 1
    O     1.969013620     0.048096749     0.045431378
    H     2.336996444    -0.523980654     0.722959705
    C     2.434018691    -0.423533167    -1.216727732
    H     2.003201596     0.227560524    -1.969841764
    H     3.519982378    -0.372740306    -1.291039660
    H     2.105676073    -1.443402664    -1.415808366
units angstrom
no_reorient  #important for SAPT in psi4, default
symmetry c1  #important for SAPT in psi4, default
}

set {
basis aug-cc-pVTZ
scf_type DF
freeze_core True
}
energy('sapt2+')
--------------------------------------------------------------------------

  Memory set to   7.000 GiB by Python script.

  //>>>>>>>>>>>>>>>>>>>>>>>>>>>>>>>>>>>//
  //              Dimer HF             //
  //<<<<<<<<<<<<<<<<<<<<<<<<<<<<<<<<<<<//


  No DF_BASIS_SCF auxiliary basis selected, defaulting to aug-cc-pvtz-jkfit


*** tstart() called on node57.bme.utexas.edu
*** at Thu Feb 13 13:30:27 2014


         ---------------------------------------------------------
                                   SCF
            by Justin Turney, Rob Parrish, and Andy Simmonett
                              RHF Reference
                        4 Threads,   7000 MiB Core
         ---------------------------------------------------------

  ==> Geometry <==

    Molecular point group: c1
    Full point group: C1

    Geometry (in Angstrom), charge = 0, multiplicity = 1:

       Center              X                  Y                   Z       
    ------------   -----------------  -----------------  -----------------
           O         -1.760444079220     0.077803369525     0.144189788261
           H         -2.177120918220     0.876676084525     0.469959465261
           H         -0.831417760220     0.188560434525     0.385138281261
           O          0.733899334780     0.176871202525     0.504138027261
           H          1.101882158780    -0.395206200475     1.181666354261
           C          1.198904405780    -0.294758713475    -0.758021082739
           H          0.768087310780     0.356334977525    -1.511135114739
           H          2.284868092780    -0.243965852475    -0.832333010739
           H          0.870561787780    -1.314628210475    -0.957101716739

  Running in c1 symmetry.

  Nuclear repulsion =   83.777396427639573

  Charge       = 0
  Multiplicity = 1
  Electrons    = 28
  Nalpha       = 14
  Nbeta        = 14

  ==> Algorithm <==

  SCF Algorithm Type is DF.
  DIIS enabled.
  MOM disabled.
  Fractional occupation disabled.
  Guess Type is CORE.
  Energy threshold   = 1.00e-08
  Density threshold  = 1.00e-08
  Integral threshold = 0.00e+00

  ==> Primary Basis <==

  Basis Set: AUG-CC-PVTZ
    Number of shells: 96
    Number of basis function: 276
    Number of Cartesian functions: 315
    Spherical Harmonics?: true
    Max angular momentum: 3

  ==> Pre-Iterations <==

   -------------------------------------------------------
    Irrep   Nso     Nmo     Nalpha   Nbeta   Ndocc  Nsocc
   -------------------------------------------------------
     A        276     276       0       0       0       0
   -------------------------------------------------------
    Total     276     276      14      14      14       0
   -------------------------------------------------------

 OEINTS: Wrapper to libmints.
   by Justin Turney

   Calculation information:
      Number of atoms:                   9
      Number of AO shells:              96
      Number of SO shells:              96
      Number of primitives:            156
      Number of atomic orbitals:       315
      Number of basis functions:       276

      Number of irreps:                  1
      Number of functions per irrep: [ 276 ]

      Overlap, kinetic, potential, dipole, and quadrupole integrals
        stored in file 35.

  ==> Integral Setup <==

  ==> DFJK: Density-Fitted J/K Matrices <==

    J tasked:                  Yes
    K tasked:                  Yes
    wK tasked:                  No
    OpenMP threads:              4
    Integrals threads:           4
    Memory (MB):              5006
    Algorithm:                Core
    Integral Cache:           SAVE
    Schwarz Cutoff:          0E+00
    Fitting Condition:       1E-12

   => Auxiliary Basis Set <=

  Basis Set: aug-cc-pvtz-jkfit
    Number of shells: 174
    Number of basis function: 588
    Number of Cartesian functions: 723
    Spherical Harmonics?: true
    Max angular momentum: 4

  Minimum eigenvalue in the overlap matrix is 4.6193412507E-05.
  Using Symmetric Orthogonalization.
  SCF Guess: Core (One-Electron) Hamiltonian.

  Guess energy:  -152.78356267195272

  ==> Iterations <==

                        Total Energy        Delta E     RMS |[F,P]|

   @RHF iter   1:  -151.04673310774751   -1.51047e+02   4.49245e-02 
   @RHF iter   2:  -143.37925318641834    7.66748e+00   1.68579e-02 DIIS
   @RHF iter   3:  -173.11683973586833   -2.97376e+01   2.29488e-02 DIIS
   @RHF iter   4:  -185.09876424423146   -1.19819e+01   1.42151e-02 DIIS
   @RHF iter   5:  -189.20987994480640   -4.11112e+00   7.68923e-03 DIIS
   @RHF iter   6:  -190.90466573722904   -1.69479e+00   2.36583e-03 DIIS
   @RHF iter   7:  -191.13960765861873   -2.34942e-01   4.84455e-04 DIIS
   @RHF iter   8:  -191.14969597533502   -1.00883e-02   1.95463e-04 DIIS
   @RHF iter   9:  -191.15099771052905   -1.30174e-03   4.48976e-05 DIIS
   @RHF iter  10:  -191.15111914429593   -1.21434e-04   1.22882e-05 DIIS
   @RHF iter  11:  -191.15113161559418   -1.24713e-05   3.82068e-06 DIIS
   @RHF iter  12:  -191.15113254168858   -9.26094e-07   9.10889e-07 DIIS
   @RHF iter  13:  -191.15113259943831   -5.77497e-08   1.58145e-07 DIIS
   @RHF iter  14:  -191.15113260187701   -2.43870e-09   3.13713e-08 DIIS
   @RHF iter  15:  -191.15113260195920   -8.21956e-11   6.69032e-09 DIIS

  ==> Post-Iterations <==

	Orbital Energies (a.u.)
	-----------------------

	Doubly Occupied:                                                      

	   1A    -20.589289     2A    -20.514777     3A    -11.285756  
	   4A     -1.395674     5A     -1.306680     6A     -0.946409  
	   7A     -0.736286     8A     -0.689583     9A     -0.631358  
	  10A     -0.613131    11A     -0.554048    12A     -0.519354  
	  13A     -0.475650    14A     -0.464576  

	Virtual:                                                              

	  15A      0.024538    16A      0.039893    17A      0.044015  
	  18A      0.048282    19A      0.062990    20A      0.089925  
	  21A      0.096373    22A      0.118703    23A      0.132647  
	  24A      0.144223    25A      0.148136    26A      0.161963  
	  27A      0.166058    28A      0.186135    29A      0.203404  
	  30A      0.206289    31A      0.221244    32A      0.247806  
	  33A      0.255046    34A      0.270207    35A      0.276305  
	  36A      0.295350    37A      0.297477    38A      0.302048  
	  39A      0.319831    40A      0.326374    41A      0.331239  
	  42A      0.353067    43A      0.367324    44A      0.372791  
	  45A      0.392296    46A      0.405624    47A      0.408725  
	  48A      0.418845    49A      0.424364    50A      0.435710  
	  51A      0.439760    52A      0.446046    53A      0.460645  
	  54A      0.476396    55A      0.478307    56A      0.490012  
	  57A      0.501224    58A      0.513484    59A      0.526794  
	  60A      0.547753    61A      0.564089    62A      0.617611  
	  63A      0.654918    64A      0.661891    65A      0.693282  
	  66A      0.717183    67A      0.735346    68A      0.746582  
	  69A      0.768243    70A      0.783532    71A      0.787378  
	  72A      0.807021    73A      0.820032    74A      0.845791  
	  75A      0.853398    76A      0.878451    77A      0.885530  
	  78A      0.893095    79A      0.912273    80A      0.917064  
	  81A      0.919953    82A      0.941059    83A      0.962012  
	  84A      0.968100    85A      0.983420    86A      0.985815  
	  87A      0.994260    88A      1.001780    89A      1.017683  
	  90A      1.030306    91A      1.043461    92A      1.051053  
	  93A      1.065818    94A      1.079728    95A      1.089367  
	  96A      1.109156    97A      1.120189    98A      1.126371  
	  99A      1.153113   100A      1.157988   101A      1.174920  
	 102A      1.191503   103A      1.218204   104A      1.227276  
	 105A      1.255882   106A      1.264784   107A      1.292931  
	 108A      1.309653   109A      1.321891   110A      1.330482  
	 111A      1.362125   112A      1.387397   113A      1.420048  
	 114A      1.432702   115A      1.484679   116A      1.509037  
	 117A      1.523600   118A      1.568327   119A      1.569876  
	 120A      1.587339   121A      1.604770   122A      1.614167  
	 123A      1.635897   124A      1.644370   125A      1.654515  
	 126A      1.675029   127A      1.683194   128A      1.706412  
	 129A      1.722531   130A      1.756392   131A      1.795008  
	 132A      1.820448   133A      1.867021   134A      1.876850  
	 135A      1.910949   136A      1.955478   137A      1.980537  
	 138A      2.017336   139A      2.038891   140A      2.051956  
	 141A      2.088563   142A      2.107698   143A      2.146194  
	 144A      2.164869   145A      2.179609   146A      2.210202  
	 147A      2.261226   148A      2.364681   149A      2.380825  
	 150A      2.437881   151A      2.481827   152A      2.492868  
	 153A      2.540812   154A      2.544755   155A      2.552123  
	 156A      2.596207   157A      2.642313   158A      2.659141  
	 159A      2.687435   160A      2.714457   161A      2.766168  
	 162A      2.790078   163A      2.806938   164A      2.847541  
	 165A      2.852281   166A      2.891381   167A      2.949693  
	 168A      2.980316   169A      2.995256   170A      3.065520  
	 171A      3.087781   172A      3.116881   173A      3.219281  
	 174A      3.286710   175A      3.368190   176A      3.405719  
	 177A      3.473430   178A      3.573871   179A      3.605180  
	 180A      3.615744   181A      3.664671   182A      3.687725  
	 183A      3.729448   184A      3.848613   185A      3.874447  
	 186A      3.892302   187A      3.912377   188A      3.946720  
	 189A      4.017871   190A      4.066546   191A      4.084374  
	 192A      4.121943   193A      4.135637   194A      4.161420  
	 195A      4.200100   196A      4.236975   197A      4.249044  
	 198A      4.260696   199A      4.296284   200A      4.306230  
	 201A      4.380924   202A      4.393603   203A      4.411561  
	 204A      4.452113   205A      4.486709   206A      4.506153  
	 207A      4.550871   208A      4.561591   209A      4.600423  
	 210A      4.635177   211A      4.667938   212A      4.690745  
	 213A      4.709879   214A      4.753695   215A      4.764072  
	 216A      4.797928   217A      4.818001   218A      4.889151  
	 219A      4.960973   220A      5.004008   221A      5.037582  
	 222A      5.097812   223A      5.105044   224A      5.129742  
	 225A      5.177864   226A      5.252393   227A      5.269746  
	 228A      5.295871   229A      5.375895   230A      5.428485  
	 231A      5.453959   232A      5.521640   233A      5.574671  
	 234A      5.601038   235A      5.625838   236A      5.636198  
	 237A      5.731731   238A      5.777054   239A      5.866166  
	 240A      5.924158   241A      6.116422   242A      6.124594  
	 243A      6.178750   244A      6.253617   245A      6.374469  
	 246A      6.600110   247A      6.625430   248A      6.652161  
	 249A      6.685369   250A      6.873557   251A      6.963000  
	 252A      7.009692   253A      7.125661   254A      7.174811  
	 255A      7.245530   256A      7.293257   257A      7.364739  
	 258A      7.376718   259A      7.394169   260A      7.426015  
	 261A      7.466863   262A      7.513850   263A      7.613018  
	 264A      7.666370   265A      7.697170   266A      7.814447  
	 267A      7.924157   268A      8.087961   269A      8.123667  
	 270A      8.199989   271A      8.380139   272A      8.606212  
	 273A      9.153839   274A     16.451593   275A     17.215802  
	 276A     17.955160  

	Final Occupation by Irrep:
	          A 
	DOCC [    14 ]

  Energy converged.

  @RHF Final Energy:  -191.15113260195920

   => Energetics <=

    Nuclear Repulsion Energy =             83.7773964276395731
    One-Electron Energy =                -428.4119160200980900
    Two-Electron Energy =                 153.4833869904994117
    DFT Exchange-Correlation Energy =       0.0000000000000000
    Empirical Dispersion Energy =           0.0000000000000000
    Total Energy =                       -191.1511326019590911



Properties will be evaluated at   0.000000,   0.000000,   0.000000 Bohr
  ==> Properties <==


Properties computed using the SCF density density matrix
  Nuclear Dipole Moment: (a.u.)
     X:     1.8858      Y:    -0.4977      Z:    -1.1817

  Electronic Dipole Moment: (a.u.)
     X:    -0.7393      Y:     0.4850      Z:     1.3940

  Dipole Moment: (a.u.)
     X:     1.1465      Y:    -0.0127      Z:     0.2124     Total:     1.1660

  Dipole Moment: (Debye)
     X:     2.9140      Y:    -0.0323      Z:     0.5398     Total:     2.9638


  Saving occupied orbitals to File 180.

  Saving SAPT 2-DIMER file.

*** tstop() called on node57.bme.utexas.edu at Thu Feb 13 13:30:43 2014
Module time:
	user time   =      58.12 seconds =       0.97 minutes
	system time =       0.89 seconds =       0.01 minutes
	total time  =         16 seconds =       0.27 minutes
Total time:
	user time   =      58.12 seconds =       0.97 minutes
	system time =       0.89 seconds =       0.01 minutes
	total time  =         16 seconds =       0.27 minutes

  //>>>>>>>>>>>>>>>>>>>>>>>>>>>>>>>>>>>//
  //            Monomer A HF           //
  //<<<<<<<<<<<<<<<<<<<<<<<<<<<<<<<<<<<//


  No DF_BASIS_SCF auxiliary basis selected, defaulting to aug-cc-pvtz-jkfit


*** tstart() called on node57.bme.utexas.edu
*** at Thu Feb 13 13:30:43 2014


         ---------------------------------------------------------
                                   SCF
            by Justin Turney, Rob Parrish, and Andy Simmonett
                              RHF Reference
                        4 Threads,   7000 MiB Core
         ---------------------------------------------------------

  ==> Geometry <==

    Molecular point group: c1
    Full point group: C1

    Geometry (in Angstrom), charge = 0, multiplicity = 1:

       Center              X                  Y                   Z       
    ------------   -----------------  -----------------  -----------------
           O         -1.760444079220     0.077803369525     0.144189788261
           H         -2.177120918220     0.876676084525     0.469959465261
           H         -0.831417760220     0.188560434525     0.385138281261
           O(Gh)      0.733899334780     0.176871202525     0.504138027261
           H(Gh)      1.101882158780    -0.395206200475     1.181666354261
           C(Gh)      1.198904405780    -0.294758713475    -0.758021082739
           H(Gh)      0.768087310780     0.356334977525    -1.511135114739
           H(Gh)      2.284868092780    -0.243965852475    -0.832333010739
           H(Gh)      0.870561787780    -1.314628210475    -0.957101716739

  Running in c1 symmetry.

  Nuclear repulsion =    9.149968299767005

  Charge       = 0
  Multiplicity = 1
  Electrons    = 10
  Nalpha       = 5
  Nbeta        = 5

  ==> Algorithm <==

  SCF Algorithm Type is DF.
  DIIS enabled.
  MOM disabled.
  Fractional occupation disabled.
  Guess Type is CORE.
  Energy threshold   = 1.00e-08
  Density threshold  = 1.00e-08
  Integral threshold = 0.00e+00

  ==> Primary Basis <==

  Basis Set: AUG-CC-PVTZ
    Number of shells: 96
    Number of basis function: 276
    Number of Cartesian functions: 315
    Spherical Harmonics?: true
    Max angular momentum: 3

  ==> Pre-Iterations <==

   -------------------------------------------------------
    Irrep   Nso     Nmo     Nalpha   Nbeta   Ndocc  Nsocc
   -------------------------------------------------------
     A        276     276       0       0       0       0
   -------------------------------------------------------
    Total     276     276       5       5       5       0
   -------------------------------------------------------

 OEINTS: Wrapper to libmints.
   by Justin Turney

   Calculation information:
      Number of atoms:                   9
      Number of AO shells:              96
      Number of SO shells:              96
      Number of primitives:            156
      Number of atomic orbitals:       315
      Number of basis functions:       276

      Number of irreps:                  1
      Number of functions per irrep: [ 276 ]

      Overlap, kinetic, potential, dipole, and quadrupole integrals
        stored in file 35.

  ==> Integral Setup <==

  ==> DFJK: Density-Fitted J/K Matrices <==

    J tasked:                  Yes
    K tasked:                  Yes
    wK tasked:                  No
    OpenMP threads:              4
    Integrals threads:           4
    Memory (MB):              5006
    Algorithm:                Core
    Integral Cache:           LOAD
    Schwarz Cutoff:          0E+00
    Fitting Condition:       1E-12

   => Auxiliary Basis Set <=

  Basis Set: aug-cc-pvtz-jkfit
    Number of shells: 174
    Number of basis function: 588
    Number of Cartesian functions: 723
    Spherical Harmonics?: true
    Max angular momentum: 4

  Minimum eigenvalue in the overlap matrix is 4.6193412507E-05.
  Using Symmetric Orthogonalization.
  SCF Guess: Core (One-Electron) Hamiltonian.

  Guess energy:   -60.19558739312853

  ==> Iterations <==

                        Total Energy        Delta E     RMS |[F,P]|

   @RHF iter   1:   -61.28991119826279   -6.12899e+01   2.93446e-02 
   @RHF iter   2:   -61.95215037974129   -6.62239e-01   1.03563e-02 DIIS
   @RHF iter   3:   -72.58141180730320   -1.06293e+01   1.25143e-02 DIIS
   @RHF iter   4:   -75.13902509584288   -2.55761e+00   5.81280e-03 DIIS
   @RHF iter   5:   -76.03487857663828   -8.95853e-01   7.42530e-04 DIIS
   @RHF iter   6:   -76.05951478150568   -2.46362e-02   1.76842e-04 DIIS
   @RHF iter   7:   -76.06023663937921   -7.21858e-04   2.66368e-05 DIIS
   @RHF iter   8:   -76.06025583803289   -1.91987e-05   4.25416e-06 DIIS
   @RHF iter   9:   -76.06025643643113   -5.98398e-07   6.30875e-07 DIIS
   @RHF iter  10:   -76.06025645598591   -1.95548e-08   7.32570e-08 DIIS
   @RHF iter  11:   -76.06025645631750   -3.31596e-10   2.92037e-08 DIIS
   @RHF iter  12:   -76.06025645634848   -3.09797e-11   2.23155e-09 DIIS

  ==> Post-Iterations <==

	Orbital Energies (a.u.)
	-----------------------

	Doubly Occupied:                                                      

	   1A    -20.568314     2A     -1.351585     3A     -0.713664  
	   4A     -0.585424     5A     -0.510153  

	Virtual:                                                              

	   6A      0.019665     7A      0.036897     8A      0.043313  
	   9A      0.050101    10A      0.060219    11A      0.082364  
	  12A      0.095621    13A      0.104380    14A      0.119245  
	  15A      0.130643    16A      0.135692    17A      0.153374  
	  18A      0.158710    19A      0.178835    20A      0.196036  
	  21A      0.201653    22A      0.218085    23A      0.235367  
	  24A      0.250722    25A      0.264579    26A      0.283002  
	  27A      0.291298    28A      0.295515    29A      0.298068  
	  30A      0.312318    31A      0.318580    32A      0.322286  
	  33A      0.333573    34A      0.339446    35A      0.356643  
	  36A      0.375301    37A      0.394176    38A      0.399771  
	  39A      0.410600    40A      0.424030    41A      0.438027  
	  42A      0.441728    43A      0.449095    44A      0.469940  
	  45A      0.477878    46A      0.483383    47A      0.489081  
	  48A      0.519118    49A      0.531061    50A      0.543842  
	  51A      0.573688    52A      0.583799    53A      0.616627  
	  54A      0.632968    55A      0.650884    56A      0.676090  
	  57A      0.697362    58A      0.710781    59A      0.736913  
	  60A      0.777641    61A      0.789468    62A      0.797609  
	  63A      0.836498    64A      0.839714    65A      0.857461  
	  66A      0.866934    67A      0.883074    68A      0.903032  
	  69A      0.931907    70A      0.939397    71A      0.945545  
	  72A      0.954511    73A      0.970733    74A      0.988654  
	  75A      0.999453    76A      1.009868    77A      1.017692  
	  78A      1.026783    79A      1.030218    80A      1.044055  
	  81A      1.059230    82A      1.062149    83A      1.076652  
	  84A      1.085014    85A      1.107812    86A      1.129300  
	  87A      1.130241    88A      1.156874    89A      1.165285  
	  90A      1.178410    91A      1.181176    92A      1.209321  
	  93A      1.225141    94A      1.231417    95A      1.241443  
	  96A      1.255952    97A      1.286330    98A      1.299540  
	  99A      1.312760   100A      1.319548   101A      1.330724  
	 102A      1.351131   103A      1.380662   104A      1.401734  
	 105A      1.424222   106A      1.463631   107A      1.467767  
	 108A      1.488455   109A      1.520223   110A      1.550316  
	 111A      1.591047   112A      1.609364   113A      1.637108  
	 114A      1.674959   115A      1.691957   116A      1.742698  
	 117A      1.752535   118A      1.767026   119A      1.769598  
	 120A      1.799549   121A      1.864510   122A      1.868192  
	 123A      1.885128   124A      1.894124   125A      1.913038  
	 126A      1.954523   127A      1.981256   128A      2.007152  
	 129A      2.034103   130A      2.061828   131A      2.109693  
	 132A      2.134136   133A      2.175412   134A      2.211822  
	 135A      2.248148   136A      2.270353   137A      2.322726  
	 138A      2.349255   139A      2.402031   140A      2.415307  
	 141A      2.433757   142A      2.449604   143A      2.471817  
	 144A      2.485004   145A      2.525233   146A      2.577431  
	 147A      2.591472   148A      2.604388   149A      2.668989  
	 150A      2.688242   151A      2.708342   152A      2.723909  
	 153A      2.777699   154A      2.856002   155A      2.866897  
	 156A      2.897594   157A      2.958463   158A      2.968081  
	 159A      2.997962   160A      3.030924   161A      3.053032  
	 162A      3.127236   163A      3.151947   164A      3.239116  
	 165A      3.290107   166A      3.343112   167A      3.425508  
	 168A      3.502536   169A      3.506200   170A      3.658940  
	 171A      3.737759   172A      3.828329   173A      3.917480  
	 174A      4.018775   175A      4.063366   176A      4.112215  
	 177A      4.139087   178A      4.151616   179A      4.178753  
	 180A      4.206654   181A      4.259896   182A      4.289194  
	 183A      4.306975   184A      4.348673   185A      4.395560  
	 186A      4.417794   187A      4.425568   188A      4.461549  
	 189A      4.478049   190A      4.498796   191A      4.518751  
	 192A      4.534652   193A      4.555913   194A      4.599812  
	 195A      4.631198   196A      4.669793   197A      4.734725  
	 198A      4.753339   199A      4.776445   200A      4.835894  
	 201A      4.886331   202A      4.936599   203A      4.944536  
	 204A      4.988456   205A      5.020104   206A      5.089335  
	 207A      5.098728   208A      5.126602   209A      5.161838  
	 210A      5.224797   211A      5.260857   212A      5.309183  
	 213A      5.344226   214A      5.349345   215A      5.384742  
	 216A      5.411190   217A      5.463643   218A      5.492199  
	 219A      5.510609   220A      5.577317   221A      5.601486  
	 222A      5.669272   223A      5.707296   224A      5.786229  
	 225A      5.824713   226A      5.868988   227A      5.968857  
	 228A      6.143166   229A      6.214548   230A      6.255579  
	 231A      6.309216   232A      6.342169   233A      6.452598  
	 234A      6.552218   235A      6.573800   236A      6.757390  
	 237A      6.783882   238A      6.831122   239A      7.026941  
	 240A      7.098458   241A      7.202321   242A      7.280757  
	 243A      7.319475   244A      7.388772   245A      7.466945  
	 246A      7.485599   247A      7.564528   248A      7.746535  
	 249A      7.764756   250A      7.782373   251A      7.871037  
	 252A      7.944508   253A      7.951333   254A      8.035575  
	 255A      8.103151   256A      8.167548   257A      8.189420  
	 258A      8.213069   259A      8.279225   260A      8.455810  
	 261A      8.571631   262A      8.786419   263A      9.029530  
	 264A      9.913856   265A     10.199880   266A     10.368409  
	 267A     10.474219   268A     10.902001   269A     10.980678  
	 270A     11.971891   271A     12.511283   272A     13.187647  
	 273A     13.994339   274A     17.171196   275A     53.005185  
	 276A     66.868625  

	Final Occupation by Irrep:
	          A 
	DOCC [     5 ]

  Energy converged.

  @RHF Final Energy:   -76.06025645634848

   => Energetics <=

    Nuclear Repulsion Energy =              9.1499682997670053
    One-Electron Energy =                -122.9621650855993522
    Two-Electron Energy =                  37.7519403294840430
    DFT Exchange-Correlation Energy =       0.0000000000000000
    Empirical Dispersion Energy =           0.0000000000000000
    Total Energy =                        -76.0602564563482986



Properties will be evaluated at   0.000000,   0.000000,   0.000000 Bohr
  ==> Properties <==


Properties computed using the SCF density density matrix
  Nuclear Dipole Moment: (a.u.)
     X:   -32.2994      Y:     3.1892      Z:     3.7957

  Electronic Dipole Moment: (a.u.)
     X:    32.6377      Y:    -2.5864      Z:    -3.4201

  Dipole Moment: (a.u.)
     X:     0.3383      Y:     0.6028      Z:     0.3756     Total:     0.7867

  Dipole Moment: (Debye)
     X:     0.8598      Y:     1.5322      Z:     0.9547     Total:     1.9996


  Saving occupied orbitals to File 180.

  Saving SAPT 2-MONOMER_A file.

*** tstop() called on node57.bme.utexas.edu at Thu Feb 13 13:30:53 2014
Module time:
	user time   =      37.10 seconds =       0.62 minutes
	system time =       0.49 seconds =       0.01 minutes
	total time  =         10 seconds =       0.17 minutes
Total time:
	user time   =      95.24 seconds =       1.59 minutes
	system time =       1.38 seconds =       0.02 minutes
	total time  =         26 seconds =       0.43 minutes

  //>>>>>>>>>>>>>>>>>>>>>>>>>>>>>>>>>>>//
  //            Monomer B HF           //
  //<<<<<<<<<<<<<<<<<<<<<<<<<<<<<<<<<<<//


  No DF_BASIS_SCF auxiliary basis selected, defaulting to aug-cc-pvtz-jkfit


*** tstart() called on node57.bme.utexas.edu
*** at Thu Feb 13 13:30:53 2014


         ---------------------------------------------------------
                                   SCF
            by Justin Turney, Rob Parrish, and Andy Simmonett
                              RHF Reference
                        4 Threads,   7000 MiB Core
         ---------------------------------------------------------

  ==> Geometry <==

    Molecular point group: c1
    Full point group: C1

    Geometry (in Angstrom), charge = 0, multiplicity = 1:

       Center              X                  Y                   Z       
    ------------   -----------------  -----------------  -----------------
           O(Gh)     -1.760444079220     0.077803369525     0.144189788261
           H(Gh)     -2.177120918220     0.876676084525     0.469959465261
           H(Gh)     -0.831417760220     0.188560434525     0.385138281261
           O          0.733899334780     0.176871202525     0.504138027261
           H          1.101882158780    -0.395206200475     1.181666354261
           C          1.198904405780    -0.294758713475    -0.758021082739
           H          0.768087310780     0.356334977525    -1.511135114739
           H          2.284868092780    -0.243965852475    -0.832333010739
           H          0.870561787780    -1.314628210475    -0.957101716739

  Running in c1 symmetry.

  Nuclear repulsion =   40.294631916025537

  Charge       = 0
  Multiplicity = 1
  Electrons    = 18
  Nalpha       = 9
  Nbeta        = 9

  ==> Algorithm <==

  SCF Algorithm Type is DF.
  DIIS enabled.
  MOM disabled.
  Fractional occupation disabled.
  Guess Type is CORE.
  Energy threshold   = 1.00e-08
  Density threshold  = 1.00e-08
  Integral threshold = 0.00e+00

  ==> Primary Basis <==

  Basis Set: AUG-CC-PVTZ
    Number of shells: 96
    Number of basis function: 276
    Number of Cartesian functions: 315
    Spherical Harmonics?: true
    Max angular momentum: 3

  ==> Pre-Iterations <==

   -------------------------------------------------------
    Irrep   Nso     Nmo     Nalpha   Nbeta   Ndocc  Nsocc
   -------------------------------------------------------
     A        276     276       0       0       0       0
   -------------------------------------------------------
    Total     276     276       9       9       9       0
   -------------------------------------------------------

 OEINTS: Wrapper to libmints.
   by Justin Turney

   Calculation information:
      Number of atoms:                   9
      Number of AO shells:              96
      Number of SO shells:              96
      Number of primitives:            156
      Number of atomic orbitals:       315
      Number of basis functions:       276

      Number of irreps:                  1
      Number of functions per irrep: [ 276 ]

      Overlap, kinetic, potential, dipole, and quadrupole integrals
        stored in file 35.

  ==> Integral Setup <==

  ==> DFJK: Density-Fitted J/K Matrices <==

    J tasked:                  Yes
    K tasked:                  Yes
    wK tasked:                  No
    OpenMP threads:              4
    Integrals threads:           4
    Memory (MB):              5006
    Algorithm:                Core
    Integral Cache:           LOAD
    Schwarz Cutoff:          0E+00
    Fitting Condition:       1E-12

   => Auxiliary Basis Set <=

  Basis Set: aug-cc-pvtz-jkfit
    Number of shells: 174
    Number of basis function: 588
    Number of Cartesian functions: 723
    Spherical Harmonics?: true
    Max angular momentum: 4

  Minimum eigenvalue in the overlap matrix is 4.6193412507E-05.
  Using Symmetric Orthogonalization.
  SCF Guess: Core (One-Electron) Hamiltonian.

  Guess energy:   -92.13501980815195

  ==> Iterations <==

                        Total Energy        Delta E     RMS |[F,P]|

   @RHF iter   1:   -89.51675621614703   -8.95168e+01   3.41331e-02 
   @RHF iter   2:   -89.24212837464421    2.74628e-01   1.17526e-02 DIIS
   @RHF iter   3:  -105.15411682746520   -1.59120e+01   1.84342e-02 DIIS
   @RHF iter   4:  -110.14090738450892   -4.98679e+00   1.28063e-02 DIIS
   @RHF iter   5:  -113.13266440601637   -2.99176e+00   7.81364e-03 DIIS
   @RHF iter   6:  -114.91133661112815   -1.77867e+00   2.06801e-03 DIIS
   @RHF iter   7:  -115.07328225079010   -1.61946e-01   7.28863e-04 DIIS
   @RHF iter   8:  -115.09151354956404   -1.82313e-02   1.46073e-04 DIIS
   @RHF iter   9:  -115.09210963300362   -5.96083e-04   2.18570e-05 DIIS
   @RHF iter  10:  -115.09214368473772   -3.40517e-05   4.07269e-06 DIIS
   @RHF iter  11:  -115.09214529429428   -1.60956e-06   8.75758e-07 DIIS
   @RHF iter  12:  -115.09214536876874   -7.44745e-08   1.80272e-07 DIIS
   @RHF iter  13:  -115.09214537216150   -3.39276e-09   3.82200e-08 DIIS
   @RHF iter  14:  -115.09214537228956   -1.28068e-10   1.00110e-08 DIIS
   @RHF iter  15:  -115.09214537229613   -6.56541e-12   1.54155e-09 DIIS

  ==> Post-Iterations <==

	Orbital Energies (a.u.)
	-----------------------

	Doubly Occupied:                                                      

	   1A    -20.558915     2A    -11.270649     3A     -1.356156  
	   4A     -0.926744     5A     -0.690178     6A     -0.621045  
	   7A     -0.592158     8A     -0.505403     9A     -0.452631  

	Virtual:                                                              

	  10A      0.027346    11A      0.041440    12A      0.042504  
	  13A      0.047464    14A      0.063818    15A      0.083835  
	  16A      0.099104    17A      0.120633    18A      0.126900  
	  19A      0.140070    20A      0.145205    21A      0.159878  
	  22A      0.164165    23A      0.171160    24A      0.186782  
	  25A      0.206815    26A      0.220815    27A      0.231768  
	  28A      0.257782    29A      0.272891    30A      0.284938  
	  31A      0.290925    32A      0.306679    33A      0.309747  
	  34A      0.325421    35A      0.329391    36A      0.337791  
	  37A      0.348347    38A      0.368631    39A      0.369575  
	  40A      0.386674    41A      0.397039    42A      0.401244  
	  43A      0.408546    44A      0.426180    45A      0.437891  
	  46A      0.442302    47A      0.447535    48A      0.450721  
	  49A      0.466467    50A      0.469633    51A      0.497613  
	  52A      0.504917    53A      0.516753    54A      0.521506  
	  55A      0.544322    56A      0.567840    57A      0.622297  
	  58A      0.670476    59A      0.677100    60A      0.704839  
	  61A      0.742757    62A      0.751831    63A      0.769305  
	  64A      0.775041    65A      0.793676    66A      0.796306  
	  67A      0.813226    68A      0.827606    69A      0.839399  
	  70A      0.851921    71A      0.876217    72A      0.886804  
	  73A      0.892545    74A      0.903135    75A      0.914863  
	  76A      0.932908    77A      0.939059    78A      0.949488  
	  79A      0.953406    80A      0.974683    81A      0.993172  
	  82A      1.008016    83A      1.017200    84A      1.029047  
	  85A      1.034225    86A      1.044404    87A      1.049480  
	  88A      1.068213    89A      1.085282    90A      1.107519  
	  91A      1.125771    92A      1.125955    93A      1.137900  
	  94A      1.142766    95A      1.157520    96A      1.181396  
	  97A      1.204890    98A      1.215515    99A      1.242823  
[...]
                                   SCF
               by Justin Turney, Rob Parrish, Andy Simmonett
                          and Daniel G. A. Smith
                              RHF Reference
                        8 Threads,  47683 MiB Core
         ---------------------------------------------------------

  ==> Geometry <==

    Molecular point group: c1
    Full point group: C1

    Geometry (in Angstrom), charge = 0, multiplicity = 1:

       Center              X                  Y                   Z               Mass       
    ------------   -----------------  -----------------  -----------------  -----------------
      Gh(O)          -3.138104556950     0.088093653418     0.039454375994    15.994914619570
      Gh(H)          -3.554784556950     0.886963653418     0.365224375994     1.007825032230
      Gh(H)          -2.209074556950     0.198853653418     0.280404375994     1.007825032230
         O            1.508655443050     0.171083653418     0.563034375994    15.994914619570
         H            1.876635443050    -0.400986346582     1.240564375994     1.007825032230
         C            1.973655443050    -0.300546346582    -0.699115624006    12.000000000000
         H            1.542845443050     0.350553653418    -1.452235624006     1.007825032230
         H            3.059625443050    -0.249746346582    -0.773435624006     1.007825032230
         H            1.645315443050    -1.320416346582    -0.898205624006     1.007825032230

  Running in c1 symmetry.

  Rotational constants: A =      0.85634  B =      0.06018  C =      0.05718 [cm^-1]
  Rotational constants: A =  25672.34103  B =   1804.25928  C =   1714.15153 [MHz]
  Nuclear repulsion =   40.294743929526952

  Charge       = 0
  Multiplicity = 1
  Electrons    = 18
  Nalpha       = 9
  Nbeta        = 9

  ==> Algorithm <==

  SCF Algorithm Type is DF.
  DIIS enabled.
  MOM disabled.
  Fractional occupation disabled.
  Guess Type is SAD.
  Energy threshold   = 1.00e-08
  Density threshold  = 1.00e-08
  Integral threshold = 0.00e+00

  ==> Primary Basis <==

  Basis Set: AUG-CC-PVTZ
    Blend: AUG-CC-PVTZ
    Number of shells: 96
    Number of basis function: 276
    Number of Cartesian functions: 315
    Spherical Harmonics?: true
    Max angular momentum: 3

   => Loading Basis Set <=

    Name: (AUG-CC-PVTZ AUX)
    Role: JKFIT
    Keyword: DF_BASIS_SCF
    atoms 1, 4        entry O          line   286 file /home/liuchw/anaconda3/envs/psi4env/share/psi4/basis/aug-cc-pvtz-jkfit.gbs 
    atoms 2-3, 5, 7-9 entry H          line    70 file /home/liuchw/anaconda3/envs/psi4env/share/psi4/basis/aug-cc-pvtz-jkfit.gbs 
    atoms 6           entry C          line   162 file /home/liuchw/anaconda3/envs/psi4env/share/psi4/basis/aug-cc-pvtz-jkfit.gbs 

  ==> Pre-Iterations <==

   -------------------------------------------------------
    Irrep   Nso     Nmo     Nalpha   Nbeta   Ndocc  Nsocc
   -------------------------------------------------------
     A        276     276       0       0       0       0
   -------------------------------------------------------
    Total     276     276       9       9       9       0
   -------------------------------------------------------

  ==> Integral Setup <==

  ==> DiskDFJK: Density-Fitted J/K Matrices <==

    J tasked:                  Yes
    K tasked:                  Yes
    wK tasked:                  No
    OpenMP threads:              8
    Integrals threads:           8
    Memory [MiB]:            35762
    Algorithm:                Core
    Integral Cache:           LOAD
    Schwarz Cutoff:          1E-12
    Fitting Condition:       1E-10

   => Auxiliary Basis Set <=

  Basis Set: (AUG-CC-PVTZ AUX)
    Blend: AUG-CC-PVTZ-JKFIT
    Number of shells: 174
    Number of basis function: 588
    Number of Cartesian functions: 723
    Spherical Harmonics?: true
    Max angular momentum: 4

  Minimum eigenvalue in the overlap matrix is 5.8102533881E-05.
  Using Symmetric Orthogonalization.

  SCF Guess: Superposition of Atomic Densities via on-the-fly atomic UHF.

  ==> Iterations <==

                           Total Energy        Delta E     RMS |[F,P]|

   @DF-RHF iter SAD:  -114.37608987213392   -1.14376e+02   0.00000e+00 
   @DF-RHF iter   1:  -115.00635807608383   -6.30268e-01   1.53246e-03 DIIS
   @DF-RHF iter   2:  -115.07010298605945   -6.37449e-02   9.05476e-04 DIIS
   @DF-RHF iter   3:  -115.09094683267998   -2.08438e-02   1.34596e-04 DIIS
   @DF-RHF iter   4:  -115.09191666003282   -9.69827e-04   4.23941e-05 DIIS
   @DF-RHF iter   5:  -115.09201121366392   -9.45536e-05   9.52095e-06 DIIS
   @DF-RHF iter   6:  -115.09201728130148   -6.06764e-06   2.18218e-06 DIIS
   @DF-RHF iter   7:  -115.09201778008720   -4.98786e-07   5.11672e-07 DIIS
   @DF-RHF iter   8:  -115.09201780980931   -2.97221e-08   1.08652e-07 DIIS
   @DF-RHF iter   9:  -115.09201781105517   -1.24587e-09   2.04150e-08 DIIS
   @DF-RHF iter  10:  -115.09201781109573   -4.05578e-11   4.86574e-09 DIIS
  Energy and wave function converged.


  ==> Post-Iterations <==

    Orbital Energies [Eh]
    ---------------------

    Doubly Occupied:                                                      

       1A    -20.559050     2A    -11.270658     3A     -1.356225  
       4A     -0.926777     5A     -0.690232     6A     -0.621055  
       7A     -0.592204     8A     -0.505438     9A     -0.452634  

    Virtual:                                                              

      10A      0.026916    11A      0.036836    12A      0.042859  
      13A      0.046771    14A      0.058336    15A      0.075421  
      16A      0.100763    17A      0.118727    18A      0.125610  
      19A      0.129801    20A      0.141018    21A      0.149311  
      22A      0.152507    23A      0.171878    24A      0.177219  
      25A      0.188531    26A      0.197418    27A      0.208297  
      28A      0.244296    29A      0.264812    30A      0.271578  
      31A      0.280904    32A      0.289493    33A      0.298992  
      34A      0.304417    35A      0.313089    36A      0.318909  
      37A      0.327512    38A      0.332916    39A      0.340110  
      40A      0.352814    41A      0.370520    42A      0.375299  
      43A      0.387060    44A      0.396411    45A      0.411144  
      46A      0.415461    47A      0.429397    48A      0.437247  
      49A      0.450929    50A      0.455205    51A      0.464857  
      52A      0.482118    53A      0.491613    54A      0.507142  
      55A      0.514375    56A      0.529010    57A      0.562303  
      58A      0.637758    59A      0.659647    60A      0.664898  
      61A      0.684159    62A      0.702928    63A      0.760994  
      64A      0.771280    65A      0.781360    66A      0.791959  
      67A      0.792556    68A      0.797800    69A      0.813384  
      70A      0.821839    71A      0.841951    72A      0.850753  
      73A      0.856314    74A      0.863258    75A      0.886081  
      76A      0.890890    77A      0.910762    78A      0.914460  
      79A      0.927071    80A      0.943353    81A      0.946966  
      82A      0.952925    83A      0.967745    84A      0.970155  
      85A      0.975743    86A      0.993064    87A      1.001916  
      88A      1.003405    89A      1.021318    90A      1.024827  
      91A      1.048277    92A      1.054315    93A      1.068307  
      94A      1.077633    95A      1.090721    96A      1.102316  
      97A      1.115219    98A      1.129598    99A      1.143147  
     100A      1.148712   101A      1.169033   102A      1.171549  
     103A      1.199846   104A      1.204558   105A      1.226647  
     106A      1.235233   107A      1.255664   108A      1.292368  
     109A      1.306989   110A      1.338756   111A      1.379788  
     112A      1.412885   113A      1.452812   114A      1.469814  
     115A      1.493006   116A      1.541977   117A      1.565908  
     118A      1.570193   119A      1.596064   120A      1.615176  
     121A      1.624910   122A      1.658043   123A      1.664624  
     124A      1.676087   125A      1.707213   126A      1.712630  
     127A      1.722020   128A      1.737352   129A      1.754713  
     130A      1.784498   131A      1.834595   132A      1.867233  
     133A      1.907852   134A      1.947956   135A      1.959229  
     136A      1.990894   137A      2.037044   138A      2.047671  
     139A      2.077375   140A      2.089766   141A      2.104823  
     142A      2.175936   143A      2.196360   144A      2.375778  
     145A      2.403529   146A      2.417437   147A      2.479520  
     148A      2.493847   149A      2.505780   150A      2.538369  
     151A      2.540007   152A      2.547877   153A      2.553212  
     154A      2.573642   155A      2.586085   156A      2.602295  
     157A      2.643529   158A      2.742626   159A      2.766079  
     160A      2.788319   161A      2.849235   162A      2.896280  
     163A      2.908097   164A      2.971411   165A      2.989233  
     166A      3.053884   167A      3.164252   168A      3.168390  
     169A      3.184967   170A      3.198222   171A      3.318797  
     172A      3.322476   173A      3.345570   174A      3.395055  
     175A      3.531073   176A      3.543214   177A      3.560784  
     178A      3.589056   179A      3.627057   180A      3.656361  
     181A      3.699489   182A      3.706305   183A      3.794248  
     184A      3.865170   185A      3.893810   186A      3.942112  
     187A      3.942461   188A      4.005210   189A      4.065196  
     190A      4.083925   191A      4.108964   192A      4.174831  
     193A      4.207858   194A      4.231419   195A      4.246253  
     196A      4.283451   197A      4.368829   198A      4.436061  
     199A      4.472492   200A      4.478932   201A      4.504881  
     202A      4.525939   203A      4.556830   204A      4.604979  
     205A      4.613968   206A      4.652771   207A      4.668409  
     208A      4.676973   209A      4.764930   210A      4.769690  
     211A      4.773162   212A      4.872416   213A      4.880122  
     214A      4.892782   215A      4.911077   216A      4.983581  
     217A      5.026401   218A      5.042232   219A      5.065343  
     220A      5.143214   221A      5.210296   222A      5.255555  
     223A      5.258149   224A      5.394530   225A      5.478914  
     226A      5.535327   227A      5.555205   228A      5.596037  
     229A      5.601608   230A      5.614858   231A      5.652761  
     232A      5.659240   233A      5.722333   234A      5.857330  
     235A      6.111866   236A      6.116944   237A      6.120425  
     238A      6.147107   239A      6.173989   240A      6.395179  
     241A      6.559033   242A      6.618136   243A      6.627155  
     244A      6.660643   245A      6.889239   246A      6.900641  
     247A      7.055666   248A      7.073879   249A      7.264119  
     250A      7.323871   251A      7.377629   252A      7.479130  
     253A      7.534251   254A      7.674890   255A      7.743713  
     256A      7.823277   257A      7.853208   258A      8.046832  
     259A      8.142131   260A      8.156725   261A      8.291031  
     262A      8.514390   263A      8.736848   264A      8.834605  
     265A      9.630706   266A      9.836183   267A      9.999660  
     268A     10.229601   269A     11.232411   270A     11.621314  
     271A     12.081863   272A     13.513299   273A     13.815949  
     274A     15.566509   275A     17.785438   276A     64.489831  

    Final Occupation by Irrep:
              A 
    DOCC [     9 ]

  @DF-RHF Final Energy:  -115.09201781109573

   => Energetics <=

    Nuclear Repulsion Energy =             40.2947439295269518
    One-Electron Energy =                -236.8249770671675094
    Two-Electron Energy =                  81.4382153265448210
    Total Energy =                       -115.0920178110957295

Computation Completed


Properties will be evaluated at   0.000000,   0.000000,   0.000000 [a0]

Properties computed using the SCF density matrix

  Nuclear Dipole Moment: [e a0]
     X:    60.5385      Y:    -3.8838      Z:    -2.9739

  Electronic Dipole Moment: [e a0]
     X:   -60.1085      Y:     3.3235      Z:     2.8465

  Dipole Moment: [e a0]
     X:     0.4300      Y:    -0.5603      Z:    -0.1274     Total:     0.7177

  Dipole Moment: [D]
     X:     1.0930      Y:    -1.4241      Z:    -0.3238     Total:     1.8241


*** tstop() called on node73.bme.utexas.edu at Thu Apr 23 16:35:39 2020
Module time:
	user time   =      17.20 seconds =       0.29 minutes
	system time =       0.92 seconds =       0.02 minutes
	total time  =          3 seconds =       0.05 minutes
Total time:
	user time   =      62.02 seconds =       1.03 minutes
	system time =       3.06 seconds =       0.05 minutes
	total time  =         11 seconds =       0.18 minutes
  Constructing Basis Sets for SAPT...

   => Loading Basis Set <=

    Name: (AUG-CC-PVTZ AUX)
    Role: RIFIT
    Keyword: DF_BASIS_SAPT
    atoms 1, 4        entry O          line   264 file /home/liuchw/anaconda3/envs/psi4env/share/psi4/basis/aug-cc-pvtz-ri.gbs 
    atoms 2-3, 5, 7-9 entry H          line    30 file /home/liuchw/anaconda3/envs/psi4env/share/psi4/basis/aug-cc-pvtz-ri.gbs 
    atoms 6           entry C          line   148 file /home/liuchw/anaconda3/envs/psi4env/share/psi4/basis/aug-cc-pvtz-ri.gbs 


  //>>>>>>>>>>>>>>>>>>>>>>>>>>>>>>>>>>>//
  //               SAPT2+              //
  //<<<<<<<<<<<<<<<<<<<<<<<<<<<<<<<<<<<//


*** tstart() called on node73.bme.utexas.edu
*** at Thu Apr 23 16:35:39 2020

        SAPT2+  
    Ed Hohenstein
     6 June 2009

      Orbital Information
  --------------------------
    NSO        =       276
    NMO        =       276
    NRI        =       594
    NOCC A     =         5
    NOCC B     =         9
    FOCC A     =         1
    FOCC B     =         2
    NVIR A     =       271
    NVIR B     =       267

    Estimated memory usage: 491.8 MB

    Natural Orbital Cutoff:   1.000E-06
    Disp(T3) Truncation:            Yes
    CCD (vv|vv) Truncation:         Yes
    MBPT T2 Truncation:             Yes

    Monomer A: 194 virtual orbitals dropped
    Monomer B: 115 virtual orbitals dropped

    Elst10,r            =    -0.001683231078 [Eh]
    Exch10 (S^2)        =     0.000015341523 [Eh]
    Exch10              =     0.000015341809 [Eh]
    Ind20,r (A<-B)      =    -0.000023111472 [Eh]
    Ind20,r (B<-A)      =    -0.000036915942 [Eh]
    Ind20,r             =    -0.000060027413 [Eh]
    Exch-Ind20,r (A<-B) =     0.000000402591 [Eh]
    Exch-Ind20,r (B<-A) =     0.000001851095 [Eh]
    Exch-Ind20,r        =     0.000002253686 [Eh]
    Disp20              =    -0.000197018039 [Eh]
    Disp20 (NO)         =    -0.000185936797 [Eh]
    Exch-Disp20         =     0.000001890128 [Eh]
    Elst12,r            =     0.000127471887 [Eh]
    Exch11              =    -0.000000022215 [Eh]
    Exch12              =     0.000007266658 [Eh]
    Ind22               =    -0.000002469668 [Eh]
    Disp21              =     0.000010136549 [Eh]
    Disp22 (SDQ)        =    -0.000001773745 [Eh]

    (i =   1 of   7)          1 seconds
    (i =   2 of   7)          1 seconds
    (i =   3 of   7)          2 seconds
    (i =   4 of   7)          2 seconds
    (i =   5 of   7)          3 seconds
    (i =   6 of   7)          3 seconds
    (i =   7 of   7)          4 seconds

    Disp220 (T)         =    -0.000018269939 [Eh]

    (i =   1 of   4)          2 seconds
    (i =   2 of   4)          4 seconds
    (i =   3 of   4)          5 seconds
    (i =   4 of   4)          7 seconds

    Disp202 (T)         =    -0.000016473648 [Eh]

    Disp22 (T)          =    -0.000034743587 [Eh]

    Est. Disp220 (T)    =    -0.000019358770 [Eh]
    Est. Disp202 (T)    =    -0.000017455425 [Eh]

    Est. Disp22 (T)     =    -0.000036814195 [Eh]

    SAPT Results 
  --------------------------------------------------------------------------------------------------------
    Electrostatics                 -1.55575919 [mEh]      -0.97625363 [kcal/mol]      -4.08464519 [kJ/mol]
      Elst10,r                     -1.68323108 [mEh]      -1.05624345 [kcal/mol]      -4.41932259 [kJ/mol]
      Elst12,r                      0.12747189 [mEh]       0.07998982 [kcal/mol]       0.33467739 [kJ/mol]

    Exchange                        0.02258625 [mEh]       0.01417309 [kcal/mol]       0.05930020 [kJ/mol]
      Exch10                        0.01534181 [mEh]       0.00962713 [kcal/mol]       0.04027991 [kJ/mol]
      Exch10(S^2)                   0.01534152 [mEh]       0.00962695 [kcal/mol]       0.04027916 [kJ/mol]
      Exch11(S^2)                  -0.00002222 [mEh]      -0.00001394 [kcal/mol]      -0.00005833 [kJ/mol]
      Exch12(S^2)                   0.00726666 [mEh]       0.00455990 [kcal/mol]       0.01907861 [kJ/mol]

    Induction                      -0.06345170 [mEh]      -0.03981654 [kcal/mol]      -0.16659241 [kJ/mol]
      Ind20,r                      -0.06002741 [mEh]      -0.03766777 [kcal/mol]      -0.15760195 [kJ/mol]
      Ind22                        -0.00246967 [mEh]      -0.00154974 [kcal/mol]      -0.00648411 [kJ/mol]
      Exch-Ind20,r                  0.00225369 [mEh]       0.00141421 [kcal/mol]       0.00591705 [kJ/mol]
      Exch-Ind22                    0.00009272 [mEh]       0.00005818 [kcal/mol]       0.00024344 [kJ/mol]
      delta HF,r (2)               -0.00330102 [mEh]      -0.00207142 [kcal/mol]      -0.00866684 [kJ/mol]

    Dispersion                     -0.22357930 [mEh]      -0.14029813 [kcal/mol]      -0.58700737 [kJ/mol]
      Disp20                       -0.19701804 [mEh]      -0.12363069 [kcal/mol]      -0.51727079 [kJ/mol]
      Disp21                        0.01013655 [mEh]       0.00636078 [kcal/mol]       0.02661351 [kJ/mol]
      Disp22 (SDQ)                 -0.00177374 [mEh]      -0.00111304 [kcal/mol]      -0.00465697 [kJ/mol]
      Disp22 (T)                   -0.03474359 [mEh]      -0.02180193 [kcal/mol]      -0.09121928 [kJ/mol]
      Est. Disp22 (T)              -0.03681419 [mEh]      -0.02310126 [kcal/mol]      -0.09665565 [kJ/mol]
      Exch-Disp20                   0.00189013 [mEh]       0.00118607 [kcal/mol]       0.00496253 [kJ/mol]

  Total HF                         -1.72896402 [mEh]      -1.08494130 [kcal/mol]      -4.53939441 [kJ/mol]
  Total SAPT0                      -1.92409193 [mEh]      -1.20738592 [kcal/mol]      -5.05170267 [kJ/mol]
  Total SAPT2                      -1.79175255 [mEh]      -1.12434170 [kcal/mol]      -4.70424566 [kJ/mol]
  Total SAPT2+                     -1.82020394 [mEh]      -1.14219521 [kcal/mol]      -4.77894478 [kJ/mol]

  Special recipe for scaled SAPT0 (see Manual):
    Electrostatics sSAPT0          -1.68323108 [mEh]      -1.05624345 [kcal/mol]      -4.41932259 [kJ/mol]
    Exchange sSAPT0                 0.01534181 [mEh]       0.00962713 [kcal/mol]       0.04027991 [kJ/mol]
    Induction sSAPT0               -0.06107463 [mEh]      -0.03832491 [kcal/mol]      -0.16035141 [kJ/mol]
    Dispersion sSAPT0              -0.19512780 [mEh]      -0.12244455 [kcal/mol]      -0.51230798 [kJ/mol]
  Total sSAPT0                     -1.92409170 [mEh]      -1.20738577 [kcal/mol]      -5.05170206 [kJ/mol]
  --------------------------------------------------------------------------------------------------------

*** tstop() called on node73.bme.utexas.edu at Thu Apr 23 16:36:20 2020
Module time:
	user time   =     297.97 seconds =       4.97 minutes
	system time =      16.78 seconds =       0.28 minutes
	total time  =         41 seconds =       0.68 minutes
Total time:
	user time   =     360.70 seconds =       6.01 minutes
	system time =      19.90 seconds =       0.33 minutes
	total time  =         52 seconds =       0.87 minutes

    Psi4 stopped on: Thursday, 23 April 2020 04:36PM
    Psi4 wall time for execution: 0:00:51.87

*** Psi4 exiting successfully. Buy a developer a beer!
