
    -----------------------------------------------------------------------
          Psi4: An Open-Source Ab Initio Electronic Structure Package
                               Psi4 1.4a2.dev224 

                         Git: Rev {master} e453b16 


    R. M. Parrish, L. A. Burns, D. G. A. Smith, A. C. Simmonett,
    A. E. DePrince III, E. G. Hohenstein, U. Bozkaya, A. Yu. Sokolov,
    R. Di Remigio, R. M. Richard, J. F. Gonthier, A. M. James,
    H. R. McAlexander, A. Kumar, M. Saitow, X. Wang, B. P. Pritchard,
    P. Verma, H. F. Schaefer III, K. Patkowski, R. A. King, E. F. Valeev,
    F. A. Evangelista, J. M. Turney, T. D. Crawford, and C. D. Sherrill,
    J. Chem. Theory Comput. 13(7) pp 3185--3197 (2017).
    (doi: 10.1021/acs.jctc.7b00174)


                         Additional Contributions by
    P. Kraus, H. Kruse, M. H. Lechner, M. C. Schieber, R. A. Shaw,
    A. Alenaizan, R. Galvelis, Z. L. Glick, S. Lehtola, and J. P. Misiewicz

    -----------------------------------------------------------------------


    Psi4 started on: Thursday, 23 April 2020 10:50PM

    Process ID: 122808
    Host:       node62.bme.utexas.edu
    PSIDATADIR: /home/liuchw/anaconda3/envs/psi4env/share/psi4
    Memory:     500.0 MiB
    Threads:    8
    
  ==> Input File <==

--------------------------------------------------------------------------
#Generated by lconvert.py for sapt job

memory 50 GB

molecule  {
0 1
  O      -0.636140   -0.023280    0.280600
  H       0.308100   -0.047080    0.076460
  C      -1.152060   -1.311290    0.015260
  H      -2.209940   -1.296270    0.263960
  H      -1.056610   -1.592670   -1.036190
  H      -0.674840   -2.086270    0.620510
--
0 1
  O       2.821290   -0.146220   -0.040540
  H       3.290080    0.468160   -0.610210
  C       3.330120    0.010800    1.281170
  H       2.776550   -0.677400    1.911300
  H       4.389120   -0.239640    1.337900
  H       3.177680    1.021490    1.659070
units angstrom
no_reorient
symmetry c1
}

set {
scf_type DF
basis aug-cc-pvtz
freeze_core True
guess SAD
}
energy('sapt2+')
--------------------------------------------------------------------------

  Memory set to  46.566 GiB by Python driver.

Scratch directory: /scratch/liuchw/

  //>>>>>>>>>>>>>>>>>>>>>>>>>>>>>>>>>>>//
  //              Dimer HF             //
  //<<<<<<<<<<<<<<<<<<<<<<<<<<<<<<<<<<<//


*** tstart() called on node62.bme.utexas.edu
*** at Thu Apr 23 22:50:43 2020

   => Loading Basis Set <=

    Name: AUG-CC-PVTZ
    Role: ORBITAL
    Keyword: BASIS
    atoms 1, 7             entry O          line   331 file /home/liuchw/anaconda3/envs/psi4env/share/psi4/basis/aug-cc-pvtz.gbs 
    atoms 2, 4-6, 8, 10-12 entry H          line    40 file /home/liuchw/anaconda3/envs/psi4env/share/psi4/basis/aug-cc-pvtz.gbs 
    atoms 3, 9             entry C          line   239 file /home/liuchw/anaconda3/envs/psi4env/share/psi4/basis/aug-cc-pvtz.gbs 


         ---------------------------------------------------------
                                   SCF
               by Justin Turney, Rob Parrish, Andy Simmonett
                          and Daniel G. A. Smith
                              RHF Reference
                        8 Threads,  47683 MiB Core
         ---------------------------------------------------------

  ==> Geometry <==

    Molecular point group: c1
    Full point group: C1

    Geometry (in Angstrom), charge = 0, multiplicity = 1:

       Center              X                  Y                   Z               Mass       
    ------------   -----------------  -----------------  -----------------  -----------------
         O           -1.747204789543     0.332702077440    -0.088671594152    15.994914619570
         H           -0.802964789543     0.308902077440    -0.292811594152     1.007825032230
         C           -2.263124789543    -0.955307922560    -0.354011594152    12.000000000000
         H           -3.321004789543    -0.940287922560    -0.105311594152     1.007825032230
         H           -2.167674789543    -1.236687922560    -1.405461594152     1.007825032230
         H           -1.785904789543    -1.730287922560     0.251238405848     1.007825032230
         O            1.710225210457     0.209762077440    -0.409811594152    15.994914619570
         H            2.179015210457     0.824142077440    -0.979481594152     1.007825032230
         C            2.219055210457     0.366782077440     0.911898405848    12.000000000000
         H            1.665485210457    -0.321417922560     1.542028405848     1.007825032230
         H            3.278055210457     0.116342077440     0.968628405848     1.007825032230
         H            2.066615210457     1.377472077440     1.289798405848     1.007825032230

  Running in c1 symmetry.

  Rotational constants: A =      0.52345  B =      0.05891  C =      0.05807 [cm^-1]
  Rotational constants: A =  15692.52269  B =   1766.04850  C =   1740.99790 [MHz]
  Nuclear repulsion =  122.443576855542915

  Charge       = 0
  Multiplicity = 1
  Electrons    = 36
  Nalpha       = 18
  Nbeta        = 18

  ==> Algorithm <==

  SCF Algorithm Type is DF.
  DIIS enabled.
  MOM disabled.
  Fractional occupation disabled.
  Guess Type is SAD.
  Energy threshold   = 1.00e-08
  Density threshold  = 1.00e-08
  Integral threshold = 0.00e+00

  ==> Primary Basis <==

  Basis Set: AUG-CC-PVTZ
    Blend: AUG-CC-PVTZ
    Number of shells: 128
    Number of basis function: 368
    Number of Cartesian functions: 420
    Spherical Harmonics?: true
    Max angular momentum: 3

   => Loading Basis Set <=

    Name: (AUG-CC-PVTZ AUX)
    Role: JKFIT
    Keyword: DF_BASIS_SCF
    atoms 1, 7             entry O          line   286 file /home/liuchw/anaconda3/envs/psi4env/share/psi4/basis/aug-cc-pvtz-jkfit.gbs 
    atoms 2, 4-6, 8, 10-12 entry H          line    70 file /home/liuchw/anaconda3/envs/psi4env/share/psi4/basis/aug-cc-pvtz-jkfit.gbs 
    atoms 3, 9             entry C          line   162 file /home/liuchw/anaconda3/envs/psi4env/share/psi4/basis/aug-cc-pvtz-jkfit.gbs 

  ==> Pre-Iterations <==

   -------------------------------------------------------
    Irrep   Nso     Nmo     Nalpha   Nbeta   Ndocc  Nsocc
   -------------------------------------------------------
     A        368     368       0       0       0       0
   -------------------------------------------------------
    Total     368     368      18      18      18       0
   -------------------------------------------------------

  ==> Integral Setup <==

  ==> DiskDFJK: Density-Fitted J/K Matrices <==

    J tasked:                  Yes
    K tasked:                  Yes
    wK tasked:                  No
    OpenMP threads:              8
    Integrals threads:           8
    Memory [MiB]:            35762
    Algorithm:                Core
    Integral Cache:           SAVE
    Schwarz Cutoff:          1E-12
    Fitting Condition:       1E-10

   => Auxiliary Basis Set <=

  Basis Set: (AUG-CC-PVTZ AUX)
    Blend: AUG-CC-PVTZ-JKFIT
    Number of shells: 232
    Number of basis function: 784
    Number of Cartesian functions: 964
    Spherical Harmonics?: true
    Max angular momentum: 4

  Minimum eigenvalue in the overlap matrix is 5.0691572671E-05.
  Using Symmetric Orthogonalization.

  SCF Guess: Superposition of Atomic Densities via on-the-fly atomic UHF.

  ==> Iterations <==

                           Total Energy        Delta E     RMS |[F,P]|

   @DF-RHF iter SAD:  -228.80158369402139   -2.28802e+02   0.00000e+00 
   @DF-RHF iter   1:  -230.02303189020847   -1.22145e+00   1.59670e-03 DIIS
   @DF-RHF iter   2:  -230.14819577250898   -1.25164e-01   9.21511e-04 DIIS
   @DF-RHF iter   3:  -230.18662681603951   -3.84310e-02   1.41694e-04 DIIS
   @DF-RHF iter   4:  -230.18852772257614   -1.90091e-03   4.35772e-05 DIIS
   @DF-RHF iter   5:  -230.18870397334902   -1.76251e-04   9.95840e-06 DIIS
   @DF-RHF iter   6:  -230.18871555378996   -1.15804e-05   2.26706e-06 DIIS
   @DF-RHF iter   7:  -230.18871651070086   -9.56911e-07   5.37380e-07 DIIS
   @DF-RHF iter   8:  -230.18871656587029   -5.51694e-08   1.68808e-07 DIIS
   @DF-RHF iter   9:  -230.18871656879151   -2.92121e-09   6.55493e-08 DIIS
   @DF-RHF iter  10:  -230.18871656923602   -4.44516e-10   9.75291e-09 DIIS
  Energy and wave function converged.


  ==> Post-Iterations <==

    Orbital Energies [Eh]
    ---------------------

    Doubly Occupied:                                                      

       1A    -20.573383     2A    -20.543827     3A    -11.279429  
       4A    -11.258295     5A     -1.370649     6A     -1.344064  
       7A     -0.936724     8A     -0.912266     9A     -0.704000  
      10A     -0.677637    11A     -0.631623    12A     -0.607573  
      13A     -0.604444    14A     -0.581545    15A     -0.517882  
      16A     -0.490684    17A     -0.465173    18A     -0.436561  

    Virtual:                                                              

      19A      0.025719    20A      0.039263    21A      0.039795  
      22A      0.044949    23A      0.054813    24A      0.058103  
      25A      0.065613    26A      0.082243    27A      0.102202  
      28A      0.114304    29A      0.121257    30A      0.128934  
      31A      0.133859    32A      0.145068    33A      0.146675  
      34A      0.155518    35A      0.163577    36A      0.172187  
      37A      0.188824    38A      0.191556    39A      0.206621  
      40A      0.214907    41A      0.230504    42A      0.240945  
      43A      0.247004    44A      0.260411    45A      0.274180  
      46A      0.292033    47A      0.294880    48A      0.299899  
      49A      0.304326    50A      0.310327    51A      0.319276  
      52A      0.324471    53A      0.331733    54A      0.334616  
      55A      0.339596    56A      0.350123    57A      0.356107  
      58A      0.367390    59A      0.375525    60A      0.377350  
      61A      0.387919    62A      0.398099    63A      0.401474  
      64A      0.406672    65A      0.421198    66A      0.428994  
      67A      0.432845    68A      0.438300    69A      0.443829  
      70A      0.448050    71A      0.454984    72A      0.461345  
      73A      0.465877    74A      0.475694    75A      0.489226  
      76A      0.499751    77A      0.508123    78A      0.511494  
      79A      0.512850    80A      0.523340    81A      0.534348  
      82A      0.542836    83A      0.549713    84A      0.574849  
      85A      0.592697    86A      0.635616    87A      0.661636  
      88A      0.681520    89A      0.692246    90A      0.720498  
      91A      0.731981    92A      0.741742    93A      0.765533  
      94A      0.777514    95A      0.786340    96A      0.788149  
      97A      0.794503    98A      0.804766    99A      0.816690  
     100A      0.825037   101A      0.827686   102A      0.839268  
     103A      0.859531   104A      0.884481   105A      0.889133  
     106A      0.891654   107A      0.908651   108A      0.915793  
     109A      0.918728   110A      0.933966   111A      0.941222  
     112A      0.952003   113A      0.955790   114A      0.963551  
     115A      0.975375   116A      0.978516   117A      0.982752  
     118A      0.998935   119A      1.007862   120A      1.021384  
     121A      1.030216   122A      1.033672   123A      1.049845  
     124A      1.053481   125A      1.060081   126A      1.075159  
     127A      1.078720   128A      1.089535   129A      1.097491  
     130A      1.105471   131A      1.117577   132A      1.120980  
     133A      1.131813   134A      1.144246   135A      1.145691  
     136A      1.150764   137A      1.164227   138A      1.177621  
     139A      1.195737   140A      1.203169   141A      1.210355  
     142A      1.217920   143A      1.231430   144A      1.244831  
     145A      1.248434   146A      1.274437   147A      1.285046  
     148A      1.292382   149A      1.318732   150A      1.342419  
     151A      1.350440   152A      1.374454   153A      1.381259  
     154A      1.397512   155A      1.407410   156A      1.428013  
     157A      1.462575   158A      1.471549   159A      1.489944  
     160A      1.528312   161A      1.544365   162A      1.571848  
     163A      1.584624   164A      1.591051   165A      1.609398  
     166A      1.617817   167A      1.630005   168A      1.632290  
     169A      1.651952   170A      1.658905   171A      1.662512  
     172A      1.672033   173A      1.690756   174A      1.696582  
     175A      1.707751   176A      1.714636   177A      1.720284  
     178A      1.736498   179A      1.740043   180A      1.757749  
     181A      1.777039   182A      1.801293   183A      1.839807  
     184A      1.869133   185A      1.910693   186A      1.934571  
     187A      1.958270   188A      1.969188   189A      1.985838  
     190A      1.992360   191A      2.013135   192A      2.032816  
     193A      2.041067   194A      2.070446   195A      2.088640  
     196A      2.094416   197A      2.101504   198A      2.133661  
     199A      2.141685   200A      2.196888   201A      2.199690  
     202A      2.210087   203A      2.236014   204A      2.328924  
     205A      2.400835   206A      2.438666   207A      2.491468  
     208A      2.509469   209A      2.545741   210A      2.557425  
     211A      2.564584   212A      2.589981   213A      2.611966  
     214A      2.642591   215A      2.698619   216A      2.717354  
     217A      2.754508   218A      2.783395   219A      2.797145  
     220A      2.808018   221A      2.835952   222A      2.865414  
     223A      2.896837   224A      2.921110   225A      2.932739  
     226A      2.960296   227A      2.973920   228A      3.005332  
     229A      3.055823   230A      3.074278   231A      3.102988  
     232A      3.156534   233A      3.210601   234A      3.264259  
     235A      3.346650   236A      3.355237   237A      3.396658  
     238A      3.405622   239A      3.538243   240A      3.568132  
     241A      3.577305   242A      3.587330   243A      3.598474  
     244A      3.605111   245A      3.642001   246A      3.660847  
     247A      3.667037   248A      3.683060   249A      3.721990  
     250A      3.743730   251A      3.802992   252A      3.828886  
     253A      3.875045   254A      3.878845   255A      3.899714  
     256A      3.911155   257A      3.954707   258A      3.967729  
     259A      3.982445   260A      4.011540   261A      4.033738  
     262A      4.034669   263A      4.080204   264A      4.089845  
     265A      4.108127   266A      4.115881   267A      4.118691  
     268A      4.159672   269A      4.195797   270A      4.205346  
     271A      4.225366   272A      4.245058   273A      4.256093  
     274A      4.270033   275A      4.288662   276A      4.302277  
     277A      4.316148   278A      4.355122   279A      4.501246  
     280A      4.509382   281A      4.514743   282A      4.528826  
     283A      4.562371   284A      4.580223   285A      4.596404  
     286A      4.615116   287A      4.633790   288A      4.665974  
     289A      4.701577   290A      4.729664   291A      4.764462  
     292A      4.772202   293A      4.782267   294A      4.801915  
     295A      4.811769   296A      4.814382   297A      4.923100  
     298A      4.951770   299A      4.996814   300A      5.020741  
     301A      5.036621   302A      5.041128   303A      5.048180  
     304A      5.065342   305A      5.081405   306A      5.123517  
     307A      5.145966   308A      5.211608   309A      5.254706  
     310A      5.266443   311A      5.268825   312A      5.289676  
     313A      5.413617   314A      5.458310   315A      5.491867  
     316A      5.504343   317A      5.537224   318A      5.581430  
     319A      5.596736   320A      5.610682   321A      5.619935  
     322A      5.629692   323A      5.642962   324A      5.666965  
     325A      5.743471   326A      5.759933   327A      6.109597  
     328A      6.119214   329A      6.131387   330A      6.146203  
     331A      6.159174   332A      6.176884   333A      6.212103  
     334A      6.252431   335A      6.590897   336A      6.621052  
     337A      6.638041   338A      6.655096   339A      6.662835  
     340A      6.676496   341A      6.898572   342A      6.925542  
     343A      6.936361   344A      6.959044   345A      7.090052  
     346A      7.099378   347A      7.265680   348A      7.313250  
     349A      7.340529   350A      7.356070   351A      7.426829  
     352A      7.473175   353A      7.494078   354A      7.502901  
     355A      7.539428   356A      7.583795   357A      7.763676  
     358A      7.801144   359A      7.863529   360A      7.933775  
     361A      8.163727   362A      8.184761   363A      8.541864  
     364A      8.558124   365A     15.666754   366A     16.094617  
     367A     17.765524   368A     17.828876  

    Final Occupation by Irrep:
              A 
    DOCC [    18 ]

  @DF-RHF Final Energy:  -230.18871656923602

   => Energetics <=

    Nuclear Repulsion Energy =            122.4435768555429149
    One-Electron Energy =                -557.3930649139681464
    Two-Electron Energy =                 204.7607714891892101
    Total Energy =                       -230.1887165692360213

Computation Completed


Properties will be evaluated at   0.000000,   0.000000,   0.000000 [a0]

Properties computed using the SCF density matrix

  Nuclear Dipole Moment: [e a0]
     X:     1.0419      Y:    -1.4991      Z:     1.1869

  Electronic Dipole Moment: [e a0]
     X:    -0.0188      Y:     1.4232      Z:    -1.1866

  Dipole Moment: [e a0]
     X:     1.0231      Y:    -0.0759      Z:     0.0003     Total:     1.0259

  Dipole Moment: [D]
     X:     2.6005      Y:    -0.1929      Z:     0.0006     Total:     2.6076


*** tstop() called on node62.bme.utexas.edu at Thu Apr 23 22:50:51 2020
Module time:
	user time   =      51.98 seconds =       0.87 minutes
	system time =       2.04 seconds =       0.03 minutes
	total time  =          8 seconds =       0.13 minutes
Total time:
	user time   =      51.98 seconds =       0.87 minutes
	system time =       2.04 seconds =       0.03 minutes
	total time  =          8 seconds =       0.13 minutes

  //>>>>>>>>>>>>>>>>>>>>>>>>>>>>>>>>>>>//
  //            Monomer A HF           //
  //<<<<<<<<<<<<<<<<<<<<<<<<<<<<<<<<<<<//


*** tstart() called on node62.bme.utexas.edu
*** at Thu Apr 23 22:50:51 2020

   => Loading Basis Set <=

    Name: AUG-CC-PVTZ
    Role: ORBITAL
    Keyword: BASIS
    atoms 1, 7             entry O          line   331 file /home/liuchw/anaconda3/envs/psi4env/share/psi4/basis/aug-cc-pvtz.gbs 
    atoms 2, 4-6, 8, 10-12 entry H          line    40 file /home/liuchw/anaconda3/envs/psi4env/share/psi4/basis/aug-cc-pvtz.gbs 
    atoms 3, 9             entry C          line   239 file /home/liuchw/anaconda3/envs/psi4env/share/psi4/basis/aug-cc-pvtz.gbs 


         ---------------------------------------------------------
                                   SCF
               by Justin Turney, Rob Parrish, Andy Simmonett
                          and Daniel G. A. Smith
                              RHF Reference
                        8 Threads,  47683 MiB Core
         ---------------------------------------------------------

  ==> Geometry <==

    Molecular point group: c1
    Full point group: C1

    Geometry (in Angstrom), charge = 0, multiplicity = 1:

       Center              X                  Y                   Z               Mass       
    ------------   -----------------  -----------------  -----------------  -----------------
         O           -1.747204789543     0.332702077440    -0.088671594152    15.994914619570
         H           -0.802964789543     0.308902077440    -0.292811594152     1.007825032230
         C           -2.263124789543    -0.955307922560    -0.354011594152    12.000000000000
         H           -3.321004789543    -0.940287922560    -0.105311594152     1.007825032230
         H           -2.167674789543    -1.236687922560    -1.405461594152     1.007825032230
         H           -1.785904789543    -1.730287922560     0.251238405848     1.007825032230
      Gh(O)           1.710225210457     0.209762077440    -0.409811594152    15.994914619570
      Gh(H)           2.179015210457     0.824142077440    -0.979481594152     1.007825032230
      Gh(C)           2.219055210457     0.366782077440     0.911898405848    12.000000000000
      Gh(H)           1.665485210457    -0.321417922560     1.542028405848     1.007825032230
      Gh(H)           3.278055210457     0.116342077440     0.968628405848     1.007825032230
      Gh(H)           2.066615210457     1.377472077440     1.289798405848     1.007825032230

  Running in c1 symmetry.

  Rotational constants: A =      0.52345  B =      0.05891  C =      0.05807 [cm^-1]
  Rotational constants: A =  15692.52269  B =   1766.04850  C =   1740.99790 [MHz]
  Nuclear repulsion =   40.417301166608837

  Charge       = 0
  Multiplicity = 1
  Electrons    = 18
  Nalpha       = 9
  Nbeta        = 9

  ==> Algorithm <==

  SCF Algorithm Type is DF.
  DIIS enabled.
  MOM disabled.
  Fractional occupation disabled.
  Guess Type is SAD.
  Energy threshold   = 1.00e-08
  Density threshold  = 1.00e-08
  Integral threshold = 0.00e+00

  ==> Primary Basis <==

  Basis Set: AUG-CC-PVTZ
    Blend: AUG-CC-PVTZ
    Number of shells: 128
    Number of basis function: 368
    Number of Cartesian functions: 420
    Spherical Harmonics?: true
    Max angular momentum: 3

   => Loading Basis Set <=

    Name: (AUG-CC-PVTZ AUX)
    Role: JKFIT
    Keyword: DF_BASIS_SCF
    atoms 1, 7             entry O          line   286 file /home/liuchw/anaconda3/envs/psi4env/share/psi4/basis/aug-cc-pvtz-jkfit.gbs 
    atoms 2, 4-6, 8, 10-12 entry H          line    70 file /home/liuchw/anaconda3/envs/psi4env/share/psi4/basis/aug-cc-pvtz-jkfit.gbs 
    atoms 3, 9             entry C          line   162 file /home/liuchw/anaconda3/envs/psi4env/share/psi4/basis/aug-cc-pvtz-jkfit.gbs 

  ==> Pre-Iterations <==

   -------------------------------------------------------
    Irrep   Nso     Nmo     Nalpha   Nbeta   Ndocc  Nsocc
   -------------------------------------------------------
     A        368     368       0       0       0       0
   -------------------------------------------------------
    Total     368     368       9       9       9       0
   -------------------------------------------------------

  ==> Integral Setup <==

  ==> DiskDFJK: Density-Fitted J/K Matrices <==

    J tasked:                  Yes
    K tasked:                  Yes
    wK tasked:                  No
    OpenMP threads:              8
    Integrals threads:           8
    Memory [MiB]:            35762
    Algorithm:                Core
    Integral Cache:           LOAD
    Schwarz Cutoff:          1E-12
    Fitting Condition:       1E-10

   => Auxiliary Basis Set <=

  Basis Set: (AUG-CC-PVTZ AUX)
    Blend: AUG-CC-PVTZ-JKFIT
    Number of shells: 232
    Number of basis function: 784
    Number of Cartesian functions: 964
    Spherical Harmonics?: true
    Max angular momentum: 4

  Minimum eigenvalue in the overlap matrix is 5.0691572671E-05.
  Using Symmetric Orthogonalization.

  SCF Guess: Superposition of Atomic Densities via on-the-fly atomic UHF.

  ==> Iterations <==

                           Total Energy        Delta E     RMS |[F,P]|

   @DF-RHF iter SAD:  -114.39190884777186   -1.14392e+02   0.00000e+00 
   @DF-RHF iter   1:  -115.00562177326678   -6.13713e-01   1.15048e-03 DIIS
   @DF-RHF iter   2:  -115.06977051671501   -6.41487e-02   6.80590e-04 DIIS
   @DF-RHF iter   3:  -115.09076889905458   -2.09984e-02   1.00793e-04 DIIS
   @DF-RHF iter   4:  -115.09174679819577   -9.77899e-04   3.18421e-05 DIIS
   @DF-RHF iter   5:  -115.09184191443917   -9.51162e-05   7.25977e-06 DIIS
   @DF-RHF iter   6:  -115.09184821806690   -6.30363e-06   1.68274e-06 DIIS
   @DF-RHF iter   7:  -115.09184875059277   -5.32526e-07   3.95814e-07 DIIS
   @DF-RHF iter   8:  -115.09184878223945   -3.16467e-08   8.34017e-08 DIIS
   @DF-RHF iter   9:  -115.09184878353484   -1.29539e-09   1.58040e-08 DIIS
   @DF-RHF iter  10:  -115.09184878357836   -4.35136e-11   3.77418e-09 DIIS
  Energy and wave function converged.


  ==> Post-Iterations <==

    Orbital Energies [Eh]
    ---------------------

    Doubly Occupied:                                                      

       1A    -20.561076     2A    -11.270287     3A     -1.360230  
       4A     -0.925140     5A     -0.692404     6A     -0.620832  
       7A     -0.595546     8A     -0.504269     9A     -0.451175  

    Virtual:                                                              

      10A      0.019650    11A      0.035647    12A      0.039465  
      13A      0.044408    14A      0.051564    15A      0.057330  
      16A      0.062289    17A      0.081672    18A      0.085932  
      19A      0.105511    20A      0.112687    21A      0.118725  
      22A      0.126994    23A      0.130828    24A      0.136514  
      25A      0.145643    26A      0.152939    27A      0.162849  
      28A      0.188117    29A      0.189652    30A      0.200049  
      31A      0.210893    32A      0.224411    33A      0.234863  
      34A      0.247615    35A      0.250403    36A      0.273027  
      37A      0.284204    38A      0.285733    39A      0.293567  
      40A      0.300730    41A      0.306034    42A      0.312946  
      43A      0.318964    44A      0.320853    45A      0.327753  
      46A      0.332676    47A      0.339943    48A      0.344025  
      49A      0.352865    50A      0.363137    51A      0.372475  
      52A      0.383093    53A      0.383940    54A      0.395097  
      55A      0.407317    56A      0.413086    57A      0.419454  
      58A      0.428482    59A      0.437482    60A      0.442936  
      61A      0.444990    62A      0.450825    63A      0.461832  
      64A      0.470677    65A      0.479004    66A      0.484587  
      67A      0.499853    68A      0.512047    69A      0.516799  
      70A      0.520836    71A      0.525129    72A      0.535934  
      73A      0.545377    74A      0.570470    75A      0.584256  
      76A      0.596734    77A      0.627175    78A      0.642919  
      79A      0.660380    80A      0.668131    81A      0.690559  
      82A      0.710109    83A      0.733413    84A      0.756718  
      85A      0.781423    86A      0.783066    87A      0.800984  
      88A      0.808557    89A      0.814675    90A      0.834086  
      91A      0.840815    92A      0.844324    93A      0.856578  
      94A      0.887548    95A      0.894713    96A      0.899313  
      97A      0.904475    98A      0.913178    99A      0.926475  
     100A      0.937619   101A      0.942299   102A      0.955515  
     103A      0.966987   104A      0.979562   105A      0.985725  
     106A      0.992239   107A      1.003794   108A      1.006712  
     109A      1.018166   110A      1.024086   111A      1.036535  
     112A      1.050887   113A      1.052223   114A      1.060434  
     115A      1.078392   116A      1.079513   117A      1.087621  
     118A      1.092953   119A      1.101314   120A      1.116917  
     121A      1.126819   122A      1.128138   123A      1.143764  
     124A      1.151032   125A      1.158676   126A      1.175890  
     127A      1.182582   128A      1.183569   129A      1.193726  
     130A      1.200632   131A      1.207278   132A      1.216127  
     133A      1.232690   134A      1.240539   135A      1.245737  
     136A      1.253963   137A      1.273523   138A      1.285526  
     139A      1.293754   140A      1.304851   141A      1.331456  
     142A      1.353697   143A      1.367128   144A      1.378649  
     145A      1.392995   146A      1.407988   147A      1.415904  
     148A      1.432438   149A      1.443266   150A      1.472347  
     151A      1.485665   152A      1.550964   153A      1.559044  
     154A      1.583881   155A      1.608816   156A      1.615167  
     157A      1.621008   158A      1.644027   159A      1.658898  
     160A      1.675067   161A      1.681585   162A      1.685377  
     163A      1.698493   164A      1.702566   165A      1.716901  
     166A      1.732574   167A      1.754685   168A      1.763507  
     169A      1.777171   170A      1.794360   171A      1.837331  
     172A      1.855441   173A      1.874099   174A      1.878321  
     175A      1.898857   176A      1.915310   177A      1.933200  
     178A      1.939901   179A      1.975708   180A      1.987979  
     181A      1.998396   182A      2.045421   183A      2.063922  
     184A      2.067237   185A      2.099478   186A      2.123061  
     187A      2.138762   188A      2.175780   189A      2.192251  
     190A      2.203160   191A      2.222430   192A      2.250476  
     193A      2.303173   194A      2.319151   195A      2.352374  
     196A      2.412699   197A      2.423715   198A      2.436102  
     199A      2.522997   200A      2.532186   201A      2.568039  
     202A      2.575442   203A      2.600654   204A      2.633690  
     205A      2.664889   206A      2.702153   207A      2.704605  
     208A      2.723153   209A      2.738433   210A      2.800649  
     211A      2.815476   212A      2.823353   213A      2.896044  
     214A      2.912216   215A      2.924638   216A      2.950804  
     217A      3.006115   218A      3.034563   219A      3.053032  
     220A      3.091054   221A      3.107767   222A      3.174915  
     223A      3.228476   224A      3.236704   225A      3.293409  
     226A      3.341204   227A      3.386063   228A      3.395134  
     229A      3.415330   230A      3.491930   231A      3.499073  
     232A      3.563021   233A      3.573761   234A      3.591892  
     235A      3.647806   236A      3.655689   237A      3.705156  
     238A      3.740034   239A      3.768270   240A      3.832796  
     241A      3.865700   242A      3.899058   243A      3.951107  
     244A      3.955074   245A      4.006467   246A      4.041134  
     247A      4.069448   248A      4.075563   249A      4.099480  
     250A      4.129737   251A      4.142255   252A      4.147005  
     253A      4.160884   254A      4.179769   255A      4.207188  
     256A      4.219868   257A      4.258377   258A      4.269883  
     259A      4.303509   260A      4.416663   261A      4.433892  
     262A      4.472388   263A      4.489565   264A      4.504738  
     265A      4.509818   266A      4.525257   267A      4.530221  
     268A      4.566091   269A      4.585094   270A      4.599414  
     271A      4.634630   272A      4.668464   273A      4.693645  
     274A      4.704153   275A      4.744171   276A      4.764176  
     277A      4.784376   278A      4.787462   279A      4.801527  
     280A      4.866680   281A      4.901002   282A      4.938090  
     283A      4.968984   284A      4.982873   285A      5.018707  
     286A      5.028991   287A      5.043471   288A      5.049353  
     289A      5.052537   290A      5.107563   291A      5.148598  
     292A      5.190774   293A      5.251930   294A      5.258287  
     295A      5.271634   296A      5.305096   297A      5.345137  
     298A      5.372596   299A      5.389543   300A      5.452152  
     301A      5.468708   302A      5.481668   303A      5.489358  
     304A      5.530729   305A      5.562560   306A      5.605498  
     307A      5.611362   308A      5.628039   309A      5.667137  
     310A      5.735481   311A      5.741170   312A      5.774622  
     313A      5.851167   314A      6.071899   315A      6.119460  
     316A      6.139905   317A      6.181016   318A      6.194633  
     319A      6.196926   320A      6.229162   321A      6.252098  
     322A      6.362071   323A      6.505767   324A      6.603057  
     325A      6.643200   326A      6.652299   327A      6.748340  
     328A      6.780373   329A      6.910382   330A      6.923630  
     331A      7.081674   332A      7.091684   333A      7.263087  
     334A      7.321164   335A      7.331688   336A      7.466961  
     337A      7.482545   338A      7.560511   339A      7.719902  
     340A      7.731948   341A      7.759890   342A      7.787409  
     343A      7.835260   344A      7.870587   345A      7.930052  
     346A      8.070649   347A      8.105977   348A      8.130235  
     349A      8.168371   350A      8.205720   351A      8.302286  
     352A      8.523036   353A      8.541042   354A      8.782004  
     355A      9.842195   356A     10.025244   357A     10.304831  
     358A     10.351525   359A     10.570966   360A     10.950341  
     361A     11.842172   362A     12.172296   363A     13.132067  
     364A     13.974531   365A     16.079475   366A     17.762153  
     367A     52.837461   368A     65.135404  

    Final Occupation by Irrep:
              A 
    DOCC [     9 ]

  @DF-RHF Final Energy:  -115.09184878357836

   => Energetics <=

    Nuclear Repulsion Energy =             40.4173011666088371
    One-Electron Energy =                -237.0563816181653181
    Two-Electron Energy =                  81.5472316679781244
    Total Energy =                       -115.0918487835783566

Computation Completed


Properties will be evaluated at   0.000000,   0.000000,   0.000000 [a0]

Properties computed using the SCF density matrix

  Nuclear Dipole Moment: [e a0]
     X:   -67.3384      Y:   -12.6018      Z:    -8.2879

  Electronic Dipole Moment: [e a0]
     X:    67.7055      Y:    12.0428      Z:     8.0499

  Dipole Moment: [e a0]
     X:     0.3672      Y:    -0.5590      Z:    -0.2381     Total:     0.7099

  Dipole Moment: [D]
     X:     0.9332      Y:    -1.4209      Z:    -0.6051     Total:     1.8045


*** tstop() called on node62.bme.utexas.edu at Thu Apr 23 22:50:58 2020
Module time:
	user time   =      44.07 seconds =       0.73 minutes
	system time =       2.56 seconds =       0.04 minutes
	total time  =          7 seconds =       0.12 minutes
Total time:
	user time   =      96.11 seconds =       1.60 minutes
	system time =       4.60 seconds =       0.08 minutes
	total time  =         15 seconds =       0.25 minutes

  //>>>>>>>>>>>>>>>>>>>>>>>>>>>>>>>>>>>//
  //            Monomer B HF           //
  //<<<<<<<<<<<<<<<<<<<<<<<<<<<<<<<<<<<//


*** tstart() called on node62.bme.utexas.edu
*** at Thu Apr 23 22:50:58 2020

   => Loading Basis Set <=

    Name: AUG-CC-PVTZ
    Role: ORBITAL
    Keyword: BASIS
    atoms 1, 7             entry O          line   331 file /home/liuchw/anaconda3/envs/psi4env/share/psi4/basis/aug-cc-pvtz.gbs 
    atoms 2, 4-6, 8, 10-12 entry H          line    40 file /home/liuchw/anaconda3/envs/psi4env/share/psi4/basis/aug-cc-pvtz.gbs 
    atoms 3, 9             entry C          line   239 file /home/liuchw/anaconda3/envs/psi4env/share/psi4/basis/aug-cc-pvtz.gbs 


         ---------------------------------------------------------
                                   SCF
               by Justin Turney, Rob Parrish, Andy Simmonett
                          and Daniel G. A. Smith
                              RHF Reference
                        8 Threads,  47683 MiB Core
         ---------------------------------------------------------

  ==> Geometry <==

    Molecular point group: c1
    Full point group: C1

    Geometry (in Angstrom), charge = 0, multiplicity = 1:

       Center              X                  Y                   Z               Mass       
    ------------   -----------------  -----------------  -----------------  -----------------
      Gh(O)          -1.747204789543     0.332702077440    -0.088671594152    15.994914619570
      Gh(H)          -0.802964789543     0.308902077440    -0.292811594152     1.007825032230
      Gh(C)          -2.263124789543    -0.955307922560    -0.354011594152    12.000000000000
      Gh(H)          -3.321004789543    -0.940287922560    -0.105311594152     1.007825032230
      Gh(H)          -2.167674789543    -1.236687922560    -1.405461594152     1.007825032230
      Gh(H)          -1.785904789543    -1.730287922560     0.251238405848     1.007825032230
         O            1.710225210457     0.209762077440    -0.409811594152    15.994914619570
         H            2.179015210457     0.824142077440    -0.979481594152     1.007825032230
         C            2.219055210457     0.366782077440     0.911898405848    12.000000000000
         H            1.665485210457    -0.321417922560     1.542028405848     1.007825032230
         H            3.278055210457     0.116342077440     0.968628405848     1.007825032230
         H            2.066615210457     1.377472077440     1.289798405848     1.007825032230

  Running in c1 symmetry.

  Rotational constants: A =      0.52345  B =      0.05891  C =      0.05807 [cm^-1]
  Rotational constants: A =  15692.52269  B =   1766.04850  C =   1740.99790 [MHz]
  Nuclear repulsion =   40.298164012135004

  Charge       = 0
  Multiplicity = 1
  Electrons    = 18
  Nalpha       = 9
  Nbeta        = 9

  ==> Algorithm <==

  SCF Algorithm Type is DF.
  DIIS enabled.
  MOM disabled.
  Fractional occupation disabled.
  Guess Type is SAD.
  Energy threshold   = 1.00e-08
  Density threshold  = 1.00e-08
  Integral threshold = 0.00e+00

  ==> Primary Basis <==

  Basis Set: AUG-CC-PVTZ
    Blend: AUG-CC-PVTZ
    Number of shells: 128
    Number of basis function: 368
    Number of Cartesian functions: 420
    Spherical Harmonics?: true
    Max angular momentum: 3

   => Loading Basis Set <=

    Name: (AUG-CC-PVTZ AUX)
    Role: JKFIT
    Keyword: DF_BASIS_SCF
    atoms 1, 7             entry O          line   286 file /home/liuchw/anaconda3/envs/psi4env/share/psi4/basis/aug-cc-pvtz-jkfit.gbs 
    atoms 2, 4-6, 8, 10-12 entry H          line    70 file /home/liuchw/anaconda3/envs/psi4env/share/psi4/basis/aug-cc-pvtz-jkfit.gbs 
    atoms 3, 9             entry C          line   162 file /home/liuchw/anaconda3/envs/psi4env/share/psi4/basis/aug-cc-pvtz-jkfit.gbs 

  ==> Pre-Iterations <==

   -------------------------------------------------------
    Irrep   Nso     Nmo     Nalpha   Nbeta   Ndocc  Nsocc
   -------------------------------------------------------
     A        368     368       0       0       0       0
   -------------------------------------------------------
    Total     368     368       9       9       9       0
   -------------------------------------------------------

  ==> Integral Setup <==

  ==> DiskDFJK: Density-Fitted J/K Matrices <==

    J tasked:                  Yes
    K tasked:                  Yes
    wK tasked:                  No
    OpenMP threads:              8
    Integrals threads:           8
    Memory [MiB]:            35762
    Algorithm:                Core
    Integral Cache:           LOAD
    Schwarz Cutoff:          1E-12
    Fitting Condition:       1E-10

   => Auxiliary Basis Set <=

  Basis Set: (AUG-CC-PVTZ AUX)
    Blend: AUG-CC-PVTZ-JKFIT
    Number of shells: 232
    Number of basis function: 784
    Number of Cartesian functions: 964
    Spherical Harmonics?: true
    Max angular momentum: 4

  Minimum eigenvalue in the overlap matrix is 5.0691572671E-05.
  Using Symmetric Orthogonalization.

  SCF Guess: Superposition of Atomic Densities via on-the-fly atomic UHF.

  ==> Iterations <==

                           Total Energy        Delta E     RMS |[F,P]|

   @DF-RHF iter SAD:  -114.37632955696664   -1.14376e+02   0.00000e+00 
   @DF-RHF iter   1:  -115.00641795293190   -6.30088e-01   1.14958e-03 DIIS
   @DF-RHF iter   2:  -115.07017904587534   -6.37611e-02   6.79169e-04 DIIS
   @DF-RHF iter   3:  -115.09102705896701   -2.08480e-02   1.00914e-04 DIIS
   @DF-RHF iter   4:  -115.09199676095449   -9.69702e-04   3.17814e-05 DIIS
   @DF-RHF iter   5:  -115.09209121917614   -9.44582e-05   7.14090e-06 DIIS
   @DF-RHF iter   6:  -115.09209728807257   -6.06890e-06   1.63635e-06 DIIS
   @DF-RHF iter   7:  -115.09209778700834   -4.98936e-07   3.84112e-07 DIIS
   @DF-RHF iter   8:  -115.09209781682858   -2.98202e-08   8.16623e-08 DIIS
   @DF-RHF iter   9:  -115.09209781808318   -1.25459e-09   1.53365e-08 DIIS
   @DF-RHF iter  10:  -115.09209781812304   -3.98614e-11   3.66087e-09 DIIS
  Energy and wave function converged.


  ==> Post-Iterations <==

    Orbital Energies [Eh]
    ---------------------

    Doubly Occupied:                                                      

       1A    -20.558924     2A    -11.270634     3A     -1.356219  
       4A     -0.926791     5A     -0.690286     6A     -0.621037  
       7A     -0.592321     8A     -0.505201     9A     -0.452563  

    Virtual:                                                              

      10A      0.025702    11A      0.034182    12A      0.041388  
      13A      0.043811    14A      0.054005    15A      0.058456  
      16A      0.063888    17A      0.076317    18A      0.104022  
      19A      0.107291    20A      0.114811    21A      0.118196  
      22A      0.126802    23A      0.133871    24A      0.143492  
      25A      0.150915    26A      0.166917    27A      0.170707  
      28A      0.179343    29A      0.191564    30A      0.197176  
      31A      0.214146    32A      0.218839    33A      0.242065  
      34A      0.248727    35A      0.259788    36A      0.268393  
      37A      0.290121    38A      0.293738    39A      0.296711  
      40A      0.302751    41A      0.304248    42A      0.313323  
      43A      0.322556    44A      0.326678    45A      0.331862  
      46A      0.342700    47A      0.345021    48A      0.347920  
      49A      0.364013    50A      0.370586    51A      0.382754  
      52A      0.394833    53A      0.400149    54A      0.402929  
      55A      0.410763    56A      0.416373    57A      0.424334  
      58A      0.431310    59A      0.442236    60A      0.446677  
      61A      0.457941    62A      0.459349    63A      0.466741  
      64A      0.484095    65A      0.486622    66A      0.491662  
      67A      0.501875    68A      0.505418    69A      0.511946  
      70A      0.516779    71A      0.526572    72A      0.542379  
      73A      0.556051    74A      0.564124    75A      0.591472  
      76A      0.597474    77A      0.626361    78A      0.642899  
      79A      0.665812    80A      0.678995    81A      0.694787  
      82A      0.699350    83A      0.741274    84A      0.773012  
      85A      0.788953    86A      0.797479    87A      0.801626  
      88A      0.812323    89A      0.845180    90A      0.854104  
      91A      0.874051    92A      0.875698    93A      0.880163  
      94A      0.888991    95A      0.901838    96A      0.902608  
      97A      0.920630    98A      0.925766    99A      0.926121  
     100A      0.944645   101A      0.959792   102A      0.964299  
     103A      0.974179   104A      0.990442   105A      0.992507  
     106A      0.999302   107A      1.010798   108A      1.017830  
     109A      1.039852   110A      1.043071   111A      1.050117  
     112A      1.052755   113A      1.060594   114A      1.067306  
     115A      1.070843   116A      1.076219   117A      1.088705  
     118A      1.093236   119A      1.100357   120A      1.117245  
     121A      1.122470   122A      1.125519   123A      1.134167  
     124A      1.146945   125A      1.161078   126A      1.166476  
     127A      1.176035   128A      1.187361   129A      1.197027  
     130A      1.205164   131A      1.211453   132A      1.230548  
     133A      1.237853   134A      1.246375   135A      1.247429  
     136A      1.265720   137A      1.289034   138A      1.293398  
     139A      1.307892   140A      1.326925   141A      1.338564  
     142A      1.357140   143A      1.370342   144A      1.398744  
     145A      1.405850   146A      1.416514   147A      1.420918  
     148A      1.452976   149A      1.466008   150A      1.482044  
     151A      1.511846   152A      1.552436   153A      1.578600  
     154A      1.588699   155A      1.605422   156A      1.622332  
     157A      1.630061   158A      1.638138   159A      1.653759  
     160A      1.664509   161A      1.687846   162A      1.697275  
     163A      1.711083   164A      1.720643   165A      1.726851  
     166A      1.755995   167A      1.779030   168A      1.805392  
     169A      1.825711   170A      1.840871   171A      1.843535  
     172A      1.867550   173A      1.875726   174A      1.892051  
     175A      1.911025   176A      1.927071   177A      1.958116  
     178A      1.978538   179A      1.986042   180A      2.000574  
     181A      2.048990   182A      2.056997   183A      2.061772  
     184A      2.093335   185A      2.106486   186A      2.130537  
     187A      2.141889   188A      2.159577   189A      2.172807  
     190A      2.204009   191A      2.223708   192A      2.246701  
     193A      2.267935   194A      2.337311   195A      2.405071  
     196A      2.416526   197A      2.434576   198A      2.464622  
     199A      2.500081   200A      2.533176   201A      2.559220  
     202A      2.588187   203A      2.622323   204A      2.642006  
     205A      2.692328   206A      2.702179   207A      2.724399  
     208A      2.731274   209A      2.739050   210A      2.782303  
     211A      2.799929   212A      2.825550   213A      2.871329  
     214A      2.891671   215A      2.925566   216A      2.943214  
     217A      3.001073   218A      3.010116   219A      3.061523  
     220A      3.067816   221A      3.089609   222A      3.177324  
     223A      3.227211   224A      3.335297   225A      3.360089  
     226A      3.384716   227A      3.400984   228A      3.440730  
     229A      3.466924   230A      3.528660   231A      3.540990  
     232A      3.562914   233A      3.588505   234A      3.619177  
     235A      3.666741   236A      3.694653   237A      3.723576  
     238A      3.733795   239A      3.817907   240A      3.886692  
     241A      3.892117   242A      3.944844   243A      3.959696  
     244A      3.981698   245A      4.000934   246A      4.058180  
     247A      4.064134   248A      4.084061   249A      4.122083  
     250A      4.134686   251A      4.145640   252A      4.147961  
     253A      4.175655   254A      4.193562   255A      4.202806  
     256A      4.254904   257A      4.258409   258A      4.302870  
     259A      4.313310   260A      4.426828   261A      4.439053  
     262A      4.490545   263A      4.496242   264A      4.508319  
     265A      4.518834   266A      4.539926   267A      4.561522  
     268A      4.568609   269A      4.600963   270A      4.620985  
     271A      4.641313   272A      4.643018   273A      4.674650  
     274A      4.696897   275A      4.766849   276A      4.771004  
     277A      4.783571   278A      4.791447   279A      4.807850  
     280A      4.848497   281A      4.897516   282A      4.934627  
     283A      4.981568   284A      5.006038   285A      5.010922  
     286A      5.015730   287A      5.047195   288A      5.058394  
     289A      5.077360   290A      5.092044   291A      5.154367  
     292A      5.188389   293A      5.262761   294A      5.274847  
     295A      5.293290   296A      5.325136   297A      5.348816  
     298A      5.393422   299A      5.401706   300A      5.428474  
     301A      5.476288   302A      5.483353   303A      5.506404  
     304A      5.537785   305A      5.562963   306A      5.604540  
     307A      5.618349   308A      5.674394   309A      5.700893  
     310A      5.739686   311A      5.765080   312A      5.829274  
     313A      5.849395   314A      6.081893   315A      6.120735  
     316A      6.128397   317A      6.163796   318A      6.174884  
     319A      6.189141   320A      6.239003   321A      6.288400  
     322A      6.381391   323A      6.510162   324A      6.610961  
     325A      6.648990   326A      6.680561   327A      6.808871  
     328A      6.816391   329A      6.911837   330A      6.969432  
     331A      7.090396   332A      7.114658   333A      7.273393  
     334A      7.292955   335A      7.335964   336A      7.440158  
     337A      7.486947   338A      7.554306   339A      7.708432  
     340A      7.731957   341A      7.776563   342A      7.809161  
     343A      7.857974   344A      7.870281   345A      7.891748  
     346A      8.061606   347A      8.101879   348A      8.141786  
     349A      8.179880   350A      8.223248   351A      8.333393  
     352A      8.571163   353A      8.597346   354A      8.898316  
     355A      9.864315   356A     10.033103   357A     10.348451  
     358A     10.359561   359A     10.607011   360A     11.000957  
     361A     11.821283   362A     12.147721   363A     13.186053  
     364A     14.236703   365A     15.688363   366A     17.829750  
     367A     52.677193   368A     66.027863  

    Final Occupation by Irrep:
              A 
    DOCC [     9 ]

  @DF-RHF Final Energy:  -115.09209781812304

   => Energetics <=

    Nuclear Repulsion Energy =             40.2981640121350040
    One-Electron Energy =                -236.8325706997782163
    Two-Electron Energy =                  81.4423088695201756
    Total Energy =                       -115.0920978181230367

Computation Completed


Properties will be evaluated at   0.000000,   0.000000,   0.000000 [a0]

Properties computed using the SCF density matrix

  Nuclear Dipole Moment: [e a0]
     X:    68.3803      Y:    11.1028      Z:     9.4748

  Electronic Dipole Moment: [e a0]
     X:   -67.8686      Y:   -10.6526      Z:    -9.2550

  Dipole Moment: [e a0]
     X:     0.5117      Y:     0.4502      Z:     0.2198     Total:     0.7161

  Dipole Moment: [D]
     X:     1.3005      Y:     1.1442      Z:     0.5587     Total:     1.8201


*** tstop() called on node62.bme.utexas.edu at Thu Apr 23 22:51:04 2020
Module time:
	user time   =      36.02 seconds =       0.60 minutes
	system time =       1.63 seconds =       0.03 minutes
	total time  =          6 seconds =       0.10 minutes
Total time:
	user time   =     132.17 seconds =       2.20 minutes
	system time =       6.23 seconds =       0.10 minutes
	total time  =         21 seconds =       0.35 minutes
  Constructing Basis Sets for SAPT...

   => Loading Basis Set <=

    Name: (AUG-CC-PVTZ AUX)
    Role: RIFIT
    Keyword: DF_BASIS_SAPT
    atoms 1, 7             entry O          line   264 file /home/liuchw/anaconda3/envs/psi4env/share/psi4/basis/aug-cc-pvtz-ri.gbs 
    atoms 2, 4-6, 8, 10-12 entry H          line    30 file /home/liuchw/anaconda3/envs/psi4env/share/psi4/basis/aug-cc-pvtz-ri.gbs 
    atoms 3, 9             entry C          line   148 file /home/liuchw/anaconda3/envs/psi4env/share/psi4/basis/aug-cc-pvtz-ri.gbs 


  //>>>>>>>>>>>>>>>>>>>>>>>>>>>>>>>>>>>//
  //               SAPT2+              //
  //<<<<<<<<<<<<<<<<<<<<<<<<<<<<<<<<<<<//


*** tstart() called on node62.bme.utexas.edu
*** at Thu Apr 23 22:51:04 2020

        SAPT2+  
    Ed Hohenstein
     6 June 2009

      Orbital Information
  --------------------------
    NSO        =       368
    NMO        =       368
    NRI        =       792
    NOCC A     =         9
    NOCC B     =         9
    FOCC A     =         2
    FOCC B     =         2
    NVIR A     =       359
    NVIR B     =       359

    Estimated memory usage: 1067.1 MB

    Natural Orbital Cutoff:   1.000E-06
    Disp(T3) Truncation:            Yes
    CCD (vv|vv) Truncation:         Yes
    MBPT T2 Truncation:             Yes

    Monomer A: 207 virtual orbitals dropped
    Monomer B: 203 virtual orbitals dropped

    Elst10,r            =    -0.005414432774 [Eh]
    Exch10 (S^2)        =     0.001419546798 [Eh]
    Exch10              =     0.001421149015 [Eh]
    Ind20,r (A<-B)      =    -0.000315768757 [Eh]
    Ind20,r (B<-A)      =    -0.000542618489 [Eh]
    Ind20,r             =    -0.000858387246 [Eh]
    Exch-Ind20,r (A<-B) =     0.000102354017 [Eh]
    Exch-Ind20,r (B<-A) =     0.000179330434 [Eh]
    Exch-Ind20,r        =     0.000281684451 [Eh]
    Disp20              =    -0.001730556600 [Eh]
    Disp20 (NO)         =    -0.001550527411 [Eh]
    Exch-Disp20         =     0.000135136945 [Eh]
    Elst12,r            =     0.000202994343 [Eh]
    Exch11              =     0.000004260763 [Eh]
    Exch12              =     0.000379639046 [Eh]
    Ind22               =    -0.000125783833 [Eh]
    Disp21              =     0.000062173149 [Eh]
    Disp22 (SDQ)        =    -0.000028195175 [Eh]

    (i =   1 of   7)          5 seconds
    (i =   2 of   7)         11 seconds
    (i =   3 of   7)         17 seconds
    (i =   4 of   7)         23 seconds
    (i =   5 of   7)         29 seconds
    (i =   6 of   7)         35 seconds
    (i =   7 of   7)         41 seconds

    Disp220 (T)         =    -0.000147479373 [Eh]

    (i =   1 of   7)          6 seconds
    (i =   2 of   7)         12 seconds
    (i =   3 of   7)         17 seconds
    (i =   4 of   7)         23 seconds
    (i =   5 of   7)         28 seconds
    (i =   6 of   7)         33 seconds
    (i =   7 of   7)         39 seconds

    Disp202 (T)         =    -0.000138291114 [Eh]

    Disp22 (T)          =    -0.000285770487 [Eh]

    Est. Disp220 (T)    =    -0.000164602960 [Eh]
    Est. Disp202 (T)    =    -0.000154347868 [Eh]

    Est. Disp22 (T)     =    -0.000318950828 [Eh]

    SAPT Results 
  --------------------------------------------------------------------------------------------------------
    Electrostatics                 -5.21143843 [mEh]      -3.27022699 [kcal/mol]     -13.68262972 [kJ/mol]
      Elst10,r                     -5.41443277 [mEh]      -3.39760786 [kcal/mol]     -14.21559129 [kJ/mol]
      Elst12,r                      0.20299434 [mEh]       0.12738087 [kcal/mol]       0.53296158 [kJ/mol]

    Exchange                        1.80504882 [mEh]       1.13268524 [kcal/mol]       4.73915503 [kJ/mol]
      Exch10                        1.42114901 [mEh]       0.89178447 [kcal/mol]       3.73122622 [kJ/mol]
      Exch10(S^2)                   1.41954680 [mEh]       0.89077906 [kcal/mol]       3.72701961 [kJ/mol]
      Exch11(S^2)                   0.00426076 [mEh]       0.00267367 [kcal/mol]       0.01118663 [kJ/mol]
      Exch12(S^2)                   0.37963905 [mEh]       0.23822710 [kcal/mol]       0.99674218 [kJ/mol]

    Induction                      -0.86119096 [mEh]      -0.54040548 [kcal/mol]      -2.26105655 [kJ/mol]
      Ind20,r                      -0.85838725 [mEh]      -0.53864613 [kcal/mol]      -2.25369540 [kJ/mol]
      Ind22                        -0.12578383 [mEh]      -0.07893055 [kcal/mol]      -0.33024541 [kJ/mol]
      Exch-Ind20,r                  0.28168445 [mEh]       0.17675966 [kcal/mol]       0.73956242 [kJ/mol]
      Exch-Ind22                    0.04127665 [mEh]       0.02590149 [kcal/mol]       0.10837183 [kJ/mol]
      delta HF,r (2)               -0.19998098 [mEh]      -0.12548996 [kcal/mol]      -0.52504999 [kJ/mol]

    Dispersion                     -1.88039251 [mEh]      -1.17996411 [kcal/mol]      -4.93696985 [kJ/mol]
      Disp20                       -1.73055660 [mEh]      -1.08594066 [kcal/mol]      -4.54357573 [kJ/mol]
      Disp21                        0.06217315 [mEh]       0.03901424 [kcal/mol]       0.16323558 [kJ/mol]
      Disp22 (SDQ)                 -0.02819517 [mEh]      -0.01769274 [kcal/mol]      -0.07402642 [kJ/mol]
      Disp22 (T)                   -0.28577049 [mEh]      -0.17932369 [kcal/mol]      -0.75029031 [kJ/mol]
      Est. Disp22 (T)              -0.31895083 [mEh]      -0.20014467 [kcal/mol]      -0.83740528 [kJ/mol]
      Exch-Disp20                   0.13513694 [mEh]       0.08479971 [kcal/mol]       0.35480200 [kJ/mol]

  Total HF                         -4.76996753 [mEh]      -2.99319982 [kcal/mol]     -12.52354804 [kJ/mol]
  Total SAPT0                      -6.36538719 [mEh]      -3.99434077 [kcal/mol]     -16.71232177 [kJ/mol]
  Total SAPT2                      -5.86300022 [mEh]      -3.67908818 [kcal/mol]     -15.39330496 [kJ/mol]
  Total SAPT2+                     -6.14797308 [mEh]      -3.85791135 [kcal/mol]     -16.14150108 [kJ/mol]

  Special recipe for scaled SAPT0 (see Manual):
    Electrostatics sSAPT0          -5.41443277 [mEh]      -3.39760786 [kcal/mol]     -14.21559129 [kJ/mol]
    Exchange sSAPT0                 1.42114901 [mEh]       0.89178447 [kcal/mol]       3.73122622 [kJ/mol]
    Induction sSAPT0               -0.77572890 [mEh]      -0.48677724 [kcal/mol]      -2.03667595 [kJ/mol]
    Dispersion sSAPT0              -1.59496156 [mEh]      -1.00085349 [kcal/mol]      -4.18757100 [kJ/mol]
  Total sSAPT0                     -6.36397422 [mEh]      -3.99345411 [kcal/mol]     -16.70861201 [kJ/mol]
  --------------------------------------------------------------------------------------------------------

*** tstop() called on node62.bme.utexas.edu at Thu Apr 23 22:53:43 2020
Module time:
	user time   =    1123.91 seconds =      18.73 minutes
	system time =      53.39 seconds =       0.89 minutes
	total time  =        159 seconds =       2.65 minutes
Total time:
	user time   =    1256.97 seconds =      20.95 minutes
	system time =      59.68 seconds =       0.99 minutes
	total time  =        180 seconds =       3.00 minutes

    Psi4 stopped on: Thursday, 23 April 2020 10:53PM
    Psi4 wall time for execution: 0:02:59.88

*** Psi4 exiting successfully. Buy a developer a beer!
