    -----------------------------------------------------------------------
          PSI4: An Open-Source Ab Initio Electronic Structure Package
                              PSI 4.0.0-beta4 Driver

    J. M. Turney, A. C. Simmonett, R. M. Parrish, E. G. Hohenstein,
    F. A. Evangelista, J. T. Fermann, B. J. Mintz, L. A. Burns, J. J. Wilke,
    M. L. Abrams, N. J. Russ, M. L. Leininger, C. L. Janssen, E. T. Seidl,
    W. D. Allen, H. F. Schaefer, R. A. King, E. F. Valeev, C. D. Sherrill,
    and T. D. Crawford, WIREs Comput. Mol. Sci., (2011) (doi: 10.1002/wcms.93)

                         Additional Contributions by
    A. E. DePrince, M. Saitow, U. Bozkaya, A. Yu. Sokolov
    -----------------------------------------------------------------------

    Process ID:  12583
    PSI4DATADIR: /home/xzhu216/psi4/psi4-install/share/psi

    Using LocalCommunicator (Number of processes = 1)

    Memory level set to 256.000 MB

  ==> Input File <==

--------------------------------------------------------------------------
#psi4
#
memory 3 gb

molecule MeOH_MeOH {
0 1
O   -0.636134928  -0.023282411   0.280599321
H    0.308097372  -0.047078748   0.076463691
C   -1.152065407  -1.311287783   0.015259549
H   -2.209945023  -1.296265392   0.263955863
H   -1.056610240  -1.592670859  -1.036190606
H   -0.674835746  -2.086272765   0.620511449
--
0 1
O    2.048029160  -0.115715786  -0.004542305
H    2.516818470   0.498668738  -0.574208259
C    2.556863086   0.041303152   1.317175019
H    2.003294006  -0.646893275   1.947305899
H    3.615859188  -0.209135747   1.373898160
H    2.404423448   1.051997205   1.695067565
units angstrom
no_reorient  #important for SAPT in psi4, default
symmetry c1  #important for SAPT in psi4, default
}

set {
basis aug-cc-pVTZ
scf_type DF
freeze_core True
}
energy('sapt2+')
--------------------------------------------------------------------------

  Memory set to   3.000 GiB by Python script.

  //>>>>>>>>>>>>>>>>>>>>>>>>>>>>>>>>>>>//
  //              Dimer HF             //
  //<<<<<<<<<<<<<<<<<<<<<<<<<<<<<<<<<<<//


  No DF_BASIS_SCF auxiliary basis selected, defaulting to aug-cc-pvtz-jkfit


*** tstart() called on node116.bme.utexas.edu
*** at Fri Sep 20 14:15:18 2013


         ---------------------------------------------------------
                                   SCF
            by Justin Turney, Rob Parrish, and Andy Simmonett
                              RHF Reference
                        4 Threads,   3000 MiB Core
         ---------------------------------------------------------

  ==> Geometry <==

    Molecular point group: c1
    Full point group: C1

    Geometry (in Angstrom), charge = 0, multiplicity = 1:

       Center              X                  Y                   Z       
    ------------   -----------------  -----------------  -----------------
           O         -1.360570362715     0.317447751568    -0.106672442988
           H         -0.416338062715     0.293651414568    -0.310808072988
           C         -1.876500841715    -0.970557620432    -0.372012214988
           H         -2.934380457715    -0.955535229432    -0.123315900988
           H         -1.781045674715    -1.251940696432    -1.423462369988
           H         -1.399271180715    -1.745542602432     0.233239685012
           O          1.323593725285     0.225014376568    -0.391814068988
           H          1.792383035285     0.839398900568    -0.961480022988
           C          1.832427651285     0.382033314568     0.929903255012
           H          1.278858571285    -0.306163112432     1.560034135012
           H          2.891423753285     0.131594415568     0.986626396012
           H          1.679988013285     1.392727367568     1.307795801012

  Running in c1 symmetry.

  Nuclear repulsion =  131.830132534212623

  Charge       = 0
  Multiplicity = 1
  Electrons    = 36
  Nalpha       = 18
  Nbeta        = 18

  ==> Algorithm <==

  SCF Algorithm Type is DF.
  DIIS enabled.
  MOM disabled.
  Fractional occupation disabled.
  Guess Type is CORE.
  Energy threshold   = 1.00e-08
  Density threshold  = 1.00e-08
  Integral threshold = 0.00e+00

  ==> Primary Basis <==

  Basis Set: AUG-CC-PVTZ
    Number of shells: 128
    Number of basis function: 368
    Number of Cartesian functions: 420
    Spherical Harmonics?: true
    Max angular momentum: 3

  ==> Pre-Iterations <==

   -------------------------------------------------------
    Irrep   Nso     Nmo     Nalpha   Nbeta   Ndocc  Nsocc
   -------------------------------------------------------
     A        368     368       0       0       0       0
   -------------------------------------------------------
    Total     368     368      18      18      18       0
   -------------------------------------------------------

 OEINTS: Wrapper to libmints.
   by Justin Turney

   Calculation information:
      Number of atoms:                  12
      Number of AO shells:             128
      Number of SO shells:             128
      Number of primitives:            208
      Number of atomic orbitals:       420
      Number of basis functions:       368

      Number of irreps:                  1
      Number of functions per irrep: [ 368 ]

      Overlap, kinetic, potential, dipole, and quadrupole integrals
        stored in file 35.

  ==> Integral Setup <==

  ==> DFJK: Density-Fitted J/K Matrices <==

    J tasked:                  Yes
    K tasked:                  Yes
    wK tasked:                  No
    OpenMP threads:              4
    Integrals threads:           4
    Memory (MB):              2145
    Algorithm:                Core
    Integral Cache:           SAVE
    Schwarz Cutoff:          0E+00
    Fitting Condition:       1E-12

   => Auxiliary Basis Set <=

  Basis Set: aug-cc-pvtz-jkfit
    Number of shells: 232
    Number of basis function: 784
    Number of Cartesian functions: 964
    Spherical Harmonics?: true
    Max angular momentum: 4

  Minimum eigenvalue in the overlap matrix is 4.3579595026E-05.
  Using Symmetric Orthogonalization.
  SCF Guess: Core (One-Electron) Hamiltonian.

  Guess energy:  -185.75165213887936

  ==> Iterations <==

                        Total Energy        Delta E     RMS |[F,P]|

   @RHF iter   1:  -178.86509550434124   -1.78865e+02   3.61512e-02 
   @RHF iter   2:  -170.37305119027218    8.49204e+00   1.34184e-02 DIIS
   @RHF iter   3:  -202.10727173481473   -3.17342e+01   2.12634e-02 DIIS
   @RHF iter   4:  -215.44245026201475   -1.33352e+01   1.48319e-02 DIIS
   @RHF iter   5:  -215.82796112944493   -3.85511e-01   1.19799e-02 DIIS
   @RHF iter   6:  -223.72746218478125   -7.89950e+00   8.57461e-03 DIIS
   @RHF iter   7:  -229.57164997471659   -5.84419e+00   3.05558e-03 DIIS
   @RHF iter   8:  -230.06060490709126   -4.88955e-01   1.25041e-03 DIIS
   @RHF iter   9:  -230.17629655703519   -1.15692e-01   3.72008e-04 DIIS
   @RHF iter  10:  -230.18679492147476   -1.04984e-02   1.30905e-04 DIIS
   @RHF iter  11:  -230.18764438436847   -8.49463e-04   3.18783e-05 DIIS
   @RHF iter  12:  -230.18775771648092   -1.13332e-04   7.25891e-06 DIIS
   @RHF iter  13:  -230.18776627413229   -8.55765e-06   1.82905e-06 DIIS
   @RHF iter  14:  -230.18776673752365   -4.63391e-07   7.08312e-07 DIIS
   @RHF iter  15:  -230.18776678334729   -4.58236e-08   1.73981e-07 DIIS
   @RHF iter  16:  -230.18776678682832   -3.48103e-09   4.18184e-08 DIIS
   @RHF iter  17:  -230.18776678706939   -2.41073e-10   1.06777e-08 DIIS
   @RHF iter  18:  -230.18776678708304   -1.36424e-11   2.79244e-09 DIIS

  ==> Post-Iterations <==

	Orbital Energies (a.u.)
	-----------------------

	Doubly Occupied:                                                      

	   1A    -20.586355     2A    -20.521067     3A    -11.285897  
	   4A    -11.248580     5A     -1.388238     6A     -1.326557  
	   7A     -0.945291     8A     -0.902178     9A     -0.723994  
	  10A     -0.675029    11A     -0.636307    12A     -0.611453  
	  13A     -0.595485    14A     -0.567572    15A     -0.530474  
	  16A     -0.487821    17A     -0.463235    18A     -0.421374  

	Virtual:                                                              

	  19A      0.024204    20A      0.038976    21A      0.041319  
	  22A      0.044438    23A      0.057095    24A      0.059810  
	  25A      0.066206    26A      0.083194    27A      0.104311  
	  28A      0.116739    29A      0.121514    30A      0.130566  
	  31A      0.134530    32A      0.147601    33A      0.150191  
	  34A      0.157565    35A      0.163733    36A      0.172523  
	  37A      0.192946    38A      0.196985    39A      0.212518  
	  40A      0.233670    41A      0.236789    42A      0.248667  
	  43A      0.258506    44A      0.263607    45A      0.284223  
	  46A      0.293947    47A      0.300438    48A      0.304742  
	  49A      0.312553    50A      0.318602    51A      0.323004  
	  52A      0.337850    53A      0.341094    54A      0.344916  
	  55A      0.353324    56A      0.358493    57A      0.371080  
	  58A      0.375226    59A      0.387119    60A      0.392686  
	  61A      0.398186    62A      0.407616    63A      0.411478  
	  64A      0.423607    65A      0.433590    66A      0.437058  
	  67A      0.440238    68A      0.442089    69A      0.446580  
	  70A      0.456381    71A      0.464643    72A      0.475358  
	  73A      0.481943    74A      0.489359    75A      0.501485  
	  76A      0.512145    77A      0.516539    78A      0.522582  
	  79A      0.531535    80A      0.546361    81A      0.548604  
	  82A      0.555896    83A      0.573786    84A      0.583306  
	  85A      0.612597    86A      0.652029    87A      0.660986  
	  88A      0.675329    89A      0.712302    90A      0.723923  
	  91A      0.743699    92A      0.765904    93A      0.769256  
	  94A      0.781453    95A      0.791113    96A      0.797965  
	  97A      0.802100    98A      0.815491    99A      0.825972  
	 100A      0.833517   101A      0.841858   102A      0.876251  
	 103A      0.879312   104A      0.889335   105A      0.901593  
	 106A      0.908656   107A      0.913272   108A      0.928858  
	 109A      0.936315   110A      0.947281   111A      0.952186  
	 112A      0.966396   113A      0.968726   114A      0.982373  
	 115A      0.991022   116A      0.996197   117A      1.008530  
	 118A      1.016106   119A      1.022812   120A      1.040836  
	 121A      1.046177   122A      1.053415   123A      1.066922  
	 124A      1.083110   125A      1.088390   126A      1.102472  
	 127A      1.109392   128A      1.114452   129A      1.123295  
	 130A      1.142062   131A      1.145586   132A      1.150986  
	 133A      1.163217   134A      1.172593   135A      1.175907  
	 136A      1.188026   137A      1.193551   138A      1.203963  
	 139A      1.209869   140A      1.233854   141A      1.265068  
	 142A      1.269569   143A      1.276788   144A      1.288706  
	 145A      1.300744   146A      1.328094   147A      1.329113  
	 148A      1.353659   149A      1.373769   150A      1.377952  
	 151A      1.387904   152A      1.421053   153A      1.431799  
	 154A      1.450069   155A      1.458132   156A      1.486099  
	 157A      1.514653   158A      1.530719   159A      1.548352  
	 160A      1.567234   161A      1.580113   162A      1.594333  
	 163A      1.617295   164A      1.626885   165A      1.629574  
	 166A      1.642724   167A      1.648943   168A      1.658098  
	 169A      1.680890   170A      1.689719   171A      1.700881  
	 172A      1.710060   173A      1.722253   174A      1.728186  
	 175A      1.736920   176A      1.755706   177A      1.765317  
	 178A      1.788429   179A      1.796656   180A      1.819260  
	 181A      1.838316   182A      1.862214   183A      1.888502  
	 184A      1.922299   185A      1.953732   186A      1.967261  
	 187A      1.982281   188A      2.002986   189A      2.014554  
	 190A      2.030842   191A      2.044749   192A      2.057254  
	 193A      2.071934   194A      2.102480   195A      2.131733  
	 196A      2.154853   197A      2.164875   198A      2.186143  
	 199A      2.202123   200A      2.211125   201A      2.240052  
	 202A      2.247437   203A      2.252716   204A      2.376736  
	 205A      2.439411   206A      2.478751   207A      2.516429  
	 208A      2.557091   209A      2.581376   210A      2.589595  
	 211A      2.636129   212A      2.667365   213A      2.680073  
	 214A      2.702822   215A      2.756476   216A      2.775772  
	 217A      2.784803   218A      2.827697   219A      2.849148  
	 220A      2.862990   221A      2.884467   222A      2.928245  
	 223A      2.935842   224A      2.975927   225A      2.991475  
	 226A      3.010180   227A      3.054592   228A      3.090349  
	 229A      3.140770   230A      3.184409   231A      3.242776  
	 232A      3.269688   233A      3.303626   234A      3.362424  
	 235A      3.379291   236A      3.401970   237A      3.425244  
	 238A      3.439221   239A      3.559461   240A      3.587498  
	 241A      3.591880   242A      3.613571   243A      3.633853  
	 244A      3.663949   245A      3.672972   246A      3.689957  
	 247A      3.697177   248A      3.732383   249A      3.740510  
	 250A      3.785022   251A      3.862678   252A      3.880579  
	 253A      3.899633   254A      3.904930   255A      3.937639  
	 256A      3.945802   257A      3.971923   258A      3.994435  
	 259A      4.027804   260A      4.056357   261A      4.073551  
	 262A      4.095689   263A      4.109822   264A      4.122721  
	 265A      4.138603   266A      4.148893   267A      4.155994  
	 268A      4.195683   269A      4.234622   270A      4.252552  
	 271A      4.277835   272A      4.285583   273A      4.293834  
	 274A      4.305787   275A      4.340774   276A      4.358173  
	 277A      4.365433   278A      4.480830   279A      4.523676  
	 280A      4.556346   281A      4.579744   282A      4.594888  
	 283A      4.603638   284A      4.623833   285A      4.643494  
	 286A      4.656108   287A      4.688093   288A      4.709239  
	 289A      4.739632   290A      4.759007   291A      4.781567  
	 292A      4.797445   293A      4.806713   294A      4.824965  
	 295A      4.845388   296A      4.876962   297A      4.948998  
	 298A      4.988675   299A      5.015293   300A      5.034158  
	 301A      5.052491   302A      5.054516   303A      5.075002  
	 304A      5.106006   305A      5.140673   306A      5.164704  
	 307A      5.184228   308A      5.249430   309A      5.267393  
	 310A      5.280668   311A      5.329785   312A      5.366914  
	 313A      5.457406   314A      5.483669   315A      5.536547  
	 316A      5.548607   317A      5.564177   318A      5.599640  
	 319A      5.610909   320A      5.635519   321A      5.646945  
	 322A      5.672822   323A      5.728991   324A      5.747334  
	 325A      5.787247   326A      5.866742   327A      6.113040  
	 328A      6.120686   329A      6.143585   330A      6.164516  
	 331A      6.195422   332A      6.233253   333A      6.262616  
	 334A      6.343486   335A      6.619729   336A      6.641343  
	 337A      6.660454   338A      6.680765   339A      6.690379  
	 340A      6.715597   341A      6.955765   342A      6.987529  
	 343A      7.041452   344A      7.092949   345A      7.132278  
	 346A      7.139671   347A      7.266912   348A      7.314413  
	 349A      7.431395   350A      7.457522   351A      7.476652  
	 352A      7.526934   353A      7.575692   354A      7.609493  
	 355A      7.640758   356A      7.664609   357A      7.818851  
	 358A      7.875587   359A      8.018080   360A      8.078962  
	 361A      8.178448   362A      8.290083   363A      8.577088  
	 364A      8.777407   365A     15.991538   366A     16.904957  
	 367A     17.786273   368A     18.048503  

	Final Occupation by Irrep:
	          A 
	DOCC [    18 ]

  Energy converged.

  @RHF Final Energy:  -230.18776678708304

   => Energetics <=

    Nuclear Repulsion Energy =            131.8301325342126233
    One-Electron Energy =                -576.2019869806941870
    Two-Electron Energy =                 214.1840876593985854
    DFT Exchange-Correlation Energy =       0.0000000000000000
    Empirical Dispersion Energy =           0.0000000000000000
    Total Energy =                       -230.1877667870829782



Properties will be evaluated at   0.000000,   0.000000,   0.000000 Bohr
  ==> Properties <==


Properties computed using the SCF density density matrix
  Nuclear Dipole Moment: (a.u.)
     X:     1.0419      Y:    -1.4990      Z:     1.1869

  Electronic Dipole Moment: (a.u.)
     X:     0.1825      Y:     1.4789      Z:    -1.1662

  Dipole Moment: (a.u.)
     X:     1.2244      Y:    -0.0201      Z:     0.0207     Total:     1.2247

  Dipole Moment: (Debye)
     X:     3.1121      Y:    -0.0512      Z:     0.0525     Total:     3.1130


  Saving occupied orbitals to File 180.

  Saving SAPT 2-DIMER file.

*** tstop() called on node116.bme.utexas.edu at Fri Sep 20 14:16:02 2013
Module time:
	user time   =     166.40 seconds =       2.77 minutes
	system time =       1.98 seconds =       0.03 minutes
	total time  =         44 seconds =       0.73 minutes
Total time:
	user time   =     166.40 seconds =       2.77 minutes
	system time =       1.98 seconds =       0.03 minutes
	total time  =         44 seconds =       0.73 minutes

  //>>>>>>>>>>>>>>>>>>>>>>>>>>>>>>>>>>>//
  //            Monomer A HF           //
  //<<<<<<<<<<<<<<<<<<<<<<<<<<<<<<<<<<<//


  No DF_BASIS_SCF auxiliary basis selected, defaulting to aug-cc-pvtz-jkfit


*** tstart() called on node116.bme.utexas.edu
*** at Fri Sep 20 14:16:02 2013


         ---------------------------------------------------------
                                   SCF
            by Justin Turney, Rob Parrish, and Andy Simmonett
                              RHF Reference
                        4 Threads,   3000 MiB Core
         ---------------------------------------------------------

  ==> Geometry <==

    Molecular point group: c1
    Full point group: C1

    Geometry (in Angstrom), charge = 0, multiplicity = 1:

       Center              X                  Y                   Z       
    ------------   -----------------  -----------------  -----------------
           O         -1.360570362715     0.317447751568    -0.106672442988
           H         -0.416338062715     0.293651414568    -0.310808072988
           C         -1.876500841715    -0.970557620432    -0.372012214988
           H         -2.934380457715    -0.955535229432    -0.123315900988
           H         -1.781045674715    -1.251940696432    -1.423462369988
           H         -1.399271180715    -1.745542602432     0.233239685012
           O(Gh)      1.323593725285     0.225014376568    -0.391814068988
           H(Gh)      1.792383035285     0.839398900568    -0.961480022988
           C(Gh)      1.832427651285     0.382033314568     0.929903255012
           H(Gh)      1.278858571285    -0.306163112432     1.560034135012
           H(Gh)      2.891423753285     0.131594415568     0.986626396012
           H(Gh)      1.679988013285     1.392727367568     1.307795801012

  Running in c1 symmetry.

  Nuclear repulsion =   40.417312680274492

  Charge       = 0
  Multiplicity = 1
  Electrons    = 18
  Nalpha       = 9
  Nbeta        = 9

  ==> Algorithm <==

  SCF Algorithm Type is DF.
  DIIS enabled.
  MOM disabled.
  Fractional occupation disabled.
  Guess Type is CORE.
  Energy threshold   = 1.00e-08
  Density threshold  = 1.00e-08
  Integral threshold = 0.00e+00

  ==> Primary Basis <==

  Basis Set: AUG-CC-PVTZ
    Number of shells: 128
    Number of basis function: 368
    Number of Cartesian functions: 420
    Spherical Harmonics?: true
    Max angular momentum: 3

  ==> Pre-Iterations <==

   -------------------------------------------------------
    Irrep   Nso     Nmo     Nalpha   Nbeta   Ndocc  Nsocc
   -------------------------------------------------------
     A        368     368       0       0       0       0
   -------------------------------------------------------
    Total     368     368       9       9       9       0
   -------------------------------------------------------

 OEINTS: Wrapper to libmints.
   by Justin Turney

   Calculation information:
      Number of atoms:                  12
      Number of AO shells:             128
      Number of SO shells:             128
      Number of primitives:            208
      Number of atomic orbitals:       420
      Number of basis functions:       368

      Number of irreps:                  1
      Number of functions per irrep: [ 368 ]

      Overlap, kinetic, potential, dipole, and quadrupole integrals
        stored in file 35.

  ==> Integral Setup <==

  ==> DFJK: Density-Fitted J/K Matrices <==

    J tasked:                  Yes
    K tasked:                  Yes
    wK tasked:                  No
    OpenMP threads:              4
    Integrals threads:           4
    Memory (MB):              2145
    Algorithm:                Core
    Integral Cache:           LOAD
    Schwarz Cutoff:          0E+00
    Fitting Condition:       1E-12

   => Auxiliary Basis Set <=

  Basis Set: aug-cc-pvtz-jkfit
    Number of shells: 232
    Number of basis function: 784
    Number of Cartesian functions: 964
    Spherical Harmonics?: true
    Max angular momentum: 4

  Minimum eigenvalue in the overlap matrix is 4.3579595026E-05.
  Using Symmetric Orthogonalization.
  SCF Guess: Core (One-Electron) Hamiltonian.

  Guess energy:   -92.19974612310396

  ==> Iterations <==

                        Total Energy        Delta E     RMS |[F,P]|

   @RHF iter   1:   -89.40263272624018   -8.94026e+01   2.56253e-02 
   @RHF iter   2:   -88.87714004884846    5.25493e-01   8.70190e-03 DIIS
   @RHF iter   3:  -105.00156362720223   -1.61244e+01   1.39162e-02 DIIS
   @RHF iter   4:  -109.94389316744390   -4.94233e+00   9.80994e-03 DIIS
   @RHF iter   5:  -112.95167155241866   -3.00778e+00   6.16125e-03 DIIS
   @RHF iter   6:  -114.85174133484527   -1.90007e+00   1.82948e-03 DIIS
   @RHF iter   7:  -115.06829197723472   -2.16551e-01   6.17122e-04 DIIS
   @RHF iter   8:  -115.09097985104198   -2.26879e-02   1.36534e-04 DIIS
   @RHF iter   9:  -115.09187087982882   -8.91029e-04   1.65171e-05 DIIS
   @RHF iter  10:  -115.09190431801373   -3.34382e-05   2.98384e-06 DIIS
   @RHF iter  11:  -115.09190574154594   -1.42353e-06   7.20910e-07 DIIS
   @RHF iter  12:  -115.09190582887594   -8.73300e-08   1.54932e-07 DIIS
   @RHF iter  13:  -115.09190583349088   -4.61495e-09   3.08956e-08 DIIS
   @RHF iter  14:  -115.09190583364271   -1.51829e-10   8.32300e-09 DIIS

  ==> Post-Iterations <==

	Orbital Energies (a.u.)
	-----------------------

	Doubly Occupied:                                                      

	   1A    -20.561029     2A    -11.270282     3A     -1.360203  
	   4A     -0.925128     5A     -0.692389     6A     -0.620821  
	   7A     -0.595532     8A     -0.504255     9A     -0.451162  

	Virtual:                                                              

	  10A      0.020462    11A      0.036416    12A      0.039965  
	  13A      0.044607    14A      0.054291    15A      0.058870  
	  16A      0.063285    17A      0.082498    18A      0.088344  
	  19A      0.107474    20A      0.115405    21A      0.120933  
	  22A      0.129377    23A      0.134396    24A      0.138127  
	  25A      0.145541    26A      0.157101    27A      0.166047  
	  28A      0.190346    29A      0.196654    30A      0.205126  
	  31A      0.221698    32A      0.232720    33A      0.241702  
	  34A      0.257761    35A      0.263096    36A      0.279212  
	  37A      0.285596    38A      0.292415    39A      0.297644  
	  40A      0.304347    41A      0.308408    42A      0.316511  
	  43A      0.320616    44A      0.331053    45A      0.337505  
	  46A      0.343347    47A      0.346318    48A      0.354979  
	  49A      0.363382    50A      0.371378    51A      0.383293  
	  52A      0.392388    53A      0.398628    54A      0.411594  
	  55A      0.416732    56A      0.420082    57A      0.430639  
	  58A      0.439237    59A      0.446536    60A      0.451782  
	  61A      0.462984    62A      0.463734    63A      0.473498  
	  64A      0.479167    65A      0.486989    66A      0.493068  
	  67A      0.518304    68A      0.522343    69A      0.529460  
	  70A      0.546694    71A      0.550126    72A      0.557094  
	  73A      0.561186    74A      0.580668    75A      0.585842  
	  76A      0.619532    77A      0.640444    78A      0.651900  
	  79A      0.663407    80A      0.678730    81A      0.701549  
	  82A      0.712751    83A      0.753941    84A      0.768845  
	  85A      0.786867    86A      0.797764    87A      0.803037  
	  88A      0.813289    89A      0.827439    90A      0.836582  
	  91A      0.855667    92A      0.864101    93A      0.883393  
	  94A      0.895922    95A      0.903551    96A      0.909579  
	  97A      0.919470    98A      0.936712    99A      0.948529  
	 100A      0.953531   101A      0.970186   102A      0.983900  
	 103A      0.989594   104A      0.991481   105A      0.999585  
	 106A      1.007272   107A      1.024116   108A      1.034489  
	 109A      1.046031   110A      1.048363   111A      1.058052  
	 112A      1.068625   113A      1.078367   114A      1.082696  
	 115A      1.088824   116A      1.089706   117A      1.111066  
	 118A      1.118543   119A      1.134981   120A      1.145488  
	 121A      1.148836   122A      1.159079   123A      1.176185  
	 124A      1.178042   125A      1.183978   126A      1.189833  
	 127A      1.202062   128A      1.213855   129A      1.216308  
	 130A      1.221543   131A      1.229946   132A      1.241454  
	 133A      1.270346   134A      1.294048   135A      1.294972  
	 136A      1.307003   137A      1.315903   138A      1.334390  
	 139A      1.342012   140A      1.351453   141A      1.367741  
	 142A      1.391386   143A      1.409406   144A      1.422628  
	 145A      1.435708   146A      1.444781   147A      1.470988  
	 148A      1.478545   149A      1.507289   150A      1.538712  
	 151A      1.567822   152A      1.575882   153A      1.601629  
	 154A      1.617206   155A      1.628005   156A      1.631232  
	 157A      1.657325   158A      1.664812   159A      1.683912  
	 160A      1.695943   161A      1.701671   162A      1.706191  
	 163A      1.722862   164A      1.769200   165A      1.783072  
	 166A      1.791252   167A      1.807366   168A      1.819165  
	 169A      1.836166   170A      1.844529   171A      1.881227  
	 172A      1.888583   173A      1.894004   174A      1.919087  
	 175A      1.928304   176A      1.954360   177A      1.979244  
	 178A      1.994501   179A      2.021191   180A      2.035643  
	 181A      2.040650   182A      2.055052   183A      2.083046  
	 184A      2.118118   185A      2.145611   186A      2.166508  
	 187A      2.179826   188A      2.211158   189A      2.219418  
	 190A      2.243041   191A      2.257116   192A      2.282561  
	 193A      2.339957   194A      2.368277   195A      2.407484  
	 196A      2.428024   197A      2.442318   198A      2.507030  
	 199A      2.543864   200A      2.570726   201A      2.614104  
	 202A      2.626327   203A      2.662635   204A      2.687885  
	 205A      2.710355   206A      2.728237   207A      2.760325  
	 208A      2.796855   209A      2.837574   210A      2.852351  
	 211A      2.867891   212A      2.903722   213A      2.935359  
	 214A      2.949234   215A      2.985655   216A      3.008564  
	 217A      3.052473   218A      3.068099   219A      3.120532  
	 220A      3.153459   221A      3.172613   222A      3.230760  
	 223A      3.275800   224A      3.330363   225A      3.362147  
	 226A      3.377441   227A      3.408276   228A      3.472291  
	 229A      3.492780   230A      3.512321   231A      3.575742  
	 232A      3.602449   233A      3.620628   234A      3.626908  
	 235A      3.671288   236A      3.699176   237A      3.759301  
	 238A      3.773020   239A      3.864608   240A      3.873900  
	 241A      3.917301   242A      3.937731   243A      3.973266  
	 244A      3.992639   245A      4.035355   246A      4.076674  
	 247A      4.098415   248A      4.109912   249A      4.121044  
	 250A      4.149711   251A      4.162137   252A      4.183885  
	 253A      4.205691   254A      4.242084   255A      4.271342  
	 256A      4.292108   257A      4.328971   258A      4.333996  
	 259A      4.367372   260A      4.437526   261A      4.463401  
	 262A      4.492546   263A      4.511702   264A      4.522309  
	 265A      4.549732   266A      4.558388   267A      4.568848  
	 268A      4.594014   269A      4.602848   270A      4.625951  
	 271A      4.686597   272A      4.714023   273A      4.715368  
	 274A      4.764412   275A      4.782209   276A      4.800214  
	 277A      4.806757   278A      4.825434   279A      4.846273  
	 280A      4.909477   281A      4.924614   282A      4.966326  
	 283A      4.997175   284A      5.024392   285A      5.031579  
	 286A      5.057743   287A      5.063457   288A      5.092067  
	 289A      5.120751   290A      5.140770   291A      5.162486  
	 292A      5.229998   293A      5.269146   294A      5.285546  
	 295A      5.323898   296A      5.341971   297A      5.385417  
	 298A      5.395424   299A      5.409936   300A      5.486350  
	 301A      5.493399   302A      5.516468   303A      5.556726  
	 304A      5.569902   305A      5.607176   306A      5.626322  
	 307A      5.650459   308A      5.697624   309A      5.714860  
	 310A      5.749237   311A      5.793907   312A      5.851078  
	 313A      5.912651   314A      6.116015   315A      6.122932  
	 316A      6.155019   317A      6.207243   318A      6.229665  
	 319A      6.231180   320A      6.264043   321A      6.304718  
	 322A      6.427292   323A      6.564527   324A      6.638990  
	 325A      6.661324   326A      6.676974   327A      6.771744  
	 328A      6.789804   329A      6.953291   330A      6.972334  
	 331A      7.095095   332A      7.116572   333A      7.286018  
	 334A      7.390350   335A      7.408025   336A      7.507488  
	 337A      7.526069   338A      7.596987   339A      7.748262  
	 340A      7.777163   341A      7.808675   342A      7.853254  
	 343A      7.912478   344A      7.992878   345A      8.058922  
	 346A      8.118139   347A      8.156348   348A      8.175853  
	 349A      8.257835   350A      8.279452   351A      8.437888  
	 352A      8.567363   353A      8.642713   354A      8.813879  
	 355A      9.918246   356A     10.126365   357A     10.339989  
	 358A     10.421461   359A     10.702233   360A     10.968244  
	 361A     11.913606   362A     12.423086   363A     13.189157  
	 364A     13.999638   365A     16.697440   366A     17.853040  
	 367A     53.015076   368A     66.302510  

	Final Occupation by Irrep:
	          A 
	DOCC [     9 ]

  Energy converged.

  @RHF Final Energy:  -115.09190583364271

   => Energetics <=

    Nuclear Repulsion Energy =             40.4173126802744918
    One-Electron Energy =                -237.0568446747110727
    Two-Electron Energy =                  81.5476261607943798
    DFT Exchange-Correlation Energy =       0.0000000000000000
    Empirical Dispersion Energy =           0.0000000000000000
    Total Energy =                       -115.0919058336422154



Properties will be evaluated at   0.000000,   0.000000,   0.000000 Bohr
  ==> Properties <==


Properties computed using the SCF density density matrix
  Nuclear Dipole Moment: (a.u.)
     X:   -54.1871      Y:   -13.1206      Z:    -8.9002

  Electronic Dipole Moment: (a.u.)
     X:    54.5544      Y:    12.5618      Z:     8.6621

  Dipole Moment: (a.u.)
     X:     0.3672      Y:    -0.5588      Z:    -0.2381     Total:     0.7098

  Dipole Moment: (Debye)
     X:     0.9334      Y:    -1.4204      Z:    -0.6053     Total:     1.8042


  Saving occupied orbitals to File 180.

  Saving SAPT 2-MONOMER_A file.

*** tstop() called on node116.bme.utexas.edu at Fri Sep 20 14:16:31 2013
Module time:
	user time   =     105.95 seconds =       1.77 minutes
	system time =       1.09 seconds =       0.02 minutes
	total time  =         29 seconds =       0.48 minutes
Total time:
	user time   =     272.37 seconds =       4.54 minutes
	system time =       3.07 seconds =       0.05 minutes
	total time  =         73 seconds =       1.22 minutes

  //>>>>>>>>>>>>>>>>>>>>>>>>>>>>>>>>>>>//
  //            Monomer B HF           //
  //<<<<<<<<<<<<<<<<<<<<<<<<<<<<<<<<<<<//


  No DF_BASIS_SCF auxiliary basis selected, defaulting to aug-cc-pvtz-jkfit


*** tstart() called on node116.bme.utexas.edu
*** at Fri Sep 20 14:16:31 2013


         ---------------------------------------------------------
                                   SCF
            by Justin Turney, Rob Parrish, and Andy Simmonett
                              RHF Reference
                        4 Threads,   3000 MiB Core
         ---------------------------------------------------------

  ==> Geometry <==

    Molecular point group: c1
    Full point group: C1

    Geometry (in Angstrom), charge = 0, multiplicity = 1:

       Center              X                  Y                   Z       
    ------------   -----------------  -----------------  -----------------
           O(Gh)     -1.360570362715     0.317447751568    -0.106672442988
           H(Gh)     -0.416338062715     0.293651414568    -0.310808072988
           C(Gh)     -1.876500841715    -0.970557620432    -0.372012214988
           H(Gh)     -2.934380457715    -0.955535229432    -0.123315900988
           H(Gh)     -1.781045674715    -1.251940696432    -1.423462369988
           H(Gh)     -1.399271180715    -1.745542602432     0.233239685012
           O          1.323593725285     0.225014376568    -0.391814068988
           H          1.792383035285     0.839398900568    -0.961480022988
           C          1.832427651285     0.382033314568     0.929903255012
           H          1.278858571285    -0.306163112432     1.560034135012
           H          2.891423753285     0.131594415568     0.986626396012
           H          1.679988013285     1.392727367568     1.307795801012

  Running in c1 symmetry.

  Nuclear repulsion =   40.298063714174901

  Charge       = 0
  Multiplicity = 1
  Electrons    = 18
  Nalpha       = 9
  Nbeta        = 9

  ==> Algorithm <==

  SCF Algorithm Type is DF.
  DIIS enabled.
  MOM disabled.
  Fractional occupation disabled.
  Guess Type is CORE.
  Energy threshold   = 1.00e-08
  Density threshold  = 1.00e-08
  Integral threshold = 0.00e+00

  ==> Primary Basis <==

  Basis Set: AUG-CC-PVTZ
    Number of shells: 128
    Number of basis function: 368
    Number of Cartesian functions: 420
    Spherical Harmonics?: true
    Max angular momentum: 3

  ==> Pre-Iterations <==

   -------------------------------------------------------
    Irrep   Nso     Nmo     Nalpha   Nbeta   Ndocc  Nsocc
   -------------------------------------------------------
     A        368     368       0       0       0       0
   -------------------------------------------------------
    Total     368     368       9       9       9       0
   -------------------------------------------------------

 OEINTS: Wrapper to libmints.
   by Justin Turney

   Calculation information:
      Number of atoms:                  12
      Number of AO shells:             128
      Number of SO shells:             128
      Number of primitives:            208
      Number of atomic orbitals:       420
      Number of basis functions:       368

      Number of irreps:                  1
      Number of functions per irrep: [ 368 ]

      Overlap, kinetic, potential, dipole, and quadrupole integrals
        stored in file 35.

  ==> Integral Setup <==

  ==> DFJK: Density-Fitted J/K Matrices <==

    J tasked:                  Yes
    K tasked:                  Yes
    wK tasked:                  No
    OpenMP threads:              4
    Integrals threads:           4
    Memory (MB):              2145
    Algorithm:                Core
    Integral Cache:           LOAD
    Schwarz Cutoff:          0E+00
    Fitting Condition:       1E-12

   => Auxiliary Basis Set <=

  Basis Set: aug-cc-pvtz-jkfit
    Number of shells: 232
    Number of basis function: 784
    Number of Cartesian functions: 964
    Spherical Harmonics?: true
    Max angular momentum: 4

  Minimum eigenvalue in the overlap matrix is 4.3579595026E-05.
  Using Symmetric Orthogonalization.
  SCF Guess: Core (One-Electron) Hamiltonian.

  Guess energy:   -92.13720706690094

  ==> Iterations <==

                        Total Energy        Delta E     RMS |[F,P]|

   @RHF iter   1:   -89.51525743863422   -8.95153e+01   2.55838e-02 
   @RHF iter   2:   -88.93244150874168    5.82816e-01   8.74254e-03 DIIS
   @RHF iter   3:  -105.12491000094460   -1.61925e+01   1.38506e-02 DIIS
   @RHF iter   4:  -110.06043467025270   -4.93552e+00   9.69194e-03 DIIS
   @RHF iter   5:  -113.06036876333968   -2.99993e+00   5.98242e-03 DIIS
   @RHF iter   6:  -114.88989450731378   -1.82953e+00   1.65482e-03 DIIS
   @RHF iter   7:  -115.07113157587165   -1.81237e-01   5.78422e-04 DIIS
   @RHF iter   8:  -115.09142041616127   -2.02888e-02   1.18903e-04 DIIS
   @RHF iter   9:  -115.09211329783147   -6.92882e-04   1.68389e-05 DIIS
   @RHF iter  10:  -115.09214849504554   -3.51972e-05   3.09780e-06 DIIS
   @RHF iter  11:  -115.09215011214974   -1.61710e-06   7.00723e-07 DIIS
   @RHF iter  12:  -115.09215019583030   -8.36806e-08   1.44042e-07 DIIS
   @RHF iter  13:  -115.09215019975403   -3.92373e-09   2.95002e-08 DIIS
   @RHF iter  14:  -115.09215019989040   -1.36367e-10   7.94462e-09 DIIS

  ==> Post-Iterations <==

	Orbital Energies (a.u.)
	-----------------------

	Doubly Occupied:                                                      

	   1A    -20.558886     2A    -11.270630     3A     -1.356189  
	   4A     -0.926780     5A     -0.690263     6A     -0.621031  
	   7A     -0.592306     8A     -0.505189     9A     -0.452557  

	Virtual:                                                              

	  10A      0.025973    11A      0.035514    12A      0.041197  
	  13A      0.043555    14A      0.056160    15A      0.059957  
	  16A      0.064908    17A      0.077284    18A      0.105717  
	  19A      0.110211    20A      0.116710    21A      0.120873  
	  22A      0.128228    23A      0.134907    24A      0.146658  
	  25A      0.152005    26A      0.166922    27A      0.172947  
	  28A      0.182283    29A      0.199187    30A      0.207059  
	  31A      0.217983    32A      0.232613    33A      0.245261  
	  34A      0.253313    35A      0.270973    36A      0.274146  
	  37A      0.294824    38A      0.296737    39A      0.301062  
	  40A      0.307085    41A      0.310830    42A      0.320268  
	  43A      0.327962    44A      0.333478    45A      0.335801  
	  46A      0.349781    47A      0.352579    48A      0.366087  
	  49A      0.376838    50A      0.384427    51A      0.393281  
	  52A      0.403459    53A      0.413061    54A      0.413498  
	  55A      0.418847    56A      0.428259    57A      0.437473  
	  58A      0.440673    59A      0.446936    60A      0.454499  
	  61A      0.462883    62A      0.467179    63A      0.474679  
	  64A      0.493363    65A      0.500620    66A      0.506591  
	  67A      0.514648    68A      0.519810    69A      0.522933  
	  70A      0.535250    71A      0.550565    72A      0.555136  
	  73A      0.568100    74A      0.592575    75A      0.605652  
	  76A      0.619451    77A      0.648005    78A      0.663553  
	  79A      0.676062    80A      0.689112    81A      0.706199  
	  82A      0.720633    83A      0.737264    84A      0.785981  
	  85A      0.791066    86A      0.797349    87A      0.809864  
	  88A      0.824056    89A      0.846863    90A      0.862470  
	  91A      0.868848    92A      0.882422    93A      0.885729  
	  94A      0.899563    95A      0.909977    96A      0.934188  
	  97A      0.936188    98A      0.946978    99A      0.955452  
	 100A      0.965098   101A      0.975433   102A      0.987299  
	 103A      0.988246   104A      1.002071   105A      1.007724  
	 106A      1.018393   107A      1.035177   108A      1.037491  
	 109A      1.047803   110A      1.051852   111A      1.064656  
	 112A      1.081028   113A      1.082978   114A      1.083919  
	 115A      1.103436   116A      1.111686   117A      1.115806  
	 118A      1.123935   119A      1.132552   120A      1.143285  
	 121A      1.151233   122A      1.158202   123A      1.163976  
	 124A      1.184553   125A      1.187285   126A      1.198456  
	 127A      1.203054   128A      1.215581   129A      1.223752  
	 130A      1.233585   131A      1.238142   132A      1.254371  
	 133A      1.265140   134A      1.287218   135A      1.296300  
	 136A      1.309287   137A      1.325998   138A      1.337068  
	 139A      1.370940   140A      1.379191   141A      1.384692  
	 142A      1.411746   143A      1.427334   144A      1.428514  
	 145A      1.440822   146A      1.447669   147A      1.490039  
	 148A      1.523980   149A      1.542864   150A      1.562791  
	 151A      1.580272   152A      1.589049   153A      1.604515  
	 154A      1.634010   155A      1.657161   156A      1.664432  
	 157A      1.668831   158A      1.681615   159A      1.691811  
	 160A      1.707110   161A      1.713271   162A      1.725238  
	 163A      1.742468   164A      1.770164   165A      1.790183  
	 166A      1.804720   167A      1.823443   168A      1.840523  
	 169A      1.857696   170A      1.880289   171A      1.883049  
	 172A      1.898667   173A      1.914255   174A      1.927497  
	 175A      1.963886   176A      1.967292   177A      2.002688  
	 178A      2.011621   179A      2.056336   180A      2.063287  
	 181A      2.077053   182A      2.104200   183A      2.112173  
	 184A      2.121006   185A      2.145347   186A      2.166651  
	 187A      2.190235   188A      2.213353   189A      2.219212  
	 190A      2.222335   191A      2.270872   192A      2.283980  
	 193A      2.323548   194A      2.341592   195A      2.429645  
	 196A      2.438713   197A      2.487038   198A      2.505742  
	 199A      2.551866   200A      2.595536   201A      2.614227  
	 202A      2.655997   203A      2.667192   204A      2.700165  
	 205A      2.711668   206A      2.742048   207A      2.771230  
	 208A      2.794065   209A      2.823763   210A      2.848933  
	 211A      2.884487   212A      2.912821   213A      2.935180  
	 214A      2.938131   215A      2.975225   216A      3.024213  
	 217A      3.064215   218A      3.068721   219A      3.096842  
	 220A      3.127256   221A      3.185435   222A      3.302671  
	 223A      3.365241   224A      3.385060   225A      3.399094  
	 226A      3.423706   227A      3.467597   228A      3.518122  
	 229A      3.540443   230A      3.578318   231A      3.602365  
	 232A      3.618605   233A      3.654648   234A      3.684692  
	 235A      3.704048   236A      3.726988   237A      3.744607  
	 238A      3.774795   239A      3.869431   240A      3.898607  
	 241A      3.924081   242A      3.975069   243A      4.006668  
	 244A      4.035371   245A      4.055456   246A      4.093633  
	 247A      4.118212   248A      4.125028   249A      4.133719  
	 250A      4.167201   251A      4.177915   252A      4.204520  
	 253A      4.221346   254A      4.224861   255A      4.232227  
	 256A      4.284949   257A      4.329395   258A      4.347036  
	 259A      4.399303   260A      4.447433   261A      4.470015  
	 262A      4.510407   263A      4.515629   264A      4.541876  
	 265A      4.554539   266A      4.565734   267A      4.587896  
	 268A      4.613820   269A      4.625022   270A      4.680961  
	 271A      4.693767   272A      4.717690   273A      4.738156  
	 274A      4.759060   275A      4.787015   276A      4.797155  
	 277A      4.822407   278A      4.837099   279A      4.863994  
	 280A      4.891401   281A      4.938163   282A      4.989468  
	 283A      5.001602   284A      5.034549   285A      5.049273  
	 286A      5.076620   287A      5.103535   288A      5.118582  
	 289A      5.155296   290A      5.174410   291A      5.186502  
	 292A      5.271058   293A      5.296702   294A      5.318833  
	 295A      5.341345   296A      5.363352   297A      5.381776  
	 298A      5.428585   299A      5.461591   300A      5.475434  
	 301A      5.499851   302A      5.506960   303A      5.536999  
	 304A      5.587217   305A      5.603619   306A      5.622316  
	 307A      5.647054   308A      5.688189   309A      5.754369  
	 310A      5.793729   311A      5.858406   312A      5.881890  
	 313A      5.925694   314A      6.100085   315A      6.128845  
	 316A      6.142402   317A      6.179946   318A      6.223925  
	 319A      6.254068   320A      6.281062   321A      6.349054  
	 322A      6.493892   323A      6.550662   324A      6.658506  
	 325A      6.676153   326A      6.706907   327A      6.823098  
	 328A      6.844260   329A      7.037497   330A      7.082778  
	 331A      7.165083   332A      7.191538   333A      7.302413  
	 334A      7.346918   335A      7.435440   336A      7.519211  
	 337A      7.552798   338A      7.620683   339A      7.729726  
	 340A      7.757632   341A      7.835598   342A      7.854494  
	 343A      7.912790   344A      7.930193   345A      8.018101  
	 346A      8.099547   347A      8.134828   348A      8.205950  
	 349A      8.220589   350A      8.269882   351A      8.491926  
	 352A      8.618377   353A      8.686168   354A      9.024111  
	 355A      9.906774   356A     10.087488   357A     10.423259  
	 358A     10.435624   359A     10.644188   360A     11.073547  
	 361A     11.952390   362A     12.450825   363A     13.216797  
	 364A     14.354198   365A     16.292779   366A     17.957380  
	 367A     52.832024   368A     67.185585  

	Final Occupation by Irrep:
	          A 
	DOCC [     9 ]

  Energy converged.

  @RHF Final Energy:  -115.09215019989040

   => Energetics <=

    Nuclear Repulsion Energy =             40.2980637141749014
    One-Electron Energy =                -236.8327761748439571
    Two-Electron Energy =                  81.4425622607785158
    DFT Exchange-Correlation Energy =       0.0000000000000000
    Empirical Dispersion Energy =           0.0000000000000000
    Total Energy =                       -115.0921501998905399



Properties will be evaluated at   0.000000,   0.000000,   0.000000 Bohr
  ==> Properties <==


Properties computed using the SCF density density matrix
  Nuclear Dipole Moment: (a.u.)
     X:    55.2291      Y:    11.6216      Z:    10.0871

  Electronic Dipole Moment: (a.u.)
     X:   -54.7176      Y:   -11.1715      Z:    -9.8674

  Dipole Moment: (a.u.)
     X:     0.5115      Y:     0.4501      Z:     0.2197     Total:     0.7159

  Dipole Moment: (Debye)
     X:     1.3001      Y:     1.1441      Z:     0.5584     Total:     1.8196


  Saving occupied orbitals to File 180.

  Saving SAPT 2-MONOMER_B file.

*** tstop() called on node116.bme.utexas.edu at Fri Sep 20 14:16:59 2013
Module time:
	user time   =     106.64 seconds =       1.78 minutes
	system time =       1.12 seconds =       0.02 minutes
	total time  =         28 seconds =       0.47 minutes
Total time:
	user time   =     379.04 seconds =       6.32 minutes
	system time =       4.19 seconds =       0.07 minutes
	total time  =        101 seconds =       1.68 minutes
  No DF_BASIS_SAPT auxiliary basis selected, defaulting to aug-cc-pvtz-ri

  //>>>>>>>>>>>>>>>>>>>>>>>>>>>>>>>>>>>//
  //               SAPT2+              //
  //<<<<<<<<<<<<<<<<<<<<<<<<<<<<<<<<<<<//


*** tstart() called on node116.bme.utexas.edu
*** at Fri Sep 20 14:16:59 2013

        SAPT2+  
    Ed Hohenstein
     6 June 2009

      Orbital Information
  --------------------------
    NSO        =       368
    NMO        =       368
    NRI        =       792
    NOCC A     =         9
    NOCC B     =         9
    FOCC A     =         2
    FOCC B     =         2
    NVIR A     =       359
    NVIR B     =       359

    Estimated memory usage: 1067.1 MB

    Elst10,r            =    -0.020220963229 H
    Exch10 (S^2)        =     0.023603431440 H
    Exch10              =     0.023928205054 H
    Ind20,r (A<-B)      =    -0.004397121823 H
    Ind20,r (B<-A)      =    -0.006639418984 H
    Ind20,r             =    -0.011036540806 H
    Exch-Ind20,r (A<-B) =     0.003577903237 H
    Exch-Ind20,r (B<-A) =     0.003361410169 H
    Exch-Ind20,r        =     0.006939313406 H
    Disp20              =    -0.008452091505 H
    Exch-Disp20         =     0.001625756223 H
    Elst12,r            =    -0.000359631965 H
    Exch11              =     0.000215835037 H
    Exch12              =     0.003323697509 H
    Ind22               =    -0.001859874171 H
    Disp21              =     0.000478397426 H
    Disp22 (SDQ)        =    -0.000136848030 H

    (i =   1 of   7)        339 seconds
    (i =   2 of   7)        678 seconds
    (i =   3 of   7)       1017 seconds
    (i =   4 of   7)       1356 seconds
    (i =   5 of   7)       1695 seconds
    (i =   6 of   7)       2034 seconds
    (i =   7 of   7)       2374 seconds

    Disp220 (T)         =    -0.000743988663 H

    (i =   1 of   7)        339 seconds
    (i =   2 of   7)        679 seconds
    (i =   3 of   7)       1018 seconds
    (i =   4 of   7)       1358 seconds
    (i =   5 of   7)       1698 seconds
    (i =   6 of   7)       2037 seconds
    (i =   7 of   7)       2377 seconds

    Disp202 (T)         =    -0.000669708141 H

    Disp22 (T)          =    -0.001413696804 H

    SAPT Results  
  -----------------------------------------------------------------------
    Electrostatics         -20.58059519 mH     -12.91451900 kcal mol^-1
      Elst10,r             -20.22096323 mH     -12.68884653 kcal mol^-1
      Elst12,r              -0.35963197 mH      -0.22567247 kcal mol^-1

    Exchange                27.46773760 mH      17.23626629 kcal mol^-1
      Exch10                23.92820505 mH      15.01517599 kcal mol^-1
      Exch10(S^2)           23.60343144 mH      14.81137746 kcal mol^-1
      Exch11(S^2)            0.21583504 mH       0.13543854 kcal mol^-1
      Exch12(S^2)            3.32369751 mH       2.08565176 kcal mol^-1

    Induction               -8.10845877 mH      -5.08813491 kcal mol^-1
      Ind20,r              -11.03654081 mH      -6.92553420 kcal mol^-1
      Ind22                 -1.85987417 mH      -1.16708871 kcal mol^-1
      Exch-Ind20,r           6.93931341 mH       4.35448509 kcal mol^-1
      Exch-Ind22             1.16941078 mH       0.73381637 kcal mol^-1
      delta HF,r (2)        -3.32076798 mH      -2.08381345 kcal mol^-1

    Dispersion              -7.89848269 mH      -4.95637292 kcal mol^-1
      Disp20                -8.45209151 mH      -5.30376771 kcal mol^-1
      Disp21                 0.47839743 mH       0.30019893 kcal mol^-1
      Disp22 (SDQ)          -0.13684803 mH      -0.08587344 kcal mol^-1
      Disp22 (T)            -1.41369680 mH      -0.88710817 kcal mol^-1
      Exch-Disp20            1.62575622 mH       1.02017747 kcal mol^-1

    Total HF                -3.71075355 mH      -2.32853310 kcal mol^-1
    Total SAPT0            -10.53708883 mH      -6.61212334 kcal mol^-1
    Total SAPT2             -8.04765164 mH      -5.04997786 kcal mol^-1
    Total SAPT2+            -9.11979905 mH      -5.72276054 kcal mol^-1

*** tstop() called on node116.bme.utexas.edu at Fri Sep 20 16:11:25 2013
Module time:
	user time   =   26344.26 seconds =     439.07 minutes
	system time =     118.78 seconds =       1.98 minutes
	total time  =       6866 seconds =     114.43 minutes
Total time:
	user time   =   26723.31 seconds =     445.39 minutes
	system time =     122.97 seconds =       2.05 minutes
	total time  =       6967 seconds =     116.12 minutes

*** PSI4 exiting successfully. Buy a developer a beer!
