
    -----------------------------------------------------------------------
          Psi4: An Open-Source Ab Initio Electronic Structure Package
                               Psi4 1.4a2.dev224 

                         Git: Rev {master} e453b16 


    R. M. Parrish, L. A. Burns, D. G. A. Smith, A. C. Simmonett,
    A. E. DePrince III, E. G. Hohenstein, U. Bozkaya, A. Yu. Sokolov,
    R. Di Remigio, R. M. Richard, J. F. Gonthier, A. M. James,
    H. R. McAlexander, A. Kumar, M. Saitow, X. Wang, B. P. Pritchard,
    P. Verma, H. F. Schaefer III, K. Patkowski, R. A. King, E. F. Valeev,
    F. A. Evangelista, J. M. Turney, T. D. Crawford, and C. D. Sherrill,
    J. Chem. Theory Comput. 13(7) pp 3185--3197 (2017).
    (doi: 10.1021/acs.jctc.7b00174)


                         Additional Contributions by
    P. Kraus, H. Kruse, M. H. Lechner, M. C. Schieber, R. A. Shaw,
    A. Alenaizan, R. Galvelis, Z. L. Glick, S. Lehtola, and J. P. Misiewicz

    -----------------------------------------------------------------------


    Psi4 started on: Thursday, 23 April 2020 04:36PM

    Process ID: 96349
    Host:       node73.bme.utexas.edu
    PSIDATADIR: /home/liuchw/anaconda3/envs/psi4env/share/psi4
    Memory:     500.0 MiB
    Threads:    8
    
  ==> Input File <==

--------------------------------------------------------------------------
#Generated by lconvert.py for sapt job

memory 50 GB

molecule  {
0 1
  O      -0.786560    0.045170   -0.007190
  H       0.177710    0.012700   -0.006830
  C      -1.247990   -1.290280    0.001080
  H      -2.334280   -1.258900    0.000220
  H      -0.925970   -1.849770   -0.880450
  H      -0.927030   -1.838460    0.890080
--
0 1
  O       3.352430   -0.091490   -0.003430
  H       3.791640    0.296660   -0.763300
  H       3.790320    0.311110    0.749660
units angstrom
no_reorient
symmetry c1
}

set {
scf_type DF
basis aug-cc-pvtz
freeze_core True
guess SAD
}
energy('sapt2+')
--------------------------------------------------------------------------

  Memory set to  46.566 GiB by Python driver.

Scratch directory: /scratch/liuchw/

  //>>>>>>>>>>>>>>>>>>>>>>>>>>>>>>>>>>>//
  //              Dimer HF             //
  //<<<<<<<<<<<<<<<<<<<<<<<<<<<<<<<<<<<//


*** tstart() called on node73.bme.utexas.edu
*** at Thu Apr 23 16:36:39 2020

   => Loading Basis Set <=

    Name: AUG-CC-PVTZ
    Role: ORBITAL
    Keyword: BASIS
    atoms 1, 7        entry O          line   331 file /home/liuchw/anaconda3/envs/psi4env/share/psi4/basis/aug-cc-pvtz.gbs 
    atoms 2, 4-6, 8-9 entry H          line    40 file /home/liuchw/anaconda3/envs/psi4env/share/psi4/basis/aug-cc-pvtz.gbs 
    atoms 3           entry C          line   239 file /home/liuchw/anaconda3/envs/psi4env/share/psi4/basis/aug-cc-pvtz.gbs 


         ---------------------------------------------------------
                                   SCF
               by Justin Turney, Rob Parrish, Andy Simmonett
                          and Daniel G. A. Smith
                              RHF Reference
                        8 Threads,  47683 MiB Core
         ---------------------------------------------------------

  ==> Geometry <==

    Molecular point group: c1
    Full point group: C1

    Geometry (in Angstrom), charge = 0, multiplicity = 1:

       Center              X                  Y                   Z               Mass       
    ------------   -----------------  -----------------  -----------------  -----------------
         O           -1.379430603949     0.456562598256    -0.003840282112    15.994914619570
         H           -0.415160603949     0.424092598256    -0.003480282112     1.007825032230
         C           -1.840860603949    -0.878887401744     0.004429717888    12.000000000000
         H           -2.927150603949    -0.847507401744     0.003569717888     1.007825032230
         H           -1.518840603949    -1.438377401744    -0.877100282112     1.007825032230
         H           -1.519900603949    -1.427067401744     0.893429717888     1.007825032230
         O            2.759559396051     0.319902598256    -0.000080282112    15.994914619570
         H            3.198769396051     0.708052598256    -0.759950282112     1.007825032230
         H            3.197449396051     0.722502598256     0.753009717888     1.007825032230

  Running in c1 symmetry.

  Rotational constants: A =      0.97156  B =      0.07161  C =      0.06817 [cm^-1]
  Rotational constants: A =  29126.53668  B =   2146.77572  C =   2043.60653 [MHz]
  Nuclear repulsion =   70.839227573984232

  Charge       = 0
  Multiplicity = 1
  Electrons    = 28
  Nalpha       = 14
  Nbeta        = 14

  ==> Algorithm <==

  SCF Algorithm Type is DF.
  DIIS enabled.
  MOM disabled.
  Fractional occupation disabled.
  Guess Type is SAD.
  Energy threshold   = 1.00e-08
  Density threshold  = 1.00e-08
  Integral threshold = 0.00e+00

  ==> Primary Basis <==

  Basis Set: AUG-CC-PVTZ
    Blend: AUG-CC-PVTZ
    Number of shells: 96
    Number of basis function: 276
    Number of Cartesian functions: 315
    Spherical Harmonics?: true
    Max angular momentum: 3

   => Loading Basis Set <=

    Name: (AUG-CC-PVTZ AUX)
    Role: JKFIT
    Keyword: DF_BASIS_SCF
    atoms 1, 7        entry O          line   286 file /home/liuchw/anaconda3/envs/psi4env/share/psi4/basis/aug-cc-pvtz-jkfit.gbs 
    atoms 2, 4-6, 8-9 entry H          line    70 file /home/liuchw/anaconda3/envs/psi4env/share/psi4/basis/aug-cc-pvtz-jkfit.gbs 
    atoms 3           entry C          line   162 file /home/liuchw/anaconda3/envs/psi4env/share/psi4/basis/aug-cc-pvtz-jkfit.gbs 

  ==> Pre-Iterations <==

   -------------------------------------------------------
    Irrep   Nso     Nmo     Nalpha   Nbeta   Ndocc  Nsocc
   -------------------------------------------------------
     A        276     276       0       0       0       0
   -------------------------------------------------------
    Total     276     276      14      14      14       0
   -------------------------------------------------------

  ==> Integral Setup <==

  ==> DiskDFJK: Density-Fitted J/K Matrices <==

    J tasked:                  Yes
    K tasked:                  Yes
    wK tasked:                  No
    OpenMP threads:              8
    Integrals threads:           8
    Memory [MiB]:            35762
    Algorithm:                Core
    Integral Cache:           SAVE
    Schwarz Cutoff:          1E-12
    Fitting Condition:       1E-10

   => Auxiliary Basis Set <=

  Basis Set: (AUG-CC-PVTZ AUX)
    Blend: AUG-CC-PVTZ-JKFIT
    Number of shells: 174
    Number of basis function: 588
    Number of Cartesian functions: 723
    Spherical Harmonics?: true
    Max angular momentum: 4

  Minimum eigenvalue in the overlap matrix is 5.7485962914E-05.
  Using Symmetric Orthogonalization.

  SCF Guess: Superposition of Atomic Densities via on-the-fly atomic UHF.

  ==> Iterations <==

                           Total Energy        Delta E     RMS |[F,P]|

   @DF-RHF iter SAD:  -189.87360247365325   -1.89874e+02   0.00000e+00 
   @DF-RHF iter   1:  -190.98779003463852   -1.11419e+00   2.26954e-03 DIIS
   @DF-RHF iter   2:  -191.10294038971873   -1.15150e-01   1.44677e-03 DIIS
   @DF-RHF iter   3:  -191.15358003131371   -5.06396e-02   1.49399e-04 DIIS
   @DF-RHF iter   4:  -191.15492471327264   -1.34468e-03   4.55381e-05 DIIS
   @DF-RHF iter   5:  -191.15503834979609   -1.13637e-04   1.20362e-05 DIIS
   @DF-RHF iter   6:  -191.15504757216883   -9.22237e-06   3.25769e-06 DIIS
   @DF-RHF iter   7:  -191.15504842597571   -8.53807e-07   1.21504e-06 DIIS
   @DF-RHF iter   8:  -191.15504850913763   -8.31619e-08   4.02767e-07 DIIS
   @DF-RHF iter   9:  -191.15504852153632   -1.23987e-08   6.89471e-08 DIIS
   @DF-RHF iter  10:  -191.15504852200681   -4.70493e-10   1.08323e-08 DIIS
   @DF-RHF iter  11:  -191.15504852201741   -1.06013e-11   3.14530e-09 DIIS
  Energy and wave function converged.


  ==> Post-Iterations <==

    Orbital Energies [Eh]
    ---------------------

    Doubly Occupied:                                                      

       1A    -20.578254     2A    -20.549229     3A    -11.261111  
       4A     -1.363189     5A     -1.349162     6A     -0.915689  
       7A     -0.725975     8A     -0.681835     9A     -0.611017  
      10A     -0.596976    11A     -0.585395    12A     -0.521273  
      13A     -0.494409    14A     -0.440794  

    Virtual:                                                              

      15A      0.024421    16A      0.039483    17A      0.042755  
      18A      0.055532    19A      0.058911    20A      0.064402  
      21A      0.107200    22A      0.129569    23A      0.133867  
      24A      0.140314    25A      0.150533    26A      0.170901  
      27A      0.171871    28A      0.177117    29A      0.189687  
      30A      0.193735    31A      0.201391    32A      0.223166  
      33A      0.240857    34A      0.241657    35A      0.264705  
      36A      0.272395    37A      0.280040    38A      0.287187  
      39A      0.309285    40A      0.310089    41A      0.337376  
      42A      0.347330    43A      0.353520    44A      0.355119  
      45A      0.364956    46A      0.365723    47A      0.369600  
      48A      0.400424    49A      0.400980    50A      0.412258  
      51A      0.432613    52A      0.437397    53A      0.447278  
      54A      0.456854    55A      0.459167    56A      0.464409  
      57A      0.472602    58A      0.502213    59A      0.514978  
      60A      0.546056    61A      0.547715    62A      0.574809  
      63A      0.598384    64A      0.655941    65A      0.679712  
      66A      0.683189    67A      0.700296    68A      0.713996  
      69A      0.745885    70A      0.769338    71A      0.784739  
      72A      0.789974    73A      0.793590    74A      0.801256  
      75A      0.813011    76A      0.841872    77A      0.852163  
      78A      0.857290    79A      0.865161    80A      0.880127  
      81A      0.890751    82A      0.907416    83A      0.916036  
      84A      0.936571    85A      0.943312    86A      0.947285  
      87A      0.953492    88A      0.968891    89A      0.981731  
      90A      0.989610    91A      0.990244    92A      1.001124  
      93A      1.013871    94A      1.024046    95A      1.050411  
      96A      1.051240    97A      1.074282    98A      1.081691  
      99A      1.081756   100A      1.104531   101A      1.114962  
     102A      1.131168   103A      1.132360   104A      1.156304  
     105A      1.173968   106A      1.182588   107A      1.185090  
     108A      1.206097   109A      1.216045   110A      1.218995  
     111A      1.230265   112A      1.273037   113A      1.273224  
     114A      1.307854   115A      1.320010   116A      1.354456  
     117A      1.404021   118A      1.430940   119A      1.450391  
     120A      1.507360   121A      1.531598   122A      1.563782  
     123A      1.583542   124A      1.594348   125A      1.610453  
     126A      1.620699   127A      1.635098   128A      1.648786  
     129A      1.666624   130A      1.673850   131A      1.713057  
     132A      1.722758   133A      1.757445   134A      1.775130  
     135A      1.823394   136A      1.844446   137A      1.912171  
     138A      1.952387   139A      1.982578   140A      1.982655  
     141A      1.991595   142A      2.054654   143A      2.060626  
     144A      2.096435   145A      2.106008   146A      2.167062  
     147A      2.185369   148A      2.208328   149A      2.296000  
     150A      2.312555   151A      2.386857   152A      2.420251  
     153A      2.424149   154A      2.429392   155A      2.479370  
     156A      2.514945   157A      2.516616   158A      2.532188  
     159A      2.553236   160A      2.579112   161A      2.667436  
     162A      2.674193   163A      2.745521   164A      2.769051  
     165A      2.778118   166A      2.780030   167A      2.813564  
     168A      2.817574   169A      2.870533   170A      2.879573  
     171A      2.906505   172A      2.976063   173A      3.028857  
     174A      3.076323   175A      3.212368   176A      3.341137  
     177A      3.391265   178A      3.556294   179A      3.564158  
     180A      3.593344   181A      3.641716   182A      3.646305  
     183A      3.653188   184A      3.720069   185A      3.763560  
     186A      3.794920   187A      3.868690   188A      3.898336  
     189A      3.951531   190A      3.976418   191A      4.009266  
     192A      4.012707   193A      4.074437   194A      4.103427  
     195A      4.115199   196A      4.145019   197A      4.174661  
     198A      4.182978   199A      4.218354   200A      4.242476  
     201A      4.252082   202A      4.252681   203A      4.283469  
     204A      4.302370   205A      4.378842   206A      4.391585  
     207A      4.446137   208A      4.488946   209A      4.514235  
     210A      4.518948   211A      4.541264   212A      4.578027  
     213A      4.661169   214A      4.691934   215A      4.746148  
     216A      4.775170   217A      4.785024   218A      4.794883  
     219A      4.844235   220A      4.932439   221A      4.996649  
     222A      5.031421   223A      5.051302   224A      5.105045  
     225A      5.143622   226A      5.145907   227A      5.168009  
     228A      5.244586   229A      5.254764   230A      5.274717  
     231A      5.325702   232A      5.415869   233A      5.480177  
     234A      5.523228   235A      5.555372   236A      5.605585  
     237A      5.615529   238A      5.632087   239A      5.724483  
     240A      5.740480   241A      6.127130   242A      6.133279  
     243A      6.163021   244A      6.191474   245A      6.202100  
     246A      6.513347   247A      6.587572   248A      6.642340  
     249A      6.642591   250A      6.712451   251A      6.898300  
     252A      6.904777   253A      6.918367   254A      7.086193  
     255A      7.153371   256A      7.276327   257A      7.298632  
     258A      7.308985   259A      7.324127   260A      7.348324  
     261A      7.355547   262A      7.356802   263A      7.400573  
     264A      7.489587   265A      7.548184   266A      7.561475  
     267A      7.755334   268A      7.878265   269A      7.901071  
     270A      7.921251   271A      8.157640   272A      8.527454  
     273A      8.806261   274A     15.731265   275A     15.815149  
     276A     17.724087  

    Final Occupation by Irrep:
              A 
    DOCC [    14 ]

  @DF-RHF Final Energy:  -191.15504852201741

   => Energetics <=

    Nuclear Repulsion Energy =             70.8392275739842319
    One-Electron Energy =                -402.6399294484884877
    Two-Electron Energy =                 140.6456533524868746
    Total Energy =                       -191.1550485220174096

Computation Completed


Properties will be evaluated at   0.000000,   0.000000,   0.000000 [a0]

Properties computed using the SCF density matrix

  Nuclear Dipole Moment: [e a0]
     X:     0.0208      Y:    -1.7384      Z:     0.0089

  Electronic Dipole Moment: [e a0]
     X:     1.0411      Y:     1.6902      Z:    -0.0097

  Dipole Moment: [e a0]
     X:     1.0619      Y:    -0.0482      Z:    -0.0008     Total:     1.0630

  Dipole Moment: [D]
     X:     2.6992      Y:    -0.1225      Z:    -0.0020     Total:     2.7020


*** tstop() called on node73.bme.utexas.edu at Thu Apr 23 16:36:43 2020
Module time:
	user time   =      26.98 seconds =       0.45 minutes
	system time =       1.27 seconds =       0.02 minutes
	total time  =          4 seconds =       0.07 minutes
Total time:
	user time   =      26.98 seconds =       0.45 minutes
	system time =       1.27 seconds =       0.02 minutes
	total time  =          4 seconds =       0.07 minutes

  //>>>>>>>>>>>>>>>>>>>>>>>>>>>>>>>>>>>//
  //            Monomer A HF           //
  //<<<<<<<<<<<<<<<<<<<<<<<<<<<<<<<<<<<//


*** tstart() called on node73.bme.utexas.edu
*** at Thu Apr 23 16:36:43 2020

   => Loading Basis Set <=

    Name: AUG-CC-PVTZ
    Role: ORBITAL
    Keyword: BASIS
    atoms 1, 7        entry O          line   331 file /home/liuchw/anaconda3/envs/psi4env/share/psi4/basis/aug-cc-pvtz.gbs 
    atoms 2, 4-6, 8-9 entry H          line    40 file /home/liuchw/anaconda3/envs/psi4env/share/psi4/basis/aug-cc-pvtz.gbs 
    atoms 3           entry C          line   239 file /home/liuchw/anaconda3/envs/psi4env/share/psi4/basis/aug-cc-pvtz.gbs 


         ---------------------------------------------------------
                                   SCF
               by Justin Turney, Rob Parrish, Andy Simmonett
                          and Daniel G. A. Smith
                              RHF Reference
                        8 Threads,  47683 MiB Core
         ---------------------------------------------------------

  ==> Geometry <==

    Molecular point group: c1
    Full point group: C1

    Geometry (in Angstrom), charge = 0, multiplicity = 1:

       Center              X                  Y                   Z               Mass       
    ------------   -----------------  -----------------  -----------------  -----------------
         O           -1.379430603949     0.456562598256    -0.003840282112    15.994914619570
         H           -0.415160603949     0.424092598256    -0.003480282112     1.007825032230
         C           -1.840860603949    -0.878887401744     0.004429717888    12.000000000000
         H           -2.927150603949    -0.847507401744     0.003569717888     1.007825032230
         H           -1.518840603949    -1.438377401744    -0.877100282112     1.007825032230
         H           -1.519900603949    -1.427067401744     0.893429717888     1.007825032230
      Gh(O)           2.759559396051     0.319902598256    -0.000080282112    15.994914619570
      Gh(H)           3.198769396051     0.708052598256    -0.759950282112     1.007825032230
      Gh(H)           3.197449396051     0.722502598256     0.753009717888     1.007825032230

  Running in c1 symmetry.

  Rotational constants: A =      0.97156  B =      0.07161  C =      0.06817 [cm^-1]
  Rotational constants: A =  29126.53668  B =   2146.77572  C =   2043.60653 [MHz]
  Nuclear repulsion =   40.423232096348684

  Charge       = 0
  Multiplicity = 1
  Electrons    = 18
  Nalpha       = 9
  Nbeta        = 9

  ==> Algorithm <==

  SCF Algorithm Type is DF.
  DIIS enabled.
  MOM disabled.
  Fractional occupation disabled.
  Guess Type is SAD.
  Energy threshold   = 1.00e-08
  Density threshold  = 1.00e-08
  Integral threshold = 0.00e+00

  ==> Primary Basis <==

  Basis Set: AUG-CC-PVTZ
    Blend: AUG-CC-PVTZ
    Number of shells: 96
    Number of basis function: 276
    Number of Cartesian functions: 315
    Spherical Harmonics?: true
    Max angular momentum: 3

   => Loading Basis Set <=

    Name: (AUG-CC-PVTZ AUX)
    Role: JKFIT
    Keyword: DF_BASIS_SCF
    atoms 1, 7        entry O          line   286 file /home/liuchw/anaconda3/envs/psi4env/share/psi4/basis/aug-cc-pvtz-jkfit.gbs 
    atoms 2, 4-6, 8-9 entry H          line    70 file /home/liuchw/anaconda3/envs/psi4env/share/psi4/basis/aug-cc-pvtz-jkfit.gbs 
    atoms 3           entry C          line   162 file /home/liuchw/anaconda3/envs/psi4env/share/psi4/basis/aug-cc-pvtz-jkfit.gbs 

  ==> Pre-Iterations <==

   -------------------------------------------------------
    Irrep   Nso     Nmo     Nalpha   Nbeta   Ndocc  Nsocc
   -------------------------------------------------------
     A        276     276       0       0       0       0
   -------------------------------------------------------
    Total     276     276       9       9       9       0
   -------------------------------------------------------

  ==> Integral Setup <==

  ==> DiskDFJK: Density-Fitted J/K Matrices <==

    J tasked:                  Yes
    K tasked:                  Yes
    wK tasked:                  No
    OpenMP threads:              8
    Integrals threads:           8
    Memory [MiB]:            35762
    Algorithm:                Core
    Integral Cache:           LOAD
    Schwarz Cutoff:          1E-12
    Fitting Condition:       1E-10

   => Auxiliary Basis Set <=

  Basis Set: (AUG-CC-PVTZ AUX)
    Blend: AUG-CC-PVTZ-JKFIT
    Number of shells: 174
    Number of basis function: 588
    Number of Cartesian functions: 723
    Spherical Harmonics?: true
    Max angular momentum: 4

  Minimum eigenvalue in the overlap matrix is 5.7485962914E-05.
  Using Symmetric Orthogonalization.

  SCF Guess: Superposition of Atomic Densities via on-the-fly atomic UHF.

  ==> Iterations <==

                           Total Energy        Delta E     RMS |[F,P]|

   @DF-RHF iter SAD:  -114.39258719052727   -1.14393e+02   0.00000e+00 
   @DF-RHF iter   1:  -115.00573700310670   -6.13150e-01   1.53405e-03 DIIS
   @DF-RHF iter   2:  -115.06986550215727   -6.41285e-02   9.06683e-04 DIIS
   @DF-RHF iter   3:  -115.09082200226530   -2.09565e-02   1.34312e-04 DIIS
   @DF-RHF iter   4:  -115.09179772269422   -9.75720e-04   4.23833e-05 DIIS
   @DF-RHF iter   5:  -115.09189241970428   -9.46970e-05   9.64935e-06 DIIS
   @DF-RHF iter   6:  -115.09189867160741   -6.25190e-06   2.23070e-06 DIIS
   @DF-RHF iter   7:  -115.09189919705895   -5.25452e-07   5.23625e-07 DIIS
   @DF-RHF iter   8:  -115.09189922815985   -3.11009e-08   1.10471e-07 DIIS
   @DF-RHF iter   9:  -115.09189922943835   -1.27851e-09   2.09475e-08 DIIS
   @DF-RHF iter  10:  -115.09189922948029   -4.19362e-11   4.97845e-09 DIIS
  Energy and wave function converged.


  ==> Post-Iterations <==

    Orbital Energies [Eh]
    ---------------------

    Doubly Occupied:                                                      

       1A    -20.560898     2A    -11.270270     3A     -1.360465  
       4A     -0.925331     5A     -0.692641     6A     -0.620917  
       7A     -0.595477     8A     -0.504427     9A     -0.451278  

    Virtual:                                                              

      10A      0.021984    11A      0.037094    12A      0.042096  
      13A      0.051776    14A      0.060120    15A      0.060759  
      16A      0.098848    17A      0.106212    18A      0.128560  
      19A      0.129349    20A      0.142903    21A      0.148225  
      22A      0.155790    23A      0.165501    24A      0.186520  
      25A      0.191691    26A      0.195242    27A      0.219691  
      28A      0.246503    29A      0.264732    30A      0.273350  
      31A      0.276325    32A      0.279264    33A      0.281653  
      34A      0.302763    35A      0.306391    36A      0.324973  
      37A      0.339485    38A      0.342906    39A      0.348240  
      40A      0.350425    41A      0.368249    42A      0.368286  
      43A      0.373421    44A      0.392934    45A      0.396172  
      46A      0.403463    47A      0.425634    48A      0.427104  
      49A      0.434465    50A      0.446574    51A      0.456542  
      52A      0.466463    53A      0.492204    54A      0.505394  
      55A      0.529587    56A      0.539578    57A      0.542063  
      58A      0.620095    59A      0.669640    60A      0.679529  
      61A      0.690806    62A      0.748742    63A      0.749312  
      64A      0.759404    65A      0.770674    66A      0.780892  
      67A      0.785670    68A      0.786458    69A      0.798190  
      70A      0.808811    71A      0.821437    72A      0.828153  
      73A      0.837856    74A      0.852989    75A      0.886323  
      76A      0.889714    77A      0.899662    78A      0.899863  
      79A      0.905214    80A      0.929621    81A      0.930910  
      82A      0.938766    83A      0.951495    84A      0.971637  
      85A      0.983497    86A      0.995106    87A      1.003838  
      88A      1.008311    89A      1.020575    90A      1.046709  
      91A      1.047854    92A      1.054185    93A      1.074007  
      94A      1.086449    95A      1.100783    96A      1.119588  
      97A      1.128550    98A      1.141595    99A      1.154605  
     100A      1.154773   101A      1.163548   102A      1.191326  
     103A      1.196452   104A      1.205817   105A      1.211810  
     106A      1.259386   107A      1.262776   108A      1.304969  
     109A      1.332532   110A      1.345325   111A      1.384328  
     112A      1.416568   113A      1.445129   114A      1.458663  
     115A      1.463422   116A      1.544284   117A      1.563297  
     118A      1.573009   119A      1.602109   120A      1.602942  
     121A      1.634128   122A      1.658620   123A      1.662849  
     124A      1.679081   125A      1.703383   126A      1.712700  
     127A      1.727238   128A      1.733322   129A      1.750024  
     130A      1.781278   131A      1.834355   132A      1.846477  
     133A      1.904507   134A      1.947383   135A      1.973208  
     136A      1.980515   137A      2.041042   138A      2.054840  
     139A      2.061969   140A      2.095805   141A      2.156662  
     142A      2.177270   143A      2.202130   144A      2.356532  
     145A      2.385606   146A      2.430681   147A      2.458940  
     148A      2.511608   149A      2.512006   150A      2.521231  
     151A      2.534710   152A      2.541447   153A      2.550911  
     154A      2.575033   155A      2.587396   156A      2.682351  
     157A      2.722433   158A      2.739245   159A      2.767962  
     160A      2.801855   161A      2.859354   162A      2.859895  
     163A      2.895275   164A      2.965599   165A      3.020148  
     166A      3.067724   167A      3.162865   168A      3.166835  
     169A      3.202967   170A      3.260035   171A      3.301975  
     172A      3.315592   173A      3.338741   174A      3.382296  
     175A      3.528694   176A      3.549954   177A      3.554829  
     178A      3.584620   179A      3.633707   180A      3.637535  
     181A      3.642596   182A      3.714923   183A      3.782693  
     184A      3.859488   185A      3.889490   186A      3.942095  
     187A      3.978010   188A      3.999150   189A      4.065519  
     190A      4.094499   191A      4.115630   192A      4.165279  
     193A      4.208626   194A      4.235230   195A      4.239957  
     196A      4.289073   197A      4.346361   198A      4.419393  
     199A      4.474727   200A      4.483694   201A      4.505950  
     202A      4.520400   203A      4.567326   204A      4.585912  
     205A      4.646869   206A      4.650569   207A      4.658756  
     208A      4.699665   209A      4.766477   210A      4.774234  
     211A      4.783768   212A      4.861780   213A      4.892049  
     214A      4.900093   215A      4.923139   216A      4.989082  
     217A      5.021998   218A      5.041992   219A      5.095741  
     220A      5.159120   221A      5.190988   222A      5.243830  
     223A      5.264509   224A      5.404240   225A      5.469551  
     226A      5.539313   227A      5.542591   228A      5.593473  
     229A      5.606261   230A      5.618171   231A      5.621235  
     232A      5.643133   233A      5.728397   234A      5.849430  
     235A      6.085663   236A      6.118332   237A      6.123523  
     238A      6.152810   239A      6.181213   240A      6.383214  
     241A      6.575893   242A      6.622894   243A      6.633174  
     244A      6.636371   245A      6.892794   246A      6.907188  
     247A      7.054615   248A      7.076259   249A      7.281031  
     250A      7.312302   251A      7.386954   252A      7.477151  
     253A      7.548509   254A      7.657641   255A      7.744429  
     256A      7.806661   257A      7.865511   258A      8.057861  
     259A      8.146484   260A      8.148307   261A      8.270592  
     262A      8.515298   263A      8.725085   264A      8.817650  
     265A      9.657489   266A      9.914445   267A      9.983584  
     268A     10.210906   269A     11.229425   270A     11.632181  
     271A     12.119454   272A     13.498919   273A     13.758851  
     274A     15.742145   275A     17.715146   276A     64.603472  

    Final Occupation by Irrep:
              A 
    DOCC [     9 ]

  @DF-RHF Final Energy:  -115.09189922948029

   => Energetics <=

    Nuclear Repulsion Energy =             40.4232320963486842
    One-Electron Energy =                -237.0668516210120629
    Two-Electron Energy =                  81.5517202951831024
    Total Energy =                       -115.0918992294802905

Computation Completed


Properties will be evaluated at   0.000000,   0.000000,   0.000000 [a0]

Properties computed using the SCF density matrix

  Nuclear Dipole Moment: [e a0]
     X:   -53.7847      Y:    -9.2780      Z:     0.0232

  Electronic Dipole Moment: [e a0]
     X:    54.1873      Y:     8.6931      Z:    -0.0195

  Dipole Moment: [e a0]
     X:     0.4026      Y:    -0.5848      Z:     0.0037     Total:     0.7100

  Dipole Moment: [D]
     X:     1.0233      Y:    -1.4865      Z:     0.0094     Total:     1.8047


*** tstop() called on node73.bme.utexas.edu at Thu Apr 23 16:36:46 2020
Module time:
	user time   =      17.23 seconds =       0.29 minutes
	system time =       0.83 seconds =       0.01 minutes
	total time  =          3 seconds =       0.05 minutes
Total time:
	user time   =      44.26 seconds =       0.74 minutes
	system time =       2.10 seconds =       0.04 minutes
	total time  =          7 seconds =       0.12 minutes

  //>>>>>>>>>>>>>>>>>>>>>>>>>>>>>>>>>>>//
  //            Monomer B HF           //
  //<<<<<<<<<<<<<<<<<<<<<<<<<<<<<<<<<<<//


*** tstart() called on node73.bme.utexas.edu
*** at Thu Apr 23 16:36:46 2020

   => Loading Basis Set <=

    Name: AUG-CC-PVTZ
    Role: ORBITAL
    Keyword: BASIS
    atoms 1, 7        entry O          line   331 file /home/liuchw/anaconda3/envs/psi4env/share/psi4/basis/aug-cc-pvtz.gbs 
    atoms 2, 4-6, 8-9 entry H          line    40 file /home/liuchw/anaconda3/envs/psi4env/share/psi4/basis/aug-cc-pvtz.gbs 
    atoms 3           entry C          line   239 file /home/liuchw/anaconda3/envs/psi4env/share/psi4/basis/aug-cc-pvtz.gbs 


         ---------------------------------------------------------
                                   SCF
               by Justin Turney, Rob Parrish, Andy Simmonett
                          and Daniel G. A. Smith
                              RHF Reference
                        8 Threads,  47683 MiB Core
         ---------------------------------------------------------

  ==> Geometry <==

    Molecular point group: c1
    Full point group: C1

    Geometry (in Angstrom), charge = 0, multiplicity = 1:

       Center              X                  Y                   Z               Mass       
    ------------   -----------------  -----------------  -----------------  -----------------
      Gh(O)          -1.379430603949     0.456562598256    -0.003840282112    15.994914619570
      Gh(H)          -0.415160603949     0.424092598256    -0.003480282112     1.007825032230
      Gh(C)          -1.840860603949    -0.878887401744     0.004429717888    12.000000000000
      Gh(H)          -2.927150603949    -0.847507401744     0.003569717888     1.007825032230
      Gh(H)          -1.518840603949    -1.438377401744    -0.877100282112     1.007825032230
      Gh(H)          -1.519900603949    -1.427067401744     0.893429717888     1.007825032230
         O            2.759559396051     0.319902598256    -0.000080282112    15.994914619570
         H            3.198769396051     0.708052598256    -0.759950282112     1.007825032230
         H            3.197449396051     0.722502598256     0.753009717888     1.007825032230

  Running in c1 symmetry.

  Rotational constants: A =      0.97156  B =      0.07161  C =      0.06817 [cm^-1]
  Rotational constants: A =  29126.53668  B =   2146.77572  C =   2043.60653 [MHz]
  Nuclear repulsion =    9.172365714448246

  Charge       = 0
  Multiplicity = 1
  Electrons    = 10
  Nalpha       = 5
  Nbeta        = 5

  ==> Algorithm <==

  SCF Algorithm Type is DF.
  DIIS enabled.
  MOM disabled.
  Fractional occupation disabled.
  Guess Type is SAD.
  Energy threshold   = 1.00e-08
  Density threshold  = 1.00e-08
  Integral threshold = 0.00e+00

  ==> Primary Basis <==

  Basis Set: AUG-CC-PVTZ
    Blend: AUG-CC-PVTZ
    Number of shells: 96
    Number of basis function: 276
    Number of Cartesian functions: 315
    Spherical Harmonics?: true
    Max angular momentum: 3

   => Loading Basis Set <=

    Name: (AUG-CC-PVTZ AUX)
    Role: JKFIT
    Keyword: DF_BASIS_SCF
    atoms 1, 7        entry O          line   286 file /home/liuchw/anaconda3/envs/psi4env/share/psi4/basis/aug-cc-pvtz-jkfit.gbs 
    atoms 2, 4-6, 8-9 entry H          line    70 file /home/liuchw/anaconda3/envs/psi4env/share/psi4/basis/aug-cc-pvtz-jkfit.gbs 
    atoms 3           entry C          line   162 file /home/liuchw/anaconda3/envs/psi4env/share/psi4/basis/aug-cc-pvtz-jkfit.gbs 

  ==> Pre-Iterations <==

   -------------------------------------------------------
    Irrep   Nso     Nmo     Nalpha   Nbeta   Ndocc  Nsocc
   -------------------------------------------------------
     A        276     276       0       0       0       0
   -------------------------------------------------------
    Total     276     276       5       5       5       0
   -------------------------------------------------------

  ==> Integral Setup <==

  ==> DiskDFJK: Density-Fitted J/K Matrices <==

    J tasked:                  Yes
    K tasked:                  Yes
    wK tasked:                  No
    OpenMP threads:              8
    Integrals threads:           8
    Memory [MiB]:            35762
    Algorithm:                Core
    Integral Cache:           LOAD
    Schwarz Cutoff:          1E-12
    Fitting Condition:       1E-10

   => Auxiliary Basis Set <=

  Basis Set: (AUG-CC-PVTZ AUX)
    Blend: AUG-CC-PVTZ-JKFIT
    Number of shells: 174
    Number of basis function: 588
    Number of Cartesian functions: 723
    Spherical Harmonics?: true
    Max angular momentum: 4

  Minimum eigenvalue in the overlap matrix is 5.7485962914E-05.
  Using Symmetric Orthogonalization.

  SCF Guess: Superposition of Atomic Densities via on-the-fly atomic UHF.

  ==> Iterations <==

                           Total Energy        Delta E     RMS |[F,P]|

   @DF-RHF iter SAD:   -75.47572811498122   -7.54757e+01   0.00000e+00 
   @DF-RHF iter   1:   -75.97601746937563   -5.00289e-01   1.69743e-03 DIIS
   @DF-RHF iter   2:   -76.02851996997697   -5.25025e-02   1.15772e-03 DIIS
   @DF-RHF iter   3:   -76.06000270960755   -3.14827e-02   7.86323e-05 DIIS
   @DF-RHF iter   4:   -76.06039158234435   -3.88873e-04   1.88308e-05 DIIS
   @DF-RHF iter   5:   -76.06041589103707   -2.43087e-05   4.27359e-06 DIIS
   @DF-RHF iter   6:   -76.06041787784324   -1.98681e-06   9.35597e-07 DIIS
   @DF-RHF iter   7:   -76.06041798259078   -1.04748e-07   1.68780e-07 DIIS
   @DF-RHF iter   8:   -76.06041798559141   -3.00064e-09   2.83071e-08 DIIS
   @DF-RHF iter   9:   -76.06041798565712   -6.57110e-11   6.92860e-09 DIIS
  Energy and wave function converged.


  ==> Post-Iterations <==

    Orbital Energies [Eh]
    ---------------------

    Doubly Occupied:                                                      

       1A    -20.567809     2A     -1.352667     3A     -0.715607  
       4A     -0.585369     5A     -0.510294  

    Virtual:                                                              

       6A      0.025610     7A      0.034073     8A      0.044417  
       9A      0.052988    10A      0.059150    11A      0.059730  
      12A      0.104239    13A      0.108676    14A      0.120174  
      15A      0.129874    16A      0.147815    17A      0.161887  
      18A      0.173709    19A      0.173746    20A      0.182187  
      21A      0.183668    22A      0.204603    23A      0.228098  
      24A      0.246829    25A      0.250366    26A      0.252065  
      27A      0.267814    28A      0.287104    29A      0.292382  
      30A      0.299311    31A      0.306110    32A      0.308350  
      33A      0.333166    34A      0.342960    35A      0.360645  
      36A      0.362229    37A      0.374439    38A      0.376332  
      39A      0.382587    40A      0.410537    41A      0.416546  
      42A      0.425901    43A      0.438857    44A      0.442376  
      45A      0.454569    46A      0.468893    47A      0.474854  
      48A      0.484470    49A      0.496607    50A      0.508792  
      51A      0.549086    52A      0.573185    53A      0.585234  
      54A      0.609187    55A      0.630002    56A      0.666471  
      57A      0.667405    58A      0.673024    59A      0.722875  
      60A      0.748379    61A      0.766870    62A      0.812567  
      63A      0.814035    64A      0.835123    65A      0.850123  
      66A      0.853679    67A      0.870279    68A      0.874946  
      69A      0.887175    70A      0.900889    71A      0.915024  
      72A      0.935223    73A      0.938965    74A      0.948024  
      75A      0.949051    76A      0.969363    77A      0.981620  
      78A      0.994442    79A      1.000500    80A      1.012696  
      81A      1.018064    82A      1.043021    83A      1.043233  
      84A      1.050623    85A      1.061056    86A      1.062427  
      87A      1.073716    88A      1.075519    89A      1.082216  
      90A      1.116582    91A      1.124709    92A      1.126091  
      93A      1.158301    94A      1.166337    95A      1.173981  
      96A      1.176323    97A      1.193888    98A      1.209947  
      99A      1.214333   100A      1.228833   101A      1.252599  
     102A      1.254053   103A      1.271514   104A      1.288790  
     105A      1.295343   106A      1.318843   107A      1.333709  
     108A      1.399768   109A      1.406452   110A      1.454657  
     111A      1.503419   112A      1.525497   113A      1.568203  
     114A      1.590468   115A      1.604997   116A      1.632429  
     117A      1.680772   118A      1.720472   119A      1.733149  
     120A      1.763598   121A      1.805731   122A      1.824532  
     123A      1.828935   124A      1.845128   125A      1.860997  
     126A      1.864074   127A      1.888141   128A      1.921183  
     129A      1.937838   130A      1.994750   131A      2.052926  
     132A      2.059593   133A      2.125434   134A      2.138707  
     135A      2.143840   136A      2.207400   137A      2.223728  
     138A      2.286669   139A      2.311915   140A      2.323179  
     141A      2.351713   142A      2.402161   143A      2.409350  
     144A      2.430171   145A      2.447408   146A      2.452693  
     147A      2.468920   148A      2.534708   149A      2.583330  
     150A      2.585234   151A      2.673778   152A      2.677084  
     153A      2.679586   154A      2.717742   155A      2.720367  
     156A      2.724003   157A      2.781341   158A      2.791937  
     159A      2.830740   160A      2.888038   161A      2.916894  
     162A      3.035065   163A      3.044143   164A      3.127538  
     165A      3.246636   166A      3.291601   167A      3.354067  
     168A      3.429358   169A      3.501644   170A      3.516303  
     171A      3.663878   172A      3.681721   173A      3.774987  
     174A      3.832359   175A      3.944671   176A      4.021687  
     177A      4.057142   178A      4.134790   179A      4.139126  
     180A      4.147047   181A      4.166631   182A      4.176360  
     183A      4.203045   184A      4.256085   185A      4.307015  
     186A      4.385371   187A      4.405842   188A      4.410109  
     189A      4.434885   190A      4.457274   191A      4.473285  
     192A      4.483044   193A      4.513592   194A      4.517623  
     195A      4.524687   196A      4.558215   197A      4.599161  
     198A      4.687851   199A      4.695259   200A      4.751847  
     201A      4.766737   202A      4.837486   203A      4.853683  
     204A      4.873120   205A      4.971618   206A      4.974429  
     207A      4.999553   208A      5.065360   209A      5.153418  
     210A      5.155852   211A      5.171080   212A      5.253361  
     213A      5.256160   214A      5.311487   215A      5.337992  
     216A      5.342425   217A      5.382985   218A      5.384431  
     219A      5.467696   220A      5.467800   221A      5.524699  
     222A      5.533504   223A      5.685444   224A      5.725848  
     225A      5.729434   226A      5.806837   227A      5.837692  
     228A      6.069001   229A      6.159566   230A      6.199967  
     231A      6.230986   232A      6.237831   233A      6.364004  
     234A      6.491883   235A      6.524899   236A      6.717805  
     237A      6.793296   238A      6.801906   239A      6.909205  
     240A      7.062006   241A      7.162581   242A      7.234893  
     243A      7.309341   244A      7.320187   245A      7.349260  
     246A      7.365976   247A      7.369050   248A      7.557930  
     249A      7.697629   250A      7.711272   251A      7.786759  
     252A      7.847759   253A      7.854992   254A      7.910748  
     255A      7.931435   256A      8.046488   257A      8.089380  
     258A      8.108129   259A      8.200277   260A      8.308924  
     261A      8.572812   262A      8.816319   263A      8.821926  
     264A      9.833916   265A      9.979649   266A     10.289102  
     267A     10.328453   268A     10.586903   269A     10.981259  
     270A     11.781676   271A     12.104345   272A     13.168294  
     273A     14.068775   274A     15.805787   275A     52.605816  
     276A     65.238663  

    Final Occupation by Irrep:
              A 
    DOCC [     5 ]

  @DF-RHF Final Energy:   -76.06041798565712

   => Energetics <=

    Nuclear Repulsion Energy =              9.1723657144482456
    One-Electron Energy =                -123.0020743604587494
    Two-Electron Energy =                  37.7692906603533700
    Total Energy =                        -76.0604179856571250

Computation Completed


Properties will be evaluated at   0.000000,   0.000000,   0.000000 [a0]

Properties computed using the SCF density matrix

  Nuclear Dipole Moment: [e a0]
     X:    53.8056      Y:     7.5396      Z:    -0.0143

  Electronic Dipole Moment: [e a0]
     X:   -53.2232      Y:    -7.0151      Z:     0.0098

  Dipole Moment: [e a0]
     X:     0.5824      Y:     0.5245      Z:    -0.0045     Total:     0.7838

  Dipole Moment: [D]
     X:     1.4804      Y:     1.3331      Z:    -0.0114     Total:     1.9922


*** tstop() called on node73.bme.utexas.edu at Thu Apr 23 16:36:49 2020
Module time:
	user time   =      14.04 seconds =       0.23 minutes
	system time =       0.63 seconds =       0.01 minutes
	total time  =          3 seconds =       0.05 minutes
Total time:
	user time   =      58.34 seconds =       0.97 minutes
	system time =       2.73 seconds =       0.05 minutes
	total time  =         10 seconds =       0.17 minutes
  Constructing Basis Sets for SAPT...

   => Loading Basis Set <=

    Name: (AUG-CC-PVTZ AUX)
    Role: RIFIT
    Keyword: DF_BASIS_SAPT
    atoms 1, 7        entry O          line   264 file /home/liuchw/anaconda3/envs/psi4env/share/psi4/basis/aug-cc-pvtz-ri.gbs 
    atoms 2, 4-6, 8-9 entry H          line    30 file /home/liuchw/anaconda3/envs/psi4env/share/psi4/basis/aug-cc-pvtz-ri.gbs 
    atoms 3           entry C          line   148 file /home/liuchw/anaconda3/envs/psi4env/share/psi4/basis/aug-cc-pvtz-ri.gbs 


  //>>>>>>>>>>>>>>>>>>>>>>>>>>>>>>>>>>>//
  //               SAPT2+              //
  //<<<<<<<<<<<<<<<<<<<<<<<<<<<<<<<<<<<//


*** tstart() called on node73.bme.utexas.edu
*** at Thu Apr 23 16:36:49 2020

        SAPT2+  
    Ed Hohenstein
     6 June 2009

      Orbital Information
  --------------------------
    NSO        =       276
    NMO        =       276
    NRI        =       594
    NOCC A     =         9
    NOCC B     =         5
    FOCC A     =         2
    FOCC B     =         1
    NVIR A     =       267
    NVIR B     =       271

    Estimated memory usage: 491.8 MB

    Natural Orbital Cutoff:   1.000E-06
    Disp(T3) Truncation:            Yes
    CCD (vv|vv) Truncation:         Yes
    MBPT T2 Truncation:             Yes

    Monomer A: 115 virtual orbitals dropped
    Monomer B: 193 virtual orbitals dropped

    Elst10,r            =    -0.002683270401 [Eh]
    Exch10 (S^2)        =     0.000115995171 [Eh]
    Exch10              =     0.000116009412 [Eh]
    Ind20,r (A<-B)      =    -0.000081171838 [Eh]
    Ind20,r (B<-A)      =    -0.000080627700 [Eh]
    Ind20,r             =    -0.000161799538 [Eh]
    Exch-Ind20,r (A<-B) =     0.000004528760 [Eh]
    Exch-Ind20,r (B<-A) =     0.000011138070 [Eh]
    Exch-Ind20,r        =     0.000015666829 [Eh]
    Disp20              =    -0.000400985042 [Eh]
    Disp20 (NO)         =    -0.000363933855 [Eh]
    Exch-Disp20         =     0.000012608346 [Eh]
    Elst12,r            =     0.000222905640 [Eh]
    Exch11              =    -0.000000127866 [Eh]
    Exch12              =     0.000039585859 [Eh]
    Ind22               =    -0.000009400280 [Eh]
    Disp21              =     0.000009699409 [Eh]
    Disp22 (SDQ)        =    -0.000006868606 [Eh]

    (i =   1 of   4)          2 seconds
    (i =   2 of   4)          4 seconds
    (i =   3 of   4)          6 seconds
    (i =   4 of   4)          7 seconds

    Disp220 (T)         =    -0.000034733146 [Eh]

    (i =   1 of   7)          1 seconds
    (i =   2 of   7)          1 seconds
    (i =   3 of   7)          2 seconds
    (i =   4 of   7)          2 seconds
    (i =   5 of   7)          3 seconds
    (i =   6 of   7)          3 seconds
    (i =   7 of   7)          4 seconds

    Disp202 (T)         =    -0.000033970665 [Eh]

    Disp22 (T)          =    -0.000068703811 [Eh]

    Est. Disp220 (T)    =    -0.000038269240 [Eh]
    Est. Disp202 (T)    =    -0.000037429133 [Eh]

    Est. Disp22 (T)     =    -0.000075698373 [Eh]

    SAPT Results 
  --------------------------------------------------------------------------------------------------------
    Electrostatics                 -2.46036476 [mEh]      -1.54390220 [kcal/mol]      -6.45968679 [kJ/mol]
      Elst10,r                     -2.68327040 [mEh]      -1.68377760 [kcal/mol]      -7.04492547 [kJ/mol]
      Elst12,r                      0.22290564 [mEh]       0.13987540 [kcal/mol]       0.58523868 [kJ/mol]

    Exchange                        0.15546741 [mEh]       0.09755727 [kcal/mol]       0.40817962 [kJ/mol]
      Exch10                        0.11600941 [mEh]       0.07279701 [kcal/mol]       0.30458267 [kJ/mol]
      Exch10(S^2)                   0.11599517 [mEh]       0.07278807 [kcal/mol]       0.30454528 [kJ/mol]
      Exch11(S^2)                  -0.00012787 [mEh]      -0.00008024 [kcal/mol]      -0.00033571 [kJ/mol]
      Exch12(S^2)                   0.03958586 [mEh]       0.02484050 [kcal/mol]       0.10393266 [kJ/mol]

    Induction                      -0.17253596 [mEh]      -0.10826795 [kcal/mol]      -0.45299309 [kJ/mol]
      Ind20,r                      -0.16179954 [mEh]      -0.10153074 [kcal/mol]      -0.42480463 [kJ/mol]
      Ind22                        -0.00940028 [mEh]      -0.00589876 [kcal/mol]      -0.02468043 [kJ/mol]
      Exch-Ind20,r                  0.01566683 [mEh]       0.00983108 [kcal/mol]       0.04113325 [kJ/mol]
      Exch-Ind22                    0.00091022 [mEh]       0.00057117 [kcal/mol]       0.00238977 [kJ/mol]
      delta HF,r (2)               -0.01791318 [mEh]      -0.01124069 [kcal/mol]      -0.04703105 [kJ/mol]

    Dispersion                     -0.46124427 [mEh]      -0.28943515 [kcal/mol]      -1.21099665 [kJ/mol]
      Disp20                       -0.40098504 [mEh]      -0.25162191 [kcal/mol]      -1.05278608 [kJ/mol]
      Disp21                        0.00969941 [mEh]       0.00608647 [kcal/mol]       0.02546579 [kJ/mol]
      Disp22 (SDQ)                 -0.00686861 [mEh]      -0.00431012 [kcal/mol]      -0.01803352 [kJ/mol]
      Disp22 (T)                   -0.06870381 [mEh]      -0.04311229 [kcal/mol]      -0.18038183 [kJ/mol]
      Est. Disp22 (T)              -0.07569837 [mEh]      -0.04750145 [kcal/mol]      -0.19874605 [kJ/mol]
      Exch-Disp20                   0.01260835 [mEh]       0.00791186 [kcal/mol]       0.03310321 [kJ/mol]

  Total HF                         -2.73130688 [mEh]      -1.71392094 [kcal/mol]      -7.17104523 [kJ/mol]
  Total SAPT0                      -3.11968358 [mEh]      -1.95763100 [kcal/mol]      -8.19072810 [kJ/mol]
  Total SAPT2                      -2.86581001 [mEh]      -1.79832293 [kcal/mol]      -7.52418313 [kJ/mol]
  Total SAPT2+                     -2.93867758 [mEh]      -1.84404802 [kcal/mol]      -7.71549691 [kJ/mol]

  Special recipe for scaled SAPT0 (see Manual):
    Electrostatics sSAPT0          -2.68327040 [mEh]      -1.68377760 [kcal/mol]      -7.04492547 [kJ/mol]
    Exchange sSAPT0                 0.11600941 [mEh]       0.07279701 [kcal/mol]       0.30458267 [kJ/mol]
    Induction sSAPT0               -0.16404012 [mEh]      -0.10293673 [kcal/mol]      -0.43068728 [kJ/mol]
    Dispersion sSAPT0              -0.38837205 [mEh]      -0.24370714 [kcal/mol]      -1.01967068 [kJ/mol]
  Total sSAPT0                     -3.11967316 [mEh]      -1.95762446 [kcal/mol]      -8.19070075 [kJ/mol]
  --------------------------------------------------------------------------------------------------------

*** tstop() called on node73.bme.utexas.edu at Thu Apr 23 16:37:30 2020
Module time:
	user time   =     296.08 seconds =       4.93 minutes
	system time =      16.73 seconds =       0.28 minutes
	total time  =         41 seconds =       0.68 minutes
Total time:
	user time   =     355.14 seconds =       5.92 minutes
	system time =      19.52 seconds =       0.33 minutes
	total time  =         51 seconds =       0.85 minutes

    Psi4 stopped on: Thursday, 23 April 2020 04:37PM
    Psi4 wall time for execution: 0:00:50.97

*** Psi4 exiting successfully. Buy a developer a beer!
