    -----------------------------------------------------------------------
          PSI4: An Open-Source Ab Initio Electronic Structure Package
                              PSI 4.0.0-beta4 Driver

    J. M. Turney, A. C. Simmonett, R. M. Parrish, E. G. Hohenstein,
    F. A. Evangelista, J. T. Fermann, B. J. Mintz, L. A. Burns, J. J. Wilke,
    M. L. Abrams, N. J. Russ, M. L. Leininger, C. L. Janssen, E. T. Seidl,
    W. D. Allen, H. F. Schaefer, R. A. King, E. F. Valeev, C. D. Sherrill,
    and T. D. Crawford, WIREs Comput. Mol. Sci., (2011) (doi: 10.1002/wcms.93)

                         Additional Contributions by
    A. E. DePrince, M. Saitow, U. Bozkaya, A. Yu. Sokolov
    -----------------------------------------------------------------------

    Process ID:  23408
    PSI4DATADIR: /home/xzhu216/psi4/psi4-install/share/psi

    Using LocalCommunicator (Number of processes = 1)

    Memory level set to 256.000 MB

  ==> Input File <==

--------------------------------------------------------------------------
#psi4
#
memory 3 gb

molecule MeNH2_MeOH {
0 1
N   -0.893451216  -0.043844322  -0.042997455
H    0.096948261  -0.256059448  -0.071069928
H   -1.368438791  -0.933390652   0.033837726
C   -1.175782475   0.757907695   1.145237192
H   -2.241626604   0.972216010   1.195024643
H   -0.880789552   0.304246738   2.097209096
H   -0.663005722   1.714329397   1.060809164
--
0 1
O    2.122120681  -0.062955785   0.020486043
H    2.404146800   0.306992980  -0.819378037
C    2.508034529   0.848628476   1.039922205
H    2.184851480   0.418995803   1.982988749
H    3.589089767   0.987711945   1.078962172
H    2.029559967   1.822226321   0.924745670
units angstrom
no_reorient  #important for SAPT in psi4, default
symmetry c1  #important for SAPT in psi4, default
}

set {
basis aug-cc-pVTZ
scf_type DF
freeze_core True
}
energy('sapt2+')
--------------------------------------------------------------------------

  Memory set to   3.000 GiB by Python script.

  //>>>>>>>>>>>>>>>>>>>>>>>>>>>>>>>>>>>//
  //              Dimer HF             //
  //<<<<<<<<<<<<<<<<<<<<<<<<<<<<<<<<<<<//


  No DF_BASIS_SCF auxiliary basis selected, defaulting to aug-cc-pvtz-jkfit


*** tstart() called on node134.bme.utexas.edu
*** at Fri Sep 20 13:43:38 2013


         ---------------------------------------------------------
                                   SCF
            by Justin Turney, Rob Parrish, and Andy Simmonett
                              RHF Reference
                        4 Threads,   3000 MiB Core
         ---------------------------------------------------------

  ==> Geometry <==

    Molecular point group: c1
    Full point group: C1

    Geometry (in Angstrom), charge = 0, multiplicity = 1:

       Center              X                  Y                   Z       
    ------------   -----------------  -----------------  -----------------
           N         -1.569068975974    -0.409107031604    -0.573995011969
           H         -0.578669498974    -0.621322157604    -0.602067484969
           H         -2.044056550974    -1.298653361604    -0.497159830969
           C         -1.851400234974     0.392644985396     0.614239635031
           H         -2.917244363974     0.606953300396     0.664027086031
           H         -1.556407311974    -0.061015971604     1.566211539031
           H         -1.338623481974     1.349066687396     0.529811607031
           O          1.446502921026    -0.428218494604    -0.510511513969
           H          1.728529040026    -0.058269729604    -1.350375593969
           C          1.832416769026     0.483365766396     0.508924648031
           H          1.509233720026     0.053733093396     1.451991192031
           H          2.913472007026     0.622449235396     0.547964615031
           H          1.353942207026     1.456963611396     0.393748113031

  Running in c1 symmetry.

  Nuclear repulsion =  131.437507476792319

  Charge       = 0
  Multiplicity = 1
  Electrons    = 36
  Nalpha       = 18
  Nbeta        = 18

  ==> Algorithm <==

  SCF Algorithm Type is DF.
  DIIS enabled.
  MOM disabled.
  Fractional occupation disabled.
  Guess Type is CORE.
  Energy threshold   = 1.00e-08
  Density threshold  = 1.00e-08
  Integral threshold = 0.00e+00

  ==> Primary Basis <==

  Basis Set: AUG-CC-PVTZ
    Number of shells: 137
    Number of basis function: 391
    Number of Cartesian functions: 445
    Spherical Harmonics?: true
    Max angular momentum: 3

  ==> Pre-Iterations <==

   -------------------------------------------------------
    Irrep   Nso     Nmo     Nalpha   Nbeta   Ndocc  Nsocc
   -------------------------------------------------------
     A        391     391       0       0       0       0
   -------------------------------------------------------
    Total     391     391      18      18      18       0
   -------------------------------------------------------

 OEINTS: Wrapper to libmints.
   by Justin Turney

   Calculation information:
      Number of atoms:                  13
      Number of AO shells:             137
      Number of SO shells:             137
      Number of primitives:            219
      Number of atomic orbitals:       445
      Number of basis functions:       391

      Number of irreps:                  1
      Number of functions per irrep: [ 391 ]

      Overlap, kinetic, potential, dipole, and quadrupole integrals
        stored in file 35.

  ==> Integral Setup <==

  ==> DFJK: Density-Fitted J/K Matrices <==

    J tasked:                  Yes
    K tasked:                  Yes
    wK tasked:                  No
    OpenMP threads:              4
    Integrals threads:           4
    Memory (MB):              2145
    Algorithm:                Core
    Integral Cache:           SAVE
    Schwarz Cutoff:          0E+00
    Fitting Condition:       1E-12

   => Auxiliary Basis Set <=

  Basis Set: aug-cc-pvtz-jkfit
    Number of shells: 246
    Number of basis function: 830
    Number of Cartesian functions: 1019
    Spherical Harmonics?: true
    Max angular momentum: 4

  Minimum eigenvalue in the overlap matrix is 1.6988835276E-05.
  Using Symmetric Orthogonalization.
  SCF Guess: Core (One-Electron) Hamiltonian.

  Guess energy:  -169.67505474875188

  ==> Iterations <==

                        Total Energy        Delta E     RMS |[F,P]|

   @RHF iter   1:  -159.26290138924654   -1.59263e+02   3.27995e-02 
   @RHF iter   2:  -153.12885276633838    6.13405e+00   1.26432e-02 DIIS
   @RHF iter   3:  -182.70852715602123   -2.95797e+01   1.85675e-02 DIIS
   @RHF iter   4:  -197.94321594138145   -1.52347e+01   1.22544e-02 DIIS
   @RHF iter   5:  -203.22860269314108   -5.28539e+00   8.57152e-03 DIIS
   @RHF iter   6:  -209.20358339151895   -5.97498e+00   3.79056e-03 DIIS
   @RHF iter   7:  -210.17912134438731   -9.75538e-01   1.30212e-03 DIIS
   @RHF iter   8:  -210.33765319810757   -1.58532e-01   3.06665e-04 DIIS
   @RHF iter   9:  -210.34679956139078   -9.14636e-03   8.16148e-05 DIIS
   @RHF iter  10:  -210.34738417931911   -5.84618e-04   3.61115e-05 DIIS
   @RHF iter  11:  -210.34751490725776   -1.30728e-04   8.55904e-06 DIIS
   @RHF iter  12:  -210.34752184538561   -6.93813e-06   2.94351e-06 DIIS
   @RHF iter  13:  -210.34752281168133   -9.66296e-07   8.61039e-07 DIIS
   @RHF iter  14:  -210.34752293339031   -1.21709e-07   1.86283e-07 DIIS
   @RHF iter  15:  -210.34752293950223   -6.11192e-09   4.40913e-08 DIIS
   @RHF iter  16:  -210.34752293985642   -3.54191e-10   1.09261e-08 DIIS
   @RHF iter  17:  -210.34752293987995   -2.35332e-11   2.60034e-09 DIIS

  ==> Post-Iterations <==

	Orbital Energies (a.u.)
	-----------------------

	Doubly Occupied:                                                      

	   1A    -20.571736     2A    -15.517462     3A    -11.279141  
	   4A    -11.229854     5A     -1.372618     6A     -1.153803  
	   7A     -0.936666     8A     -0.883283     9A     -0.705005  
	  10A     -0.657454    11A     -0.623911    12A     -0.606211  
	  13A     -0.588050    14A     -0.542327    15A     -0.519499  
	  16A     -0.503888    17A     -0.460548    18A     -0.375999  

	Virtual:                                                              

	  19A      0.027023    20A      0.037991    21A      0.041321  
	  22A      0.044698    23A      0.055504    24A      0.059950  
	  25A      0.062661    26A      0.080161    27A      0.092629  
	  28A      0.095001    29A      0.111007    30A      0.125543  
	  31A      0.133468    32A      0.142537    33A      0.146937  
	  34A      0.150724    35A      0.158542    36A      0.160169  
	  37A      0.168480    38A      0.185181    39A      0.192715  
	  40A      0.203419    41A      0.217181    42A      0.231530  
	  43A      0.241755    44A      0.248504    45A      0.252419  
	  46A      0.262839    47A      0.272537    48A      0.282893  
	  49A      0.292568    50A      0.303037    51A      0.305830  
	  52A      0.314277    53A      0.323595    54A      0.332119  
	  55A      0.333779    56A      0.350022    57A      0.363361  
	  58A      0.368660    59A      0.370097    60A      0.385136  
	  61A      0.388209    62A      0.391810    63A      0.394973  
	  64A      0.402058    65A      0.408196    66A      0.410393  
	  67A      0.420188    68A      0.428010    69A      0.438396  
	  70A      0.444925    71A      0.447789    72A      0.454326  
	  73A      0.463087    74A      0.473177    75A      0.477056  
	  76A      0.480344    77A      0.489426    78A      0.495353  
	  79A      0.499287    80A      0.505017    81A      0.515020  
	  82A      0.523415    83A      0.528774    84A      0.532691  
	  85A      0.547717    86A      0.564181    87A      0.575299  
	  88A      0.578866    89A      0.596849    90A      0.617135  
	  91A      0.627581    92A      0.640665    93A      0.661326  
	  94A      0.669746    95A      0.705804    96A      0.716508  
	  97A      0.741280    98A      0.751733    99A      0.762273  
	 100A      0.772995   101A      0.797349   102A      0.801092  
	 103A      0.818795   104A      0.822459   105A      0.828589  
	 106A      0.847174   107A      0.857299   108A      0.864239  
	 109A      0.882521   110A      0.891987   111A      0.895277  
	 112A      0.908131   113A      0.913810   114A      0.925262  
	 115A      0.931740   116A      0.938852   117A      0.952577  
	 118A      0.956415   119A      0.958781   120A      0.970219  
	 121A      0.987288   122A      0.991960   123A      0.994354  
	 124A      1.005895   125A      1.009278   126A      1.019029  
	 127A      1.026990   128A      1.040256   129A      1.049130  
	 130A      1.061986   131A      1.068598   132A      1.078330  
	 133A      1.086081   134A      1.088507   135A      1.098090  
	 136A      1.109673   137A      1.121303   138A      1.130253  
	 139A      1.131498   140A      1.141827   141A      1.151686  
	 142A      1.166803   143A      1.168617   144A      1.174972  
	 145A      1.186068   146A      1.204273   147A      1.222514  
	 148A      1.237194   149A      1.252401   150A      1.263147  
	 151A      1.269598   152A      1.272519   153A      1.296196  
	 154A      1.300727   155A      1.319903   156A      1.322813  
	 157A      1.338227   158A      1.347898   159A      1.360117  
	 160A      1.366993   161A      1.378550   162A      1.389126  
	 163A      1.405487   164A      1.422313   165A      1.449643  
	 166A      1.458140   167A      1.471512   168A      1.482276  
	 169A      1.504938   170A      1.521973   171A      1.537256  
	 172A      1.552936   173A      1.570758   174A      1.579786  
	 175A      1.581555   176A      1.603558   177A      1.637484  
	 178A      1.645671   179A      1.655999   180A      1.674595  
	 181A      1.676743   182A      1.693434   183A      1.701935  
	 184A      1.707896   185A      1.736661   186A      1.738475  
	 187A      1.765010   188A      1.767684   189A      1.784703  
	 190A      1.798144   191A      1.811859   192A      1.821439  
	 193A      1.840469   194A      1.857913   195A      1.895780  
	 196A      1.916100   197A      1.934184   198A      1.961618  
	 199A      1.990979   200A      2.006440   201A      2.018264  
	 202A      2.024973   203A      2.038877   204A      2.054491  
	 205A      2.063922   206A      2.079448   207A      2.083160  
	 208A      2.103438   209A      2.120176   210A      2.132761  
	 211A      2.140286   212A      2.149279   213A      2.171113  
	 214A      2.192067   215A      2.225060   216A      2.241535  
	 217A      2.264462   218A      2.268414   219A      2.315110  
	 220A      2.331701   221A      2.354325   222A      2.385539  
	 223A      2.402382   224A      2.475478   225A      2.489049  
	 226A      2.518638   227A      2.548873   228A      2.569239  
	 229A      2.571240   230A      2.609207   231A      2.638405  
	 232A      2.669807   233A      2.681359   234A      2.686346  
	 235A      2.725992   236A      2.775271   237A      2.802227  
	 238A      2.839640   239A      2.867380   240A      2.927631  
	 241A      2.961615   242A      2.969760   243A      3.010949  
	 244A      3.066685   245A      3.092966   246A      3.135292  
	 247A      3.197137   248A      3.371207   249A      3.382375  
	 250A      3.410269   251A      3.422362   252A      3.464128  
	 253A      3.492235   254A      3.574137   255A      3.589089  
	 256A      3.607797   257A      3.637818   258A      3.666408  
	 259A      3.672979   260A      3.692200   261A      3.704458  
	 262A      3.726411   263A      3.745236   264A      3.781997  
	 265A      3.802678   266A      3.849647   267A      3.854905  
	 268A      3.899525   269A      3.905305   270A      3.920448  
	 271A      3.953667   272A      3.961851   273A      3.993110  
	 274A      4.016240   275A      4.026661   276A      4.039798  
	 277A      4.061226   278A      4.071331   279A      4.102557  
	 280A      4.124240   281A      4.142102   282A      4.162139  
	 283A      4.173380   284A      4.189778   285A      4.211953  
	 286A      4.238659   287A      4.250592   288A      4.260689  
	 289A      4.281520   290A      4.308092   291A      4.311838  
	 292A      4.320002   293A      4.355797   294A      4.378485  
	 295A      4.395047   296A      4.410457   297A      4.466367  
	 298A      4.500805   299A      4.509898   300A      4.543932  
	 301A      4.560466   302A      4.595753   303A      4.620512  
	 304A      4.624793   305A      4.641739   306A      4.663960  
	 307A      4.692951   308A      4.703983   309A      4.727065  
	 310A      4.760582   311A      4.770835   312A      4.797737  
	 313A      4.809047   314A      4.811787   315A      4.852206  
	 316A      4.876999   317A      4.910211   318A      4.939049  
	 319A      4.945173   320A      4.963110   321A      5.014364  
	 322A      5.035136   323A      5.041979   324A      5.062453  
	 325A      5.080120   326A      5.084933   327A      5.124258  
	 328A      5.139378   329A      5.143736   330A      5.178214  
	 331A      5.208337   332A      5.214293   333A      5.276178  
	 334A      5.279073   335A      5.284441   336A      5.306034  
	 337A      5.338143   338A      5.417123   339A      5.502575  
	 340A      5.526377   341A      5.551253   342A      5.564227  
	 343A      5.579026   344A      5.600644   345A      5.616122  
	 346A      5.628303   347A      5.636864   348A      5.718157  
	 349A      5.783603   350A      5.839509   351A      5.856717  
	 352A      5.943904   353A      6.006753   354A      6.050199  
	 355A      6.085929   356A      6.125445   357A      6.131842  
	 358A      6.154312   359A      6.167061   360A      6.182095  
	 361A      6.213399   362A      6.273301   363A      6.363088  
	 364A      6.457308   365A      6.586332   366A      6.617709  
	 367A      6.659217   368A      6.664854   369A      6.729236  
	 370A      6.756800   371A      6.828786   372A      6.858256  
	 373A      6.960592   374A      7.065276   375A      7.106872  
	 376A      7.152440   377A      7.240528   378A      7.314176  
	 379A      7.398902   380A      7.443689   381A      7.502925  
	 382A      7.572374   383A      7.800716   384A      7.875904  
	 385A      7.969461   386A      8.190161   387A      8.586151  
	 388A     16.012447   389A     17.536979   390A     18.005771  
	 391A     18.573280  

	Final Occupation by Irrep:
	          A 
	DOCC [    18 ]

  Energy converged.

  @RHF Final Energy:  -210.34752293987995

   => Energetics <=

    Nuclear Repulsion Energy =            131.4375074767923195
    One-Electron Energy =                -546.5151496669012658
    Two-Electron Energy =                 204.7301192502300182
    DFT Exchange-Correlation Energy =       0.0000000000000000
    Empirical Dispersion Energy =           0.0000000000000000
    Total Energy =                       -210.3475229398788997



Properties will be evaluated at   0.000000,   0.000000,   0.000000 Bohr
  ==> Properties <==


Properties computed using the SCF density density matrix
  Nuclear Dipole Moment: (a.u.)
     X:    -0.8602      Y:     1.9209      Z:     2.5343

  Electronic Dipole Moment: (a.u.)
     X:     1.5691      Y:    -1.6148      Z:    -2.1897

  Dipole Moment: (a.u.)
     X:     0.7089      Y:     0.3060      Z:     0.3446     Total:     0.8455

  Dipole Moment: (Debye)
     X:     1.8018      Y:     0.7779      Z:     0.8759     Total:     2.1491


  Saving occupied orbitals to File 180.

  Saving SAPT 2-DIMER file.

*** tstop() called on node134.bme.utexas.edu at Fri Sep 20 13:44:31 2013
Module time:
	user time   =     195.38 seconds =       3.26 minutes
	system time =       2.21 seconds =       0.04 minutes
	total time  =         53 seconds =       0.88 minutes
Total time:
	user time   =     195.38 seconds =       3.26 minutes
	system time =       2.21 seconds =       0.04 minutes
	total time  =         53 seconds =       0.88 minutes

  //>>>>>>>>>>>>>>>>>>>>>>>>>>>>>>>>>>>//
  //            Monomer A HF           //
  //<<<<<<<<<<<<<<<<<<<<<<<<<<<<<<<<<<<//


  No DF_BASIS_SCF auxiliary basis selected, defaulting to aug-cc-pvtz-jkfit


*** tstart() called on node134.bme.utexas.edu
*** at Fri Sep 20 13:44:31 2013


         ---------------------------------------------------------
                                   SCF
            by Justin Turney, Rob Parrish, and Andy Simmonett
                              RHF Reference
                        4 Threads,   3000 MiB Core
         ---------------------------------------------------------

  ==> Geometry <==

    Molecular point group: c1
    Full point group: C1

    Geometry (in Angstrom), charge = 0, multiplicity = 1:

       Center              X                  Y                   Z       
    ------------   -----------------  -----------------  -----------------
           N         -1.569068975974    -0.409107031604    -0.573995011969
           H         -0.578669498974    -0.621322157604    -0.602067484969
           H         -2.044056550974    -1.298653361604    -0.497159830969
           C         -1.851400234974     0.392644985396     0.614239635031
           H         -2.917244363974     0.606953300396     0.664027086031
           H         -1.556407311974    -0.061015971604     1.566211539031
           H         -1.338623481974     1.349066687396     0.529811607031
           O(Gh)      1.446502921026    -0.428218494604    -0.510511513969
           H(Gh)      1.728529040026    -0.058269729604    -1.350375593969
           C(Gh)      1.832416769026     0.483365766396     0.508924648031
           H(Gh)      1.509233720026     0.053733093396     1.451991192031
           H(Gh)      2.913472007026     0.622449235396     0.547964615031
           H(Gh)      1.353942207026     1.456963611396     0.393748113031

  Running in c1 symmetry.

  Nuclear repulsion =   42.105932259413798

  Charge       = 0
  Multiplicity = 1
  Electrons    = 18
  Nalpha       = 9
  Nbeta        = 9

  ==> Algorithm <==

  SCF Algorithm Type is DF.
  DIIS enabled.
  MOM disabled.
  Fractional occupation disabled.
  Guess Type is CORE.
  Energy threshold   = 1.00e-08
  Density threshold  = 1.00e-08
  Integral threshold = 0.00e+00

  ==> Primary Basis <==

  Basis Set: AUG-CC-PVTZ
    Number of shells: 137
    Number of basis function: 391
    Number of Cartesian functions: 445
    Spherical Harmonics?: true
    Max angular momentum: 3

  ==> Pre-Iterations <==

   -------------------------------------------------------
    Irrep   Nso     Nmo     Nalpha   Nbeta   Ndocc  Nsocc
   -------------------------------------------------------
     A        391     391       0       0       0       0
   -------------------------------------------------------
    Total     391     391       9       9       9       0
   -------------------------------------------------------

 OEINTS: Wrapper to libmints.
   by Justin Turney

   Calculation information:
      Number of atoms:                  13
      Number of AO shells:             137
      Number of SO shells:             137
      Number of primitives:            219
      Number of atomic orbitals:       445
      Number of basis functions:       391

      Number of irreps:                  1
      Number of functions per irrep: [ 391 ]

      Overlap, kinetic, potential, dipole, and quadrupole integrals
        stored in file 35.

  ==> Integral Setup <==

  ==> DFJK: Density-Fitted J/K Matrices <==

    J tasked:                  Yes
    K tasked:                  Yes
    wK tasked:                  No
    OpenMP threads:              4
    Integrals threads:           4
    Memory (MB):              2145
    Algorithm:                Core
    Integral Cache:           LOAD
    Schwarz Cutoff:          0E+00
    Fitting Condition:       1E-12

   => Auxiliary Basis Set <=

  Basis Set: aug-cc-pvtz-jkfit
    Number of shells: 246
    Number of basis function: 830
    Number of Cartesian functions: 1019
    Spherical Harmonics?: true
    Max angular momentum: 4

  Minimum eigenvalue in the overlap matrix is 1.6988835275E-05.
  Using Symmetric Orthogonalization.
  SCF Guess: Core (One-Electron) Hamiltonian.

  Guess energy:   -76.57141086845348

  ==> Iterations <==

                        Total Energy        Delta E     RMS |[F,P]|

   @RHF iter   1:   -69.64384266122104   -6.96438e+01   2.23889e-02 
   @RHF iter   2:   -71.49060860768651   -1.84677e+00   7.96697e-03 DIIS
   @RHF iter   3:   -87.23957652287925   -1.57490e+01   1.08254e-02 DIIS
   @RHF iter   4:   -92.41333845214916   -5.17376e+00   6.30470e-03 DIIS
   @RHF iter   5:   -94.54795257767034   -2.13461e+00   2.99481e-03 DIIS
   @RHF iter   6:   -95.22539340970917   -6.77441e-01   5.43203e-04 DIIS
   @RHF iter   7:   -95.25234464147144   -2.69512e-02   1.78209e-04 DIIS
   @RHF iter   8:   -95.25533671277174   -2.99207e-03   2.57120e-05 DIIS
   @RHF iter   9:   -95.25541300952287   -7.62968e-05   6.70552e-06 DIIS
   @RHF iter  10:   -95.25542137470254   -8.36518e-06   1.42918e-06 DIIS
   @RHF iter  11:   -95.25542179941527   -4.24713e-07   2.73986e-07 DIIS
   @RHF iter  12:   -95.25542181762296   -1.82077e-08   4.99853e-08 DIIS
   @RHF iter  13:   -95.25542181826648   -6.43524e-10   1.40584e-08 DIIS
   @RHF iter  14:   -95.25542181831736   -5.08749e-11   3.23051e-09 DIIS

  ==> Post-Iterations <==

	Orbital Energies (a.u.)
	-----------------------

	Doubly Occupied:                                                      

	   1A    -15.540497     2A    -11.240266     3A     -1.172059  
	   4A     -0.895785     5A     -0.662930     6A     -0.604371  
	   7A     -0.555714     8A     -0.516111     9A     -0.393902  

	Virtual:                                                              

	  10A      0.022404    11A      0.035553    12A      0.040751  
	  13A      0.043464    14A      0.055396    15A      0.060019  
	  16A      0.061086    17A      0.078936    18A      0.087528  
	  19A      0.093047    20A      0.101145    21A      0.107302  
	  22A      0.124512    23A      0.133877    24A      0.142754  
	  25A      0.144536    26A      0.146733    27A      0.155970  
	  28A      0.164109    29A      0.177681    30A      0.189135  
	  31A      0.201477    32A      0.214124    33A      0.223965  
	  34A      0.231567    35A      0.245106    36A      0.257317  
	  37A      0.261910    38A      0.267979    39A      0.276022  
	  40A      0.288137    41A      0.295154    42A      0.302131  
	  43A      0.309375    44A      0.312707    45A      0.319592  
	  46A      0.329525    47A      0.344170    48A      0.345133  
	  49A      0.353495    50A      0.366959    51A      0.371906  
	  52A      0.375696    53A      0.384352    54A      0.388230  
	  55A      0.402317    56A      0.406351    57A      0.413787  
	  58A      0.418645    59A      0.427037    60A      0.432573  
	  61A      0.435639    62A      0.445249    63A      0.456189  
	  64A      0.459465    65A      0.461806    66A      0.467360  
	  67A      0.485113    68A      0.487784    69A      0.498644  
	  70A      0.505099    71A      0.519702    72A      0.523584  
	  73A      0.528500    74A      0.536760    75A      0.547997  
	  76A      0.564371    77A      0.566828    78A      0.577188  
	  79A      0.594612    80A      0.609739    81A      0.627900  
	  82A      0.631961    83A      0.639624    84A      0.660148  
	  85A      0.669276    86A      0.678692    87A      0.684422  
	  88A      0.704811    89A      0.718718    90A      0.751746  
	  91A      0.780273    92A      0.799976    93A      0.811730  
	  94A      0.824380    95A      0.834982    96A      0.842181  
	  97A      0.861600    98A      0.872987    99A      0.878000  
	 100A      0.892184   101A      0.904742   102A      0.911459  
	 103A      0.924445   104A      0.938150   105A      0.946589  
	 106A      0.953621   107A      0.961044   108A      0.972626  
	 109A      0.974061   110A      0.981144   111A      0.988661  
	 112A      0.995314   113A      1.005758   114A      1.015308  
	 115A      1.020928   116A      1.023569   117A      1.046124  
	 118A      1.051194   119A      1.064961   120A      1.068058  
	 121A      1.080291   122A      1.082071   123A      1.096722  
	 124A      1.102599   125A      1.106153   126A      1.113592  
	 127A      1.123695   128A      1.130102   129A      1.136004  
	 130A      1.148829   131A      1.158849   132A      1.167274  
	 133A      1.174399   134A      1.179512   135A      1.193356  
	 136A      1.200961   137A      1.219237   138A      1.237057  
	 139A      1.242350   140A      1.252886   141A      1.264410  
	 142A      1.278711   143A      1.280747   144A      1.294753  
	 145A      1.305564   146A      1.309362   147A      1.315694  
	 148A      1.345982   149A      1.359031   150A      1.374047  
	 151A      1.383474   152A      1.392450   153A      1.407631  
	 154A      1.417668   155A      1.427622   156A      1.443870  
	 157A      1.452651   158A      1.456915   159A      1.470327  
	 160A      1.504523   161A      1.512368   162A      1.524221  
	 163A      1.534868   164A      1.559544   165A      1.579358  
	 166A      1.600153   167A      1.606857   168A      1.638087  
	 169A      1.660546   170A      1.676510   171A      1.684467  
	 172A      1.695152   173A      1.711232   174A      1.726034  
	 175A      1.752202   176A      1.763093   177A      1.779855  
	 178A      1.793231   179A      1.811304   180A      1.816759  
	 181A      1.844658   182A      1.861632   183A      1.875226  
	 184A      1.887455   185A      1.902816   186A      1.917063  
	 187A      1.927888   188A      1.936479   189A      1.956478  
	 190A      1.991919   191A      2.018729   192A      2.036065  
	 193A      2.040151   194A      2.059197   195A      2.067119  
	 196A      2.079362   197A      2.107807   198A      2.118032  
	 199A      2.126835   200A      2.157740   201A      2.170118  
	 202A      2.190952   203A      2.206524   204A      2.211289  
	 205A      2.237775   206A      2.260172   207A      2.289687  
	 208A      2.293511   209A      2.325881   210A      2.348124  
	 211A      2.351999   212A      2.377078   213A      2.400167  
	 214A      2.418239   215A      2.470024   216A      2.476802  
	 217A      2.492083   218A      2.499114   219A      2.554656  
	 220A      2.566957   221A      2.597453   222A      2.635965  
	 223A      2.686112   224A      2.712871   225A      2.726527  
	 226A      2.732053   227A      2.744410   228A      2.809285  
	 229A      2.830686   230A      2.949638   231A      2.968189  
	 232A      2.972449   233A      3.019891   234A      3.100356  
	 235A      3.123100   236A      3.212673   237A      3.250169  
	 238A      3.270543   239A      3.312092   240A      3.394090  
	 241A      3.418520   242A      3.433245   243A      3.459470  
	 244A      3.473520   245A      3.532574   246A      3.541944  
	 247A      3.614041   248A      3.656118   249A      3.665847  
	 250A      3.702223   251A      3.715930   252A      3.768707  
	 253A      3.775328   254A      3.819921   255A      3.849054  
	 256A      3.904636   257A      3.914017   258A      3.956165  
	 259A      3.986322   260A      4.015360   261A      4.030067  
	 262A      4.069529   263A      4.099532   264A      4.117517  
	 265A      4.132292   266A      4.155910   267A      4.158676  
	 268A      4.163950   269A      4.193293   270A      4.205850  
	 271A      4.231860   272A      4.260213   273A      4.268878  
	 274A      4.305297   275A      4.327223   276A      4.359962  
	 277A      4.380512   278A      4.431739   279A      4.459419  
	 280A      4.470943   281A      4.485863   282A      4.494244  
	 283A      4.511167   284A      4.536634   285A      4.561542  
	 286A      4.575790   287A      4.605340   288A      4.615337  
	 289A      4.638881   290A      4.647936   291A      4.675035  
	 292A      4.695105   293A      4.736106   294A      4.751716  
	 295A      4.763419   296A      4.776912   297A      4.806311  
	 298A      4.834252   299A      4.872666   300A      4.894038  
	 301A      4.920389   302A      4.922040   303A      4.937922  
	 304A      4.953315   305A      5.005721   306A      5.023293  
	 307A      5.036580   308A      5.059627   309A      5.075709  
	 310A      5.084365   311A      5.112943   312A      5.137353  
	 313A      5.142342   314A      5.171972   315A      5.194800  
	 316A      5.211924   317A      5.254777   318A      5.274778  
	 319A      5.288823   320A      5.319622   321A      5.341179  
	 322A      5.371377   323A      5.389221   324A      5.411186  
	 325A      5.438955   326A      5.489807   327A      5.501759  
	 328A      5.559893   329A      5.563775   330A      5.577957  
	 331A      5.600507   332A      5.637026   333A      5.692665  
	 334A      5.756298   335A      5.804419   336A      5.825084  
	 337A      5.847469   338A      5.878855   339A      5.931612  
	 340A      5.991713   341A      6.038332   342A      6.068280  
	 343A      6.099351   344A      6.133566   345A      6.159633  
	 346A      6.197415   347A      6.202213   348A      6.233298  
	 349A      6.276755   350A      6.295085   351A      6.425518  
	 352A      6.449257   353A      6.551446   354A      6.581491  
	 355A      6.640392   356A      6.723348   357A      6.782624  
	 358A      6.818060   359A      6.827753   360A      6.877218  
	 361A      7.060963   362A      7.119756   363A      7.165057  
	 364A      7.285614   365A      7.752464   366A      7.780882  
	 367A      7.794510   368A      7.826196   369A      7.893516  
	 370A      8.011562   371A      8.135651   372A      8.172953  
	 373A      8.228632   374A      8.283568   375A      8.377419  
	 376A      8.566821   377A      8.825279   378A      9.935007  
	 379A     10.063919   380A     10.339943   381A     10.405571  
	 382A     10.620213   383A     10.988855   384A     11.985790  
	 385A     12.316702   386A     13.230016   387A     14.021012  
	 388A     17.520028   389A     18.499600   390A     53.182274  
	 391A     65.973155  

	Final Occupation by Irrep:
	          A 
	DOCC [     9 ]

  Energy converged.

  @RHF Final Energy:   -95.25542181831736

   => Energetics <=

    Nuclear Repulsion Energy =             42.1059322594137981
    One-Electron Energy =                -211.5594386909889977
    Two-Electron Energy =                  74.1980846132575635
    DFT Exchange-Correlation Energy =       0.0000000000000000
    Empirical Dispersion Energy =           0.0000000000000000
    Total Energy =                        -95.2554218183176289



Properties will be evaluated at   0.000000,   0.000000,   0.000000 Bohr
  ==> Properties <==


Properties computed using the SCF density density matrix
  Nuclear Dipole Moment: (a.u.)
     X:   -57.6875      Y:    -1.0069      Z:     2.5101

  Electronic Dipole Moment: (a.u.)
     X:    57.8562      Y:     0.7146      Z:    -2.0520

  Dipole Moment: (a.u.)
     X:     0.1687      Y:    -0.2923      Z:     0.4581     Total:     0.5690

  Dipole Moment: (Debye)
     X:     0.4289      Y:    -0.7430      Z:     1.1643     Total:     1.4463


  Saving occupied orbitals to File 180.

  Saving SAPT 2-MONOMER_A file.

*** tstop() called on node134.bme.utexas.edu at Fri Sep 20 13:45:06 2013
Module time:
	user time   =     132.06 seconds =       2.20 minutes
	system time =       1.38 seconds =       0.02 minutes
	total time  =         35 seconds =       0.58 minutes
Total time:
	user time   =     327.47 seconds =       5.46 minutes
	system time =       3.59 seconds =       0.06 minutes
	total time  =         88 seconds =       1.47 minutes

  //>>>>>>>>>>>>>>>>>>>>>>>>>>>>>>>>>>>//
  //            Monomer B HF           //
  //<<<<<<<<<<<<<<<<<<<<<<<<<<<<<<<<<<<//


  No DF_BASIS_SCF auxiliary basis selected, defaulting to aug-cc-pvtz-jkfit


*** tstart() called on node134.bme.utexas.edu
*** at Fri Sep 20 13:45:06 2013


         ---------------------------------------------------------
                                   SCF
            by Justin Turney, Rob Parrish, and Andy Simmonett
                              RHF Reference
                        4 Threads,   3000 MiB Core
         ---------------------------------------------------------

  ==> Geometry <==

    Molecular point group: c1
    Full point group: C1

    Geometry (in Angstrom), charge = 0, multiplicity = 1:

       Center              X                  Y                   Z       
    ------------   -----------------  -----------------  -----------------
           N(Gh)     -1.569068975974    -0.409107031604    -0.573995011969
           H(Gh)     -0.578669498974    -0.621322157604    -0.602067484969
           H(Gh)     -2.044056550974    -1.298653361604    -0.497159830969
           C(Gh)     -1.851400234974     0.392644985396     0.614239635031
           H(Gh)     -2.917244363974     0.606953300396     0.664027086031
           H(Gh)     -1.556407311974    -0.061015971604     1.566211539031
           H(Gh)     -1.338623481974     1.349066687396     0.529811607031
           O          1.446502921026    -0.428218494604    -0.510511513969
           H          1.728529040026    -0.058269729604    -1.350375593969
           C          1.832416769026     0.483365766396     0.508924648031
           H          1.509233720026     0.053733093396     1.451991192031
           H          2.913472007026     0.622449235396     0.547964615031
           H          1.353942207026     1.456963611396     0.393748113031

  Running in c1 symmetry.

  Nuclear repulsion =   40.347107598143744

  Charge       = 0
  Multiplicity = 1
  Electrons    = 18
  Nalpha       = 9
  Nbeta        = 9

  ==> Algorithm <==

  SCF Algorithm Type is DF.
  DIIS enabled.
  MOM disabled.
  Fractional occupation disabled.
  Guess Type is CORE.
  Energy threshold   = 1.00e-08
  Density threshold  = 1.00e-08
  Integral threshold = 0.00e+00

  ==> Primary Basis <==

  Basis Set: AUG-CC-PVTZ
    Number of shells: 137
    Number of basis function: 391
    Number of Cartesian functions: 445
    Spherical Harmonics?: true
    Max angular momentum: 3

  ==> Pre-Iterations <==

   -------------------------------------------------------
    Irrep   Nso     Nmo     Nalpha   Nbeta   Ndocc  Nsocc
   -------------------------------------------------------
     A        391     391       0       0       0       0
   -------------------------------------------------------
    Total     391     391       9       9       9       0
   -------------------------------------------------------

 OEINTS: Wrapper to libmints.
   by Justin Turney

   Calculation information:
      Number of atoms:                  13
      Number of AO shells:             137
      Number of SO shells:             137
      Number of primitives:            219
      Number of atomic orbitals:       445
      Number of basis functions:       391

      Number of irreps:                  1
      Number of functions per irrep: [ 391 ]

      Overlap, kinetic, potential, dipole, and quadrupole integrals
        stored in file 35.

  ==> Integral Setup <==

  ==> DFJK: Density-Fitted J/K Matrices <==

    J tasked:                  Yes
    K tasked:                  Yes
    wK tasked:                  No
    OpenMP threads:              4
    Integrals threads:           4
    Memory (MB):              2145
    Algorithm:                Core
    Integral Cache:           LOAD
    Schwarz Cutoff:          0E+00
    Fitting Condition:       1E-12

   => Auxiliary Basis Set <=

  Basis Set: aug-cc-pvtz-jkfit
    Number of shells: 246
    Number of basis function: 830
    Number of Cartesian functions: 1019
    Spherical Harmonics?: true
    Max angular momentum: 4

  Minimum eigenvalue in the overlap matrix is 1.6988835275E-05.
  Using Symmetric Orthogonalization.
  SCF Guess: Core (One-Electron) Hamiltonian.

  Guess energy:   -92.15360986244252

  ==> Iterations <==

                        Total Energy        Delta E     RMS |[F,P]|

   @RHF iter   1:   -89.47504006657914   -8.94750e+01   2.40957e-02 
   @RHF iter   2:   -88.67813731133515    7.96903e-01   8.22683e-03 DIIS
   @RHF iter   3:  -105.04154168405574   -1.63634e+01   1.30768e-02 DIIS
   @RHF iter   4:  -109.98434903773455   -4.94281e+00   9.18353e-03 DIIS
   @RHF iter   5:  -113.00644700562981   -3.02210e+00   5.70823e-03 DIIS
   @RHF iter   6:  -114.87373213623371   -1.86729e+00   1.62550e-03 DIIS
   @RHF iter   7:  -115.06927345544867   -1.95541e-01   5.68919e-04 DIIS
   @RHF iter   8:  -115.09138481438612   -2.21114e-02   1.16362e-04 DIIS
   @RHF iter   9:  -115.09213241424777   -7.47600e-04   1.62190e-05 DIIS
   @RHF iter  10:  -115.09216879887197   -3.63846e-05   2.91673e-06 DIIS
   @RHF iter  11:  -115.09217039744144   -1.59857e-06   6.77963e-07 DIIS
   @RHF iter  12:  -115.09217048451174   -8.70703e-08   1.41436e-07 DIIS
   @RHF iter  13:  -115.09217048880103   -4.28929e-09   2.86786e-08 DIIS
   @RHF iter  14:  -115.09217048894641   -1.45377e-10   7.86055e-09 DIIS

  ==> Post-Iterations <==

	Orbital Energies (a.u.)
	-----------------------

	Doubly Occupied:                                                      

	   1A    -20.559472     2A    -11.270534     3A     -1.358022  
	   4A     -0.926414     5A     -0.691456     6A     -0.620931  
	   7A     -0.593187     8A     -0.505188     9A     -0.452281  

	Virtual:                                                              

	  10A      0.024681    11A      0.034104    12A      0.040589  
	  13A      0.044468    14A      0.054886    15A      0.059945  
	  16A      0.061871    17A      0.078467    18A      0.090451  
	  19A      0.094400    20A      0.104108    21A      0.108681  
	  22A      0.124636    23A      0.135784    24A      0.140145  
	  25A      0.143573    26A      0.150437    27A      0.152906  
	  28A      0.162496    29A      0.182280    30A      0.188983  
	  31A      0.200921    32A      0.214624    33A      0.220056  
	  34A      0.237557    35A      0.254904    36A      0.259043  
	  37A      0.266810    38A      0.272217    39A      0.281939  
	  40A      0.290487    41A      0.298662    42A      0.304597  
	  43A      0.310244    44A      0.318730    45A      0.319646  
	  46A      0.328062    47A      0.342166    48A      0.349186  
	  49A      0.354518    50A      0.363917    51A      0.366144  
	  52A      0.378260    53A      0.384422    54A      0.394392  
	  55A      0.400580    56A      0.403075    57A      0.412721  
	  58A      0.418351    59A      0.425354    60A      0.435201  
	  61A      0.441119    62A      0.450162    63A      0.457060  
	  64A      0.465502    65A      0.473909    66A      0.477016  
	  67A      0.485940    68A      0.498311    69A      0.504476  
	  70A      0.507447    71A      0.522117    72A      0.526618  
	  73A      0.535241    74A      0.539309    75A      0.555817  
	  76A      0.563446    77A      0.570299    78A      0.583814  
	  79A      0.604919    80A      0.624147    81A      0.630402  
	  82A      0.640081    83A      0.655113    84A      0.674339  
	  85A      0.700032    86A      0.709456    87A      0.718708  
	  88A      0.736758    89A      0.749298    90A      0.765864  
	  91A      0.776987    92A      0.790139    93A      0.796329  
	  94A      0.812539    95A      0.823872    96A      0.832028  
	  97A      0.838023    98A      0.846918    99A      0.847845  
	 100A      0.873900   101A      0.888914   102A      0.896452  
	 103A      0.904512   104A      0.931429   105A      0.937707  
	 106A      0.951946   107A      0.958874   108A      0.973182  
	 109A      0.982447   110A      0.990164   111A      1.003636  
	 112A      1.008549   113A      1.020297   114A      1.027111  
	 115A      1.036850   116A      1.039026   117A      1.056906  
	 118A      1.072202   119A      1.076565   120A      1.083296  
	 121A      1.090882   122A      1.098083   123A      1.107007  
	 124A      1.117794   125A      1.127085   126A      1.127996  
	 127A      1.137316   128A      1.139813   129A      1.157290  
	 130A      1.159872   131A      1.174357   132A      1.181799  
	 133A      1.191707   134A      1.196443   135A      1.203395  
	 136A      1.224244   137A      1.231061   138A      1.240142  
	 139A      1.258278   140A      1.265937   141A      1.282000  
	 142A      1.290633   143A      1.316921   144A      1.324599  
	 145A      1.338525   146A      1.345460   147A      1.362759  
	 148A      1.370788   149A      1.375906   150A      1.390614  
	 151A      1.396131   152A      1.411969   153A      1.424068  
	 154A      1.431445   155A      1.453241   156A      1.468899  
	 157A      1.486755   158A      1.505196   159A      1.516062  
	 160A      1.529105   161A      1.553675   162A      1.567007  
	 163A      1.574978   164A      1.587472   165A      1.598226  
	 166A      1.620949   167A      1.633789   168A      1.638510  
	 169A      1.652760   170A      1.665390   171A      1.678683  
	 172A      1.693531   173A      1.705132   174A      1.712376  
	 175A      1.723360   176A      1.738450   177A      1.757201  
	 178A      1.773989   179A      1.788847   180A      1.797235  
	 181A      1.832683   182A      1.851369   183A      1.870449  
	 184A      1.888343   185A      1.898639   186A      1.918669  
	 187A      1.921677   188A      1.961238   189A      1.975734  
	 190A      2.013493   191A      2.016296   192A      2.038735  
	 193A      2.062558   194A      2.063769   195A      2.077114  
	 196A      2.102260   197A      2.111578   198A      2.126170  
	 199A      2.152512   200A      2.169383   201A      2.191559  
	 202A      2.197182   203A      2.230279   204A      2.238833  
	 205A      2.253260   206A      2.275238   207A      2.280521  
	 208A      2.283300   209A      2.331810   210A      2.352104  
	 211A      2.387118   212A      2.437147   213A      2.457667  
	 214A      2.513993   215A      2.521760   216A      2.551637  
	 217A      2.583541   218A      2.592365   219A      2.614230  
	 220A      2.637053   221A      2.663999   222A      2.702778  
	 223A      2.720068   224A      2.742737   225A      2.794175  
	 226A      2.809682   227A      2.833941   228A      2.850946  
	 229A      2.884507   230A      2.903601   231A      2.921117  
	 232A      2.942850   233A      2.976663   234A      2.998425  
	 235A      3.027839   236A      3.052200   237A      3.087565  
	 238A      3.101316   239A      3.138959   240A      3.193833  
	 241A      3.222828   242A      3.328302   243A      3.359537  
	 244A      3.388740   245A      3.400878   246A      3.480658  
	 247A      3.572332   248A      3.590423   249A      3.626505  
	 250A      3.641984   251A      3.701814   252A      3.732688  
	 253A      3.786636   254A      3.865624   255A      3.915419  
	 256A      3.931014   257A      4.002130   258A      4.020344  
	 259A      4.039441   260A      4.080855   261A      4.116638  
	 262A      4.132787   263A      4.148276   264A      4.162289  
	 265A      4.176595   266A      4.184840   267A      4.215629  
	 268A      4.232278   269A      4.257465   270A      4.280113  
	 271A      4.310492   272A      4.317700   273A      4.337030  
	 274A      4.366810   275A      4.451708   276A      4.466763  
	 277A      4.481639   278A      4.501582   279A      4.525534  
	 280A      4.541568   281A      4.568051   282A      4.595661  
	 283A      4.607985   284A      4.630303   285A      4.631992  
	 286A      4.647823   287A      4.693414   288A      4.698316  
	 289A      4.717808   290A      4.748853   291A      4.776852  
	 292A      4.800914   293A      4.806935   294A      4.815745  
	 295A      4.817163   296A      4.843206   297A      4.884356  
	 298A      4.935483   299A      4.958387   300A      4.966249  
	 301A      5.013149   302A      5.022354   303A      5.040240  
	 304A      5.048857   305A      5.060505   306A      5.084281  
	 307A      5.091657   308A      5.115969   309A      5.150780  
	 310A      5.182459   311A      5.213702   312A      5.257809  
	 313A      5.285094   314A      5.295623   315A      5.322844  
	 316A      5.349265   317A      5.375899   318A      5.401036  
	 319A      5.418552   320A      5.451480   321A      5.472878  
	 322A      5.499023   323A      5.509474   324A      5.527084  
	 325A      5.548245   326A      5.576232   327A      5.584633  
	 328A      5.628046   329A      5.630463   330A      5.649519  
	 331A      5.721615   332A      5.747737   333A      5.808191  
	 334A      5.850917   335A      5.864474   336A      5.894369  
	 337A      5.980216   338A      6.026712   339A      6.081753  
	 340A      6.137922   341A      6.149478   342A      6.166355  
	 343A      6.182377   344A      6.209041   345A      6.292186  
	 346A      6.388426   347A      6.473630   348A      6.548428  
	 349A      6.635957   350A      6.664765   351A      6.680826  
	 352A      6.750386   353A      6.785564   354A      6.917662  
	 355A      6.977384   356A      7.026109   357A      7.079270  
	 358A      7.144608   359A      7.164497   360A      7.218567  
	 361A      7.291877   362A      7.326183   363A      7.418430  
	 364A      7.465487   365A      7.507379   366A      7.561633  
	 367A      7.595061   368A      7.662022   369A      7.713225  
	 370A      7.810352   371A      7.823836   372A      7.893028  
	 373A      7.929252   374A      7.949437   375A      8.115352  
	 376A      8.161612   377A      8.216274   378A      8.220041  
	 379A      8.325970   380A      8.604549   381A      8.734463  
	 382A      9.416538   383A      9.898444   384A     10.535292  
	 385A     11.127514   386A     11.321018   387A     12.273622  
	 388A     16.054794   389A     18.061263   390A     53.272537  
	 391A     60.841689  

	Final Occupation by Irrep:
	          A 
	DOCC [     9 ]

  Energy converged.

  @RHF Final Energy:  -115.09217048894641

   => Energetics <=

    Nuclear Repulsion Energy =             40.3471075981437437
    One-Electron Energy =                -236.9235989014697736
    Two-Electron Energy =                  81.4843208143788900
    DFT Exchange-Correlation Energy =       0.0000000000000000
    Empirical Dispersion Energy =           0.0000000000000000
    Total Energy =                       -115.0921704889471471



Properties will be evaluated at   0.000000,   0.000000,   0.000000 Bohr
  ==> Properties <==


Properties computed using the SCF density density matrix
  Nuclear Dipole Moment: (a.u.)
     X:    56.8273      Y:     2.9278      Z:     0.0242

  Electronic Dipole Moment: (a.u.)
     X:   -56.4861      Y:    -2.3064      Z:    -0.1073

  Dipole Moment: (a.u.)
     X:     0.3411      Y:     0.6214      Z:    -0.0832     Total:     0.7138

  Dipole Moment: (Debye)
     X:     0.8671      Y:     1.5795      Z:    -0.2114     Total:     1.8142


  Saving occupied orbitals to File 180.

  Saving SAPT 2-MONOMER_B file.

*** tstop() called on node134.bme.utexas.edu at Fri Sep 20 13:45:41 2013
Module time:
	user time   =     131.91 seconds =       2.20 minutes
	system time =       1.29 seconds =       0.02 minutes
	total time  =         35 seconds =       0.58 minutes
Total time:
	user time   =     459.40 seconds =       7.66 minutes
	system time =       4.88 seconds =       0.08 minutes
	total time  =        123 seconds =       2.05 minutes
  No DF_BASIS_SAPT auxiliary basis selected, defaulting to aug-cc-pvtz-ri

  //>>>>>>>>>>>>>>>>>>>>>>>>>>>>>>>>>>>//
  //               SAPT2+              //
  //<<<<<<<<<<<<<<<<<<<<<<<<<<<<<<<<<<<//


*** tstart() called on node134.bme.utexas.edu
*** at Fri Sep 20 13:45:41 2013

        SAPT2+  
    Ed Hohenstein
     6 June 2009

      Orbital Information
  --------------------------
    NSO        =       391
    NMO        =       391
    NRI        =       838
    NOCC A     =         9
    NOCC B     =         9
    FOCC A     =         2
    FOCC B     =         2
    NVIR A     =       382
    NVIR B     =       382

    Estimated memory usage: 1262.0 MB

    Elst10,r            =    -0.009310114325 H
    Exch10 (S^2)        =     0.011966987402 H
    Exch10              =     0.012049730446 H
    Ind20,r (A<-B)      =    -0.002150641894 H
    Ind20,r (B<-A)      =    -0.002013011085 H
    Ind20,r             =    -0.004163652979 H
    Exch-Ind20,r (A<-B) =     0.001562301273 H
    Exch-Ind20,r (B<-A) =     0.001215885897 H
    Exch-Ind20,r        =     0.002778187170 H
    Disp20              =    -0.006360201808 H
    Exch-Disp20         =     0.000981058535 H
    Elst12,r            =    -0.000473319512 H
    Exch11              =     0.000070338081 H
    Exch12              =     0.001632291888 H
    Ind22               =    -0.000679106372 H
    Disp21              =     0.000249210143 H
    Disp22 (SDQ)        =     0.000060711588 H

    (i =   1 of   7)        425 seconds
    (i =   2 of   7)        850 seconds
    (i =   3 of   7)       1275 seconds
    (i =   4 of   7)       1700 seconds
    (i =   5 of   7)       2124 seconds
    (i =   6 of   7)       2549 seconds
    (i =   7 of   7)       2973 seconds

    Disp220 (T)         =    -0.000479314295 H

    (i =   1 of   7)        424 seconds
    (i =   2 of   7)        848 seconds
    (i =   3 of   7)       1273 seconds
    (i =   4 of   7)       1698 seconds
    (i =   5 of   7)       2123 seconds
    (i =   6 of   7)       2547 seconds
    (i =   7 of   7)       2972 seconds

    Disp202 (T)         =    -0.000540904343 H

    Disp22 (T)          =    -0.001020218638 H

    SAPT Results  
  -----------------------------------------------------------------------
    Electrostatics          -9.78343384 mH      -6.13919768 kcal mol^-1
      Elst10,r              -9.31011433 mH      -5.84218519 kcal mol^-1
      Elst12,r              -0.47331951 mH      -0.29701249 kcal mol^-1

    Exchange                13.75236041 mH       8.62973681 kcal mol^-1
      Exch10                12.04973045 mH       7.56132033 kcal mol^-1
      Exch10(S^2)           11.96698740 mH       7.50939828 kcal mol^-1
      Exch11(S^2)            0.07033808 mH       0.04413781 kcal mol^-1
      Exch12(S^2)            1.63229189 mH       1.02427867 kcal mol^-1

    Induction               -2.89622306 mH      -1.81740748 kcal mol^-1
      Ind20,r               -4.16365298 mH      -2.61273180 kcal mol^-1
      Ind22                 -0.67910637 mH      -0.42614570 kcal mol^-1
      Exch-Ind20,r           2.77818717 mH       1.74333884 kcal mol^-1
      Exch-Ind22             0.45313205 mH       0.28434467 kcal mol^-1
      delta HF,r (2)        -1.28478293 mH      -0.80621349 kcal mol^-1

    Dispersion              -6.08944018 mH      -3.82118156 kcal mol^-1
      Disp20                -6.36020181 mH      -3.99108706 kcal mol^-1
      Disp21                 0.24921014 mH       0.15638173 kcal mol^-1
      Disp22 (SDQ)           0.06071159 mH       0.03809710 kcal mol^-1
      Disp22 (T)            -1.02021864 mH      -0.64019689 kcal mol^-1
      Exch-Disp20            0.98105854 mH       0.61562355 kcal mol^-1

    Total HF                 0.06936738 mH       0.04352869 kcal mol^-1
    Total SAPT0             -5.30977589 mH      -3.33193481 kcal mol^-1
    Total SAPT2             -4.30643975 mH      -2.70233186 kcal mol^-1
    Total SAPT2+            -5.01673666 mH      -3.14804991 kcal mol^-1

*** tstop() called on node134.bme.utexas.edu at Fri Sep 20 16:12:11 2013
Module time:
	user time   =   33653.39 seconds =     560.89 minutes
	system time =     132.07 seconds =       2.20 minutes
	total time  =       8790 seconds =     146.50 minutes
Total time:
	user time   =   34112.80 seconds =     568.55 minutes
	system time =     136.95 seconds =       2.28 minutes
	total time  =       8913 seconds =     148.55 minutes

*** PSI4 exiting successfully. Buy a developer a beer!
