
    -----------------------------------------------------------------------
          Psi4: An Open-Source Ab Initio Electronic Structure Package
                               Psi4 1.4a2.dev224 

                         Git: Rev {master} e453b16 


    R. M. Parrish, L. A. Burns, D. G. A. Smith, A. C. Simmonett,
    A. E. DePrince III, E. G. Hohenstein, U. Bozkaya, A. Yu. Sokolov,
    R. Di Remigio, R. M. Richard, J. F. Gonthier, A. M. James,
    H. R. McAlexander, A. Kumar, M. Saitow, X. Wang, B. P. Pritchard,
    P. Verma, H. F. Schaefer III, K. Patkowski, R. A. King, E. F. Valeev,
    F. A. Evangelista, J. M. Turney, T. D. Crawford, and C. D. Sherrill,
    J. Chem. Theory Comput. 13(7) pp 3185--3197 (2017).
    (doi: 10.1021/acs.jctc.7b00174)


                         Additional Contributions by
    P. Kraus, H. Kruse, M. H. Lechner, M. C. Schieber, R. A. Shaw,
    A. Alenaizan, R. Galvelis, Z. L. Glick, S. Lehtola, and J. P. Misiewicz

    -----------------------------------------------------------------------


    Psi4 started on: Thursday, 23 April 2020 11:00PM

    Process ID: 74665
    Host:       node43.bme.utexas.edu
    PSIDATADIR: /home/liuchw/anaconda3/envs/psi4env/share/psi4
    Memory:     500.0 MiB
    Threads:    8
    
  ==> Input File <==

--------------------------------------------------------------------------
#Generated by lconvert.py for sapt job

memory 50 GB

molecule  {
0 1
  N      -0.893450   -0.043840   -0.043000
  H       0.096950   -0.256060   -0.071070
  H      -1.368440   -0.933390    0.033840
  C      -1.175780    0.757910    1.145240
  H      -2.241630    0.972220    1.195030
  H      -0.880790    0.304250    2.097210
  H      -0.663010    1.714330    1.060810
--
0 1
  O       4.372200    0.151590    0.122210
  H       4.654230    0.521540   -0.717660
  C       4.758120    1.063180    1.141640
  H       4.434930    0.633550    2.084710
  H       5.839170    1.202260    1.180680
  H       4.279640    2.036780    1.026470
units angstrom
no_reorient
symmetry c1
}

set {
scf_type DF
basis aug-cc-pvtz
freeze_core True
guess SAD
}
energy('sapt2+')
--------------------------------------------------------------------------

  Memory set to  46.566 GiB by Python driver.

Scratch directory: /scratch/liuchw/

  //>>>>>>>>>>>>>>>>>>>>>>>>>>>>>>>>>>>//
  //              Dimer HF             //
  //<<<<<<<<<<<<<<<<<<<<<<<<<<<<<<<<<<<//


*** tstart() called on node43.bme.utexas.edu
*** at Thu Apr 23 23:00:04 2020

   => Loading Basis Set <=

    Name: AUG-CC-PVTZ
    Role: ORBITAL
    Keyword: BASIS
    atoms 1                  entry N          line   285 file /home/liuchw/anaconda3/envs/psi4env/share/psi4/basis/aug-cc-pvtz.gbs 
    atoms 2-3, 5-7, 9, 11-13 entry H          line    40 file /home/liuchw/anaconda3/envs/psi4env/share/psi4/basis/aug-cc-pvtz.gbs 
    atoms 4, 10              entry C          line   239 file /home/liuchw/anaconda3/envs/psi4env/share/psi4/basis/aug-cc-pvtz.gbs 
    atoms 8                  entry O          line   331 file /home/liuchw/anaconda3/envs/psi4env/share/psi4/basis/aug-cc-pvtz.gbs 


         ---------------------------------------------------------
                                   SCF
               by Justin Turney, Rob Parrish, Andy Simmonett
                          and Daniel G. A. Smith
                              RHF Reference
                        8 Threads,  47683 MiB Core
         ---------------------------------------------------------

  ==> Geometry <==

    Molecular point group: c1
    Full point group: C1

    Geometry (in Angstrom), charge = 0, multiplicity = 1:

       Center              X                  Y                   Z               Mass       
    ------------   -----------------  -----------------  -----------------  -----------------
         N           -2.711662549455    -0.518052245360    -0.625651817506    14.003074004430
         H           -1.721262549455    -0.730272245360    -0.653721817506     1.007825032230
         H           -3.186652549455    -1.407602245360    -0.548811817506     1.007825032230
         C           -2.993992549455     0.283697754640     0.562588182494    12.000000000000
         H           -4.059842549455     0.498007754640     0.612378182494     1.007825032230
         H           -2.699002549455    -0.169962245360     1.514558182494     1.007825032230
         H           -2.481222549455     1.240117754640     0.478158182494     1.007825032230
         O            2.553987450545    -0.322622245360    -0.460441817506    15.994914619570
         H            2.836017450545     0.047327754640    -1.300311817506     1.007825032230
         C            2.939907450545     0.588967754640     0.558988182494    12.000000000000
         H            2.616717450545     0.159337754640     1.502058182494     1.007825032230
         H            4.020957450545     0.728047754640     0.598028182494     1.007825032230
         H            2.461427450545     1.562567754640     0.443818182494     1.007825032230

  Running in c1 symmetry.

  Rotational constants: A =      0.40958  B =      0.03338  C =      0.03135 [cm^-1]
  Rotational constants: A =  12278.88008  B =   1000.68064  C =    939.99430 [MHz]
  Nuclear repulsion =  112.475931476891560

  Charge       = 0
  Multiplicity = 1
  Electrons    = 36
  Nalpha       = 18
  Nbeta        = 18

  ==> Algorithm <==

  SCF Algorithm Type is DF.
  DIIS enabled.
  MOM disabled.
  Fractional occupation disabled.
  Guess Type is SAD.
  Energy threshold   = 1.00e-08
  Density threshold  = 1.00e-08
  Integral threshold = 0.00e+00

  ==> Primary Basis <==

  Basis Set: AUG-CC-PVTZ
    Blend: AUG-CC-PVTZ
    Number of shells: 137
    Number of basis function: 391
    Number of Cartesian functions: 445
    Spherical Harmonics?: true
    Max angular momentum: 3

   => Loading Basis Set <=

    Name: (AUG-CC-PVTZ AUX)
    Role: JKFIT
    Keyword: DF_BASIS_SCF
    atoms 1                  entry N          line   224 file /home/liuchw/anaconda3/envs/psi4env/share/psi4/basis/aug-cc-pvtz-jkfit.gbs 
    atoms 2-3, 5-7, 9, 11-13 entry H          line    70 file /home/liuchw/anaconda3/envs/psi4env/share/psi4/basis/aug-cc-pvtz-jkfit.gbs 
    atoms 4, 10              entry C          line   162 file /home/liuchw/anaconda3/envs/psi4env/share/psi4/basis/aug-cc-pvtz-jkfit.gbs 
    atoms 8                  entry O          line   286 file /home/liuchw/anaconda3/envs/psi4env/share/psi4/basis/aug-cc-pvtz-jkfit.gbs 

  ==> Pre-Iterations <==

   -------------------------------------------------------
    Irrep   Nso     Nmo     Nalpha   Nbeta   Ndocc  Nsocc
   -------------------------------------------------------
     A        391     391       0       0       0       0
   -------------------------------------------------------
    Total     391     391      18      18      18       0
   -------------------------------------------------------

  ==> Integral Setup <==

  ==> DiskDFJK: Density-Fitted J/K Matrices <==

    J tasked:                  Yes
    K tasked:                  Yes
    wK tasked:                  No
    OpenMP threads:              8
    Integrals threads:           8
    Memory [MiB]:            35762
    Algorithm:                Core
    Integral Cache:           SAVE
    Schwarz Cutoff:          1E-12
    Fitting Condition:       1E-10

   => Auxiliary Basis Set <=

  Basis Set: (AUG-CC-PVTZ AUX)
    Blend: AUG-CC-PVTZ-JKFIT
    Number of shells: 246
    Number of basis function: 830
    Number of Cartesian functions: 1019
    Spherical Harmonics?: true
    Max angular momentum: 4

  Minimum eigenvalue in the overlap matrix is 3.8767379302E-05.
  Using Symmetric Orthogonalization.

  SCF Guess: Superposition of Atomic Densities via on-the-fly atomic UHF.

  ==> Iterations <==

                           Total Energy        Delta E     RMS |[F,P]|

   @DF-RHF iter SAD:  -209.01128231152086   -2.09011e+02   0.00000e+00 
   @DF-RHF iter   1:  -210.14619857521592   -1.13492e+00   1.61743e-03 DIIS
   @DF-RHF iter   2:  -210.29785855463592   -1.51660e-01   9.10997e-04 DIIS
   @DF-RHF iter   3:  -210.34571311530257   -4.78546e-02   1.34480e-04 DIIS
   @DF-RHF iter   4:  -210.34786187337897   -2.14876e-03   4.57555e-05 DIIS
   @DF-RHF iter   5:  -210.34806163592597   -1.99763e-04   1.11611e-05 DIIS
   @DF-RHF iter   6:  -210.34807603853878   -1.44026e-05   3.00788e-06 DIIS
   @DF-RHF iter   7:  -210.34807729229644   -1.25376e-06   1.02593e-06 DIIS
   @DF-RHF iter   8:  -210.34807743291350   -1.40617e-07   2.59086e-07 DIIS
   @DF-RHF iter   9:  -210.34807744747076   -1.45573e-08   5.68721e-08 DIIS
   @DF-RHF iter  10:  -210.34807744827771   -8.06949e-10   1.41375e-08 DIIS
   @DF-RHF iter  11:  -210.34807744831443   -3.67208e-11   4.45763e-09 DIIS
  Energy and wave function converged.


  ==> Post-Iterations <==

    Orbital Energies [Eh]
    ---------------------

    Doubly Occupied:                                                      

       1A    -20.562355     2A    -15.535608     3A    -11.272921  
       4A    -11.236746     5A     -1.360836     6A     -1.167411  
       7A     -0.928914     8A     -0.891945     9A     -0.694163  
      10A     -0.658292    11A     -0.623464    12A     -0.600326  
      13A     -0.595922    14A     -0.551710    15A     -0.512296  
      16A     -0.507904    17A     -0.454955    18A     -0.389468  

    Virtual:                                                              

      19A      0.026793    20A      0.035336    21A      0.040593  
      22A      0.043165    23A      0.048979    24A      0.054643  
      25A      0.060494    26A      0.071400    27A      0.085829  
      28A      0.096082    29A      0.106986    30A      0.117830  
      31A      0.122294    32A      0.136291    33A      0.140782  
      34A      0.144409    35A      0.153090    36A      0.158557  
      37A      0.162735    38A      0.175396    39A      0.177614  
      40A      0.190388    41A      0.200140    42A      0.205462  
      43A      0.212319    44A      0.230040    45A      0.243566  
      46A      0.257836    47A      0.264221    48A      0.267594  
      49A      0.272906    50A      0.283968    51A      0.285563  
      52A      0.288821    53A      0.300274    54A      0.304032  
      55A      0.320405    56A      0.325385    57A      0.330131  
      58A      0.331980    59A      0.334843    60A      0.347303  
      61A      0.353496    62A      0.378773    63A      0.378843  
      64A      0.385711    65A      0.389700    66A      0.393214  
      67A      0.396472    68A      0.407781    69A      0.409223  
      70A      0.413977    71A      0.422533    72A      0.429807  
      73A      0.437784    74A      0.444001    75A      0.446692  
      76A      0.452248    77A      0.456951    78A      0.458914  
      79A      0.464523    80A      0.467090    81A      0.483834  
      82A      0.488684    83A      0.493284    84A      0.505138  
      85A      0.506809    86A      0.512082    87A      0.521672  
      88A      0.526825    89A      0.550543    90A      0.561793  
      91A      0.578496    92A      0.596668    93A      0.625864  
      94A      0.628825    95A      0.648180    96A      0.667020  
      97A      0.672417    98A      0.687950    99A      0.709123  
     100A      0.759863   101A      0.769142   102A      0.783035  
     103A      0.790495   104A      0.793961   105A      0.813556  
     106A      0.817859   107A      0.820121   108A      0.839768  
     109A      0.858785   110A      0.867998   111A      0.871645  
     112A      0.874783   113A      0.879905   114A      0.889739  
     115A      0.903636   116A      0.911455   117A      0.919128  
     118A      0.928078   119A      0.932767   120A      0.940947  
     121A      0.943807   122A      0.952629   123A      0.953491  
     124A      0.960113   125A      0.965757   126A      0.973802  
     127A      0.980995   128A      0.989717   129A      0.992455  
     130A      1.000783   131A      1.013643   132A      1.019026  
     133A      1.030990   134A      1.044128   135A      1.058823  
     136A      1.062694   137A      1.072683   138A      1.084595  
     139A      1.088792   140A      1.096097   141A      1.099949  
     142A      1.109960   143A      1.113141   144A      1.117539  
     145A      1.121872   146A      1.136338   147A      1.148999  
     148A      1.151250   149A      1.155487   150A      1.173679  
     151A      1.181281   152A      1.187081   153A      1.201936  
     154A      1.209449   155A      1.214255   156A      1.234939  
     157A      1.248405   158A      1.261357   159A      1.271315  
     160A      1.285315   161A      1.307626   162A      1.309939  
     163A      1.314216   164A      1.318510   165A      1.347219  
     166A      1.358544   167A      1.383653   168A      1.405470  
     169A      1.416019   170A      1.433431   171A      1.450543  
     172A      1.458355   173A      1.471225   174A      1.492608  
     175A      1.510112   176A      1.539989   177A      1.562261  
     178A      1.567813   179A      1.597840   180A      1.606162  
     181A      1.617951   182A      1.619451   183A      1.631115  
     184A      1.651155   185A      1.656430   186A      1.664640  
     187A      1.670896   188A      1.672987   189A      1.681150  
     190A      1.708670   191A      1.723290   192A      1.730099  
     193A      1.736532   194A      1.747858   195A      1.782854  
     196A      1.789691   197A      1.846190   198A      1.862823  
     199A      1.902372   200A      1.939828   201A      1.945839  
     202A      1.954745   203A      1.965527   204A      1.986538  
     205A      2.016608   206A      2.018072   207A      2.031573  
     208A      2.036598   209A      2.046604   210A      2.053244  
     211A      2.060320   212A      2.079198   213A      2.088316  
     214A      2.090733   215A      2.104217   216A      2.181561  
     217A      2.195895   218A      2.212157   219A      2.225354  
     220A      2.239567   221A      2.252451   222A      2.301309  
     223A      2.321600   224A      2.380956   225A      2.424055  
     226A      2.451624   227A      2.455588   228A      2.477634  
     229A      2.486613   230A      2.500884   231A      2.524564  
     232A      2.551558   233A      2.566397   234A      2.572267  
     235A      2.583418   236A      2.614360   237A      2.702322  
     238A      2.739103   239A      2.763782   240A      2.790627  
     241A      2.848058   242A      2.899989   243A      2.928338  
     244A      2.961296   245A      2.985938   246A      3.052766  
     247A      3.129226   248A      3.198269   249A      3.323868  
     250A      3.371886   251A      3.385443   252A      3.413689  
     253A      3.423859   254A      3.533940   255A      3.555193  
     256A      3.584618   257A      3.588482   258A      3.609114  
     259A      3.615026   260A      3.618235   261A      3.627180  
     262A      3.651800   263A      3.666128   264A      3.700923  
     265A      3.712412   266A      3.761388   267A      3.794508  
     268A      3.856271   269A      3.863205   270A      3.880165  
     271A      3.888943   272A      3.898533   273A      3.925968  
     274A      3.936282   275A      3.944773   276A      3.969255  
     277A      4.001618   278A      4.015307   279A      4.064941  
     280A      4.087167   281A      4.090452   282A      4.093654  
     283A      4.110063   284A      4.119251   285A      4.128140  
     286A      4.158561   287A      4.171184   288A      4.206229  
     289A      4.214996   290A      4.228129   291A      4.228438  
     292A      4.241730   293A      4.280826   294A      4.285258  
     295A      4.316245   296A      4.328408   297A      4.379171  
     298A      4.423630   299A      4.455676   300A      4.472918  
     301A      4.496756   302A      4.503464   303A      4.524623  
     304A      4.556878   305A      4.601743   306A      4.607804  
     307A      4.614391   308A      4.641651   309A      4.650758  
     310A      4.689698   311A      4.736928   312A      4.760937  
     313A      4.765689   314A      4.769056   315A      4.771147  
     316A      4.808818   317A      4.818580   318A      4.894871  
     319A      4.898155   320A      4.914753   321A      4.981285  
     322A      4.999777   323A      5.005265   324A      5.023993  
     325A      5.038787   326A      5.045656   327A      5.057404  
     328A      5.064774   329A      5.112058   330A      5.129237  
     331A      5.142850   332A      5.159761   333A      5.204512  
     334A      5.238133   335A      5.250597   336A      5.256260  
     337A      5.262287   338A      5.366837   339A      5.385343  
     340A      5.475935   341A      5.492061   342A      5.536069  
     343A      5.549151   344A      5.568429   345A      5.573042  
     346A      5.597312   347A      5.600053   348A      5.644252  
     349A      5.718692   350A      5.780245   351A      5.815289  
     352A      5.875850   353A      5.924394   354A      5.978698  
     355A      5.998226   356A      6.110879   357A      6.114342  
     358A      6.121792   359A      6.126548   360A      6.140988  
     361A      6.175346   362A      6.184103   363A      6.262131  
     364A      6.415749   365A      6.551876   366A      6.560543  
     367A      6.569363   368A      6.621881   369A      6.657047  
     370A      6.710885   371A      6.769060   372A      6.819576  
     373A      6.888968   374A      6.900150   375A      7.033058  
     376A      7.071137   377A      7.099581   378A      7.264367  
     379A      7.319708   380A      7.375092   381A      7.479520  
     382A      7.536000   383A      7.740030   384A      7.801123  
     385A      7.852527   386A      8.139462   387A      8.515557  
     388A     15.596061   389A     16.961578   390A     17.773056  
     391A     18.059254  

    Final Occupation by Irrep:
              A 
    DOCC [    18 ]

  @DF-RHF Final Energy:  -210.34807744831443

   => Energetics <=

    Nuclear Repulsion Energy =            112.4759314768915601
    One-Electron Energy =                -508.5575432609423387
    Two-Electron Energy =                 185.7335343357363513
    Total Energy =                       -210.3480774483144273

Computation Completed


Properties will be evaluated at   0.000000,   0.000000,   0.000000 [a0]

Properties computed using the SCF density matrix

  Nuclear Dipole Moment: [e a0]
     X:    -2.0543      Y:     1.8070      Z:     2.4803

  Electronic Dipole Moment: [e a0]
     X:     2.5946      Y:    -1.4837      Z:    -2.1121

  Dipole Moment: [e a0]
     X:     0.5402      Y:     0.3233      Z:     0.3682     Total:     0.7293

  Dipole Moment: [D]
     X:     1.3731      Y:     0.8218      Z:     0.9358     Total:     1.8538


*** tstop() called on node43.bme.utexas.edu at Thu Apr 23 23:00:14 2020
Module time:
	user time   =      66.19 seconds =       1.10 minutes
	system time =       2.19 seconds =       0.04 minutes
	total time  =         10 seconds =       0.17 minutes
Total time:
	user time   =      66.19 seconds =       1.10 minutes
	system time =       2.19 seconds =       0.04 minutes
	total time  =         10 seconds =       0.17 minutes

  //>>>>>>>>>>>>>>>>>>>>>>>>>>>>>>>>>>>//
  //            Monomer A HF           //
  //<<<<<<<<<<<<<<<<<<<<<<<<<<<<<<<<<<<//


*** tstart() called on node43.bme.utexas.edu
*** at Thu Apr 23 23:00:14 2020

   => Loading Basis Set <=

    Name: AUG-CC-PVTZ
    Role: ORBITAL
    Keyword: BASIS
    atoms 1                  entry N          line   285 file /home/liuchw/anaconda3/envs/psi4env/share/psi4/basis/aug-cc-pvtz.gbs 
    atoms 2-3, 5-7, 9, 11-13 entry H          line    40 file /home/liuchw/anaconda3/envs/psi4env/share/psi4/basis/aug-cc-pvtz.gbs 
    atoms 4, 10              entry C          line   239 file /home/liuchw/anaconda3/envs/psi4env/share/psi4/basis/aug-cc-pvtz.gbs 
    atoms 8                  entry O          line   331 file /home/liuchw/anaconda3/envs/psi4env/share/psi4/basis/aug-cc-pvtz.gbs 


         ---------------------------------------------------------
                                   SCF
               by Justin Turney, Rob Parrish, Andy Simmonett
                          and Daniel G. A. Smith
                              RHF Reference
                        8 Threads,  47683 MiB Core
         ---------------------------------------------------------

  ==> Geometry <==

    Molecular point group: c1
    Full point group: C1

    Geometry (in Angstrom), charge = 0, multiplicity = 1:

       Center              X                  Y                   Z               Mass       
    ------------   -----------------  -----------------  -----------------  -----------------
         N           -2.711662549455    -0.518052245360    -0.625651817506    14.003074004430
         H           -1.721262549455    -0.730272245360    -0.653721817506     1.007825032230
         H           -3.186652549455    -1.407602245360    -0.548811817506     1.007825032230
         C           -2.993992549455     0.283697754640     0.562588182494    12.000000000000
         H           -4.059842549455     0.498007754640     0.612378182494     1.007825032230
         H           -2.699002549455    -0.169962245360     1.514558182494     1.007825032230
         H           -2.481222549455     1.240117754640     0.478158182494     1.007825032230
      Gh(O)           2.553987450545    -0.322622245360    -0.460441817506    15.994914619570
      Gh(H)           2.836017450545     0.047327754640    -1.300311817506     1.007825032230
      Gh(C)           2.939907450545     0.588967754640     0.558988182494    12.000000000000
      Gh(H)           2.616717450545     0.159337754640     1.502058182494     1.007825032230
      Gh(H)           4.020957450545     0.728047754640     0.598028182494     1.007825032230
      Gh(H)           2.461427450545     1.562567754640     0.443818182494     1.007825032230

  Running in c1 symmetry.

  Rotational constants: A =      0.40958  B =      0.03338  C =      0.03135 [cm^-1]
  Rotational constants: A =  12278.88008  B =   1000.68064  C =    939.99430 [MHz]
  Nuclear repulsion =   42.105869720643867

  Charge       = 0
  Multiplicity = 1
  Electrons    = 18
  Nalpha       = 9
  Nbeta        = 9

  ==> Algorithm <==

  SCF Algorithm Type is DF.
  DIIS enabled.
  MOM disabled.
  Fractional occupation disabled.
  Guess Type is SAD.
  Energy threshold   = 1.00e-08
  Density threshold  = 1.00e-08
  Integral threshold = 0.00e+00

  ==> Primary Basis <==

  Basis Set: AUG-CC-PVTZ
    Blend: AUG-CC-PVTZ
    Number of shells: 137
    Number of basis function: 391
    Number of Cartesian functions: 445
    Spherical Harmonics?: true
    Max angular momentum: 3

   => Loading Basis Set <=

    Name: (AUG-CC-PVTZ AUX)
    Role: JKFIT
    Keyword: DF_BASIS_SCF
    atoms 1                  entry N          line   224 file /home/liuchw/anaconda3/envs/psi4env/share/psi4/basis/aug-cc-pvtz-jkfit.gbs 
    atoms 2-3, 5-7, 9, 11-13 entry H          line    70 file /home/liuchw/anaconda3/envs/psi4env/share/psi4/basis/aug-cc-pvtz-jkfit.gbs 
    atoms 4, 10              entry C          line   162 file /home/liuchw/anaconda3/envs/psi4env/share/psi4/basis/aug-cc-pvtz-jkfit.gbs 
    atoms 8                  entry O          line   286 file /home/liuchw/anaconda3/envs/psi4env/share/psi4/basis/aug-cc-pvtz-jkfit.gbs 

  ==> Pre-Iterations <==

   -------------------------------------------------------
    Irrep   Nso     Nmo     Nalpha   Nbeta   Ndocc  Nsocc
   -------------------------------------------------------
     A        391     391       0       0       0       0
   -------------------------------------------------------
    Total     391     391       9       9       9       0
   -------------------------------------------------------

  ==> Integral Setup <==

  ==> DiskDFJK: Density-Fitted J/K Matrices <==

    J tasked:                  Yes
    K tasked:                  Yes
    wK tasked:                  No
    OpenMP threads:              8
    Integrals threads:           8
    Memory [MiB]:            35762
    Algorithm:                Core
    Integral Cache:           LOAD
    Schwarz Cutoff:          1E-12
    Fitting Condition:       1E-10

   => Auxiliary Basis Set <=

  Basis Set: (AUG-CC-PVTZ AUX)
    Blend: AUG-CC-PVTZ-JKFIT
    Number of shells: 246
    Number of basis function: 830
    Number of Cartesian functions: 1019
    Spherical Harmonics?: true
    Max angular momentum: 4

  Minimum eigenvalue in the overlap matrix is 3.8767379302E-05.
  Using Symmetric Orthogonalization.

  SCF Guess: Superposition of Atomic Densities via on-the-fly atomic UHF.

  ==> Iterations <==

                           Total Energy        Delta E     RMS |[F,P]|

   @DF-RHF iter SAD:   -94.62714955104808   -9.46271e+01   0.00000e+00 
   @DF-RHF iter   1:   -95.13862111213180   -5.11472e-01   1.20534e-03 DIIS
   @DF-RHF iter   2:   -95.22672685604030   -8.81057e-02   6.53866e-04 DIIS
   @DF-RHF iter   3:   -95.25410064382092   -2.73738e-02   9.24945e-05 DIIS
   @DF-RHF iter   4:   -95.25529843862724   -1.19779e-03   2.69613e-05 DIIS
   @DF-RHF iter   5:   -95.25537645900037   -7.80204e-05   6.54450e-06 DIIS
   @DF-RHF iter   6:   -95.25538259671974   -6.13772e-06   1.31906e-06 DIIS
   @DF-RHF iter   7:   -95.25538299736979   -4.00650e-07   3.01556e-07 DIIS
   @DF-RHF iter   8:   -95.25538302082840   -2.34586e-08   7.26358e-08 DIIS
   @DF-RHF iter   9:   -95.25538302244195   -1.61354e-09   1.74388e-08 DIIS
   @DF-RHF iter  10:   -95.25538302253507   -9.31237e-11   4.35597e-09 DIIS
  Energy and wave function converged.


  ==> Post-Iterations <==

    Orbital Energies [Eh]
    ---------------------

    Doubly Occupied:                                                      

       1A    -15.540498     2A    -11.240257     3A     -1.172055  
       4A     -0.895786     5A     -0.662926     6A     -0.604371  
       7A     -0.555713     8A     -0.516111     9A     -0.393901  

    Virtual:                                                              

      10A      0.020234    11A      0.033625    12A      0.039609  
      13A      0.041666    14A      0.047069    15A      0.054676  
      16A      0.058292    17A      0.071481    18A      0.081229  
      19A      0.089207    20A      0.100487    21A      0.105879  
      22A      0.116670    23A      0.120849    24A      0.134211  
      25A      0.138916    26A      0.147961    27A      0.151378  
      28A      0.156061    29A      0.165103    30A      0.168869  
      31A      0.185051    32A      0.192354    33A      0.203973  
      34A      0.220959    35A      0.226169    36A      0.238627  
      37A      0.247886    38A      0.263079    39A      0.269518  
      40A      0.276845    41A      0.282920    42A      0.283446  
      43A      0.289226    44A      0.293153    45A      0.296561  
      46A      0.311010    47A      0.313464    48A      0.324337  
      49A      0.329829    50A      0.333544    51A      0.337677  
      52A      0.346610    53A      0.352966    54A      0.370660  
      55A      0.375495    56A      0.384465    57A      0.385391  
      58A      0.394804    59A      0.398703    60A      0.406881  
      61A      0.416939    62A      0.418471    63A      0.431342  
      64A      0.436738    65A      0.437608    66A      0.441786  
      67A      0.447860    68A      0.457966    69A      0.460909  
      70A      0.471411    71A      0.475915    72A      0.478246  
      73A      0.486973    74A      0.497461    75A      0.505415  
      76A      0.507236    77A      0.514520    78A      0.536481  
      79A      0.540568    80A      0.551838    81A      0.567920  
      82A      0.590274    83A      0.592874    84A      0.616738  
      85A      0.625792    86A      0.631948    87A      0.648422  
      88A      0.660842    89A      0.667841    90A      0.707987  
      91A      0.767564    92A      0.772516    93A      0.797803  
      94A      0.811008    95A      0.817776    96A      0.823732  
      97A      0.834239    98A      0.850401    99A      0.856344  
     100A      0.861330   101A      0.864990   102A      0.866540  
     103A      0.878601   104A      0.893326   105A      0.902018  
     106A      0.913836   107A      0.920811   108A      0.927246  
     109A      0.944053   110A      0.948388   111A      0.955882  
     112A      0.964781   113A      0.976457   114A      0.983961  
     115A      0.987300   116A      0.992916   117A      0.997789  
     118A      0.999935   119A      1.001334   120A      1.024155  
     121A      1.030795   122A      1.040180   123A      1.049030  
     124A      1.052625   125A      1.069440   126A      1.075251  
     127A      1.081093   128A      1.087048   129A      1.088443  
     130A      1.096326   131A      1.100991   132A      1.108009  
     133A      1.110632   134A      1.113809   135A      1.143655  
     136A      1.144266   137A      1.152906   138A      1.155696  
     139A      1.173209   140A      1.174847   141A      1.180020  
     142A      1.197183   143A      1.205390   144A      1.208877  
     145A      1.229129   146A      1.234499   147A      1.246260  
     148A      1.255258   149A      1.262842   150A      1.267431  
     151A      1.274610   152A      1.295891   153A      1.308670  
     154A      1.312453   155A      1.327544   156A      1.342058  
     157A      1.357601   158A      1.376994   159A      1.397780  
     160A      1.418304   161A      1.428480   162A      1.430937  
     163A      1.446221   164A      1.451686   165A      1.466507  
     166A      1.491532   167A      1.505302   168A      1.578455  
     169A      1.589309   170A      1.614494   171A      1.616536  
     172A      1.651800   173A      1.655501   174A      1.663016  
     175A      1.676714   176A      1.691811   177A      1.698363  
     178A      1.705099   179A      1.718414   180A      1.738583  
     181A      1.747931   182A      1.769613   183A      1.782611  
     184A      1.800804   185A      1.826422   186A      1.842913  
     187A      1.846961   188A      1.858079   189A      1.874543  
     190A      1.908539   191A      1.914560   192A      1.941869  
     193A      1.948416   194A      2.008944   195A      2.012951  
     196A      2.026364   197A      2.039223   198A      2.042008  
     199A      2.048075   200A      2.076633   201A      2.085487  
     202A      2.094332   203A      2.120793   204A      2.143393  
     205A      2.193585   206A      2.208020   207A      2.214425  
     208A      2.226156   209A      2.235877   210A      2.245936  
     211A      2.283872   212A      2.304924   213A      2.317760  
     214A      2.332952   215A      2.400294   216A      2.409929  
     217A      2.422343   218A      2.448267   219A      2.454149  
     220A      2.492676   221A      2.532016   222A      2.543595  
     223A      2.567239   224A      2.580848   225A      2.609786  
     226A      2.639448   227A      2.677532   228A      2.696748  
     229A      2.699968   230A      2.723665   231A      2.727415  
     232A      2.898402   233A      2.922729   234A      3.014348  
     235A      3.025075   236A      3.114341   237A      3.129608  
     238A      3.172025   239A      3.265171   240A      3.307410  
     241A      3.377979   242A      3.390120   243A      3.396102  
     244A      3.418006   245A      3.481320   246A      3.487253  
     247A      3.583867   248A      3.605702   249A      3.614251  
     250A      3.621313   251A      3.648346   252A      3.649344  
     253A      3.700850   254A      3.757516   255A      3.769113  
     256A      3.853555   257A      3.876095   258A      3.892640  
     259A      3.921984   260A      3.924268   261A      3.966740  
     262A      4.011192   263A      4.050556   264A      4.086941  
     265A      4.089263   266A      4.115033   267A      4.119844  
     268A      4.127833   269A      4.132677   270A      4.152511  
     271A      4.159407   272A      4.161033   273A      4.210799  
     274A      4.224604   275A      4.277241   276A      4.310363  
     277A      4.324519   278A      4.373386   279A      4.400811  
     280A      4.418930   281A      4.420745   282A      4.451168  
     283A      4.457982   284A      4.479793   285A      4.493016  
     286A      4.500037   287A      4.514901   288A      4.545274  
     289A      4.591462   290A      4.598085   291A      4.604168  
     292A      4.638388   293A      4.676484   294A      4.684539  
     295A      4.685980   296A      4.732688   297A      4.744231  
     298A      4.761149   299A      4.804601   300A      4.813819  
     301A      4.839237   302A      4.858349   303A      4.892091  
     304A      4.895185   305A      4.949605   306A      4.958532  
     307A      4.985682   308A      4.995281   309A      5.001291  
     310A      5.040969   311A      5.048950   312A      5.053330  
     313A      5.108116   314A      5.125188   315A      5.148675  
     316A      5.155297   317A      5.200100   318A      5.234324  
     319A      5.237766   320A      5.255865   321A      5.301580  
     322A      5.337821   323A      5.363298   324A      5.365194  
     325A      5.372119   326A      5.460760   327A      5.466725  
     328A      5.488050   329A      5.514549   330A      5.545345  
     331A      5.564584   332A      5.569543   333A      5.661999  
     334A      5.721946   335A      5.773935   336A      5.776120  
     337A      5.811097   338A      5.835181   339A      5.871339  
     340A      5.920003   341A      5.974437   342A      5.993639  
     343A      6.049167   344A      6.117699   345A      6.122718  
     346A      6.172949   347A      6.180417   348A      6.206291  
     349A      6.222627   350A      6.257154   351A      6.337909  
     352A      6.411600   353A      6.472365   354A      6.549518  
     355A      6.565244   356A      6.703542   357A      6.751266  
     358A      6.758535   359A      6.793481   360A      6.816776  
     361A      7.028040   362A      7.057223   363A      7.094955  
     364A      7.235413   365A      7.692624   366A      7.709791  
     367A      7.753253   368A      7.795743   369A      7.831480  
     370A      7.840636   371A      8.039820   372A      8.087893  
     373A      8.101383   374A      8.184563   375A      8.299952  
     376A      8.548215   377A      8.771628   378A      9.817984  
     379A      9.961551   380A     10.272447   381A     10.334847  
     382A     10.558934   383A     10.948067   384A     11.763466  
     385A     12.115573   386A     13.117757   387A     13.951446  
     388A     16.958223   389A     18.051548   390A     52.726547  
     391A     64.914774  

    Final Occupation by Irrep:
              A 
    DOCC [     9 ]

  @DF-RHF Final Energy:   -95.25538302253507

   => Energetics <=

    Nuclear Repulsion Energy =             42.1058697206438666
    One-Electron Energy =                -211.5592675085273981
    Two-Electron Energy =                  74.1980147653484750
    Total Energy =                        -95.2553830225350708

Computation Completed


Properties will be evaluated at   0.000000,   0.000000,   0.000000 [a0]

Properties computed using the SCF density matrix

  Nuclear Dipole Moment: [e a0]
     X:   -96.5529      Y:    -4.7128      Z:     0.7531

  Electronic Dipole Moment: [e a0]
     X:    96.7216      Y:     4.4204      Z:    -0.2951

  Dipole Moment: [e a0]
     X:     0.1687      Y:    -0.2924      Z:     0.4580     Total:     0.5690

  Dipole Moment: [D]
     X:     0.4288      Y:    -0.7431      Z:     1.1642     Total:     1.4461


*** tstop() called on node43.bme.utexas.edu at Thu Apr 23 23:00:19 2020
Module time:
	user time   =      37.19 seconds =       0.62 minutes
	system time =       1.23 seconds =       0.02 minutes
	total time  =          5 seconds =       0.08 minutes
Total time:
	user time   =     103.44 seconds =       1.72 minutes
	system time =       3.42 seconds =       0.06 minutes
	total time  =         15 seconds =       0.25 minutes

  //>>>>>>>>>>>>>>>>>>>>>>>>>>>>>>>>>>>//
  //            Monomer B HF           //
  //<<<<<<<<<<<<<<<<<<<<<<<<<<<<<<<<<<<//


*** tstart() called on node43.bme.utexas.edu
*** at Thu Apr 23 23:00:19 2020

   => Loading Basis Set <=

    Name: AUG-CC-PVTZ
    Role: ORBITAL
    Keyword: BASIS
    atoms 1                  entry N          line   285 file /home/liuchw/anaconda3/envs/psi4env/share/psi4/basis/aug-cc-pvtz.gbs 
    atoms 2-3, 5-7, 9, 11-13 entry H          line    40 file /home/liuchw/anaconda3/envs/psi4env/share/psi4/basis/aug-cc-pvtz.gbs 
    atoms 4, 10              entry C          line   239 file /home/liuchw/anaconda3/envs/psi4env/share/psi4/basis/aug-cc-pvtz.gbs 
    atoms 8                  entry O          line   331 file /home/liuchw/anaconda3/envs/psi4env/share/psi4/basis/aug-cc-pvtz.gbs 


         ---------------------------------------------------------
                                   SCF
               by Justin Turney, Rob Parrish, Andy Simmonett
                          and Daniel G. A. Smith
                              RHF Reference
                        8 Threads,  47683 MiB Core
         ---------------------------------------------------------

  ==> Geometry <==

    Molecular point group: c1
    Full point group: C1

    Geometry (in Angstrom), charge = 0, multiplicity = 1:

       Center              X                  Y                   Z               Mass       
    ------------   -----------------  -----------------  -----------------  -----------------
      Gh(N)          -2.711662549455    -0.518052245360    -0.625651817506    14.003074004430
      Gh(H)          -1.721262549455    -0.730272245360    -0.653721817506     1.007825032230
      Gh(H)          -3.186652549455    -1.407602245360    -0.548811817506     1.007825032230
      Gh(C)          -2.993992549455     0.283697754640     0.562588182494    12.000000000000
      Gh(H)          -4.059842549455     0.498007754640     0.612378182494     1.007825032230
      Gh(H)          -2.699002549455    -0.169962245360     1.514558182494     1.007825032230
      Gh(H)          -2.481222549455     1.240117754640     0.478158182494     1.007825032230
         O            2.553987450545    -0.322622245360    -0.460441817506    15.994914619570
         H            2.836017450545     0.047327754640    -1.300311817506     1.007825032230
         C            2.939907450545     0.588967754640     0.558988182494    12.000000000000
         H            2.616717450545     0.159337754640     1.502058182494     1.007825032230
         H            4.020957450545     0.728047754640     0.598028182494     1.007825032230
         H            2.461427450545     1.562567754640     0.443818182494     1.007825032230

  Running in c1 symmetry.

  Rotational constants: A =      0.40958  B =      0.03338  C =      0.03135 [cm^-1]
  Rotational constants: A =  12278.88008  B =   1000.68064  C =    939.99430 [MHz]
  Nuclear repulsion =   40.347052168331359

  Charge       = 0
  Multiplicity = 1
  Electrons    = 18
  Nalpha       = 9
  Nbeta        = 9

  ==> Algorithm <==

  SCF Algorithm Type is DF.
  DIIS enabled.
  MOM disabled.
  Fractional occupation disabled.
  Guess Type is SAD.
  Energy threshold   = 1.00e-08
  Density threshold  = 1.00e-08
  Integral threshold = 0.00e+00

  ==> Primary Basis <==

  Basis Set: AUG-CC-PVTZ
    Blend: AUG-CC-PVTZ
    Number of shells: 137
    Number of basis function: 391
    Number of Cartesian functions: 445
    Spherical Harmonics?: true
    Max angular momentum: 3

   => Loading Basis Set <=

    Name: (AUG-CC-PVTZ AUX)
    Role: JKFIT
    Keyword: DF_BASIS_SCF
    atoms 1                  entry N          line   224 file /home/liuchw/anaconda3/envs/psi4env/share/psi4/basis/aug-cc-pvtz-jkfit.gbs 
    atoms 2-3, 5-7, 9, 11-13 entry H          line    70 file /home/liuchw/anaconda3/envs/psi4env/share/psi4/basis/aug-cc-pvtz-jkfit.gbs 
    atoms 4, 10              entry C          line   162 file /home/liuchw/anaconda3/envs/psi4env/share/psi4/basis/aug-cc-pvtz-jkfit.gbs 
    atoms 8                  entry O          line   286 file /home/liuchw/anaconda3/envs/psi4env/share/psi4/basis/aug-cc-pvtz-jkfit.gbs 

  ==> Pre-Iterations <==

   -------------------------------------------------------
    Irrep   Nso     Nmo     Nalpha   Nbeta   Ndocc  Nsocc
   -------------------------------------------------------
     A        391     391       0       0       0       0
   -------------------------------------------------------
    Total     391     391       9       9       9       0
   -------------------------------------------------------

  ==> Integral Setup <==

  ==> DiskDFJK: Density-Fitted J/K Matrices <==

    J tasked:                  Yes
    K tasked:                  Yes
    wK tasked:                  No
    OpenMP threads:              8
    Integrals threads:           8
    Memory [MiB]:            35762
    Algorithm:                Core
    Integral Cache:           LOAD
    Schwarz Cutoff:          1E-12
    Fitting Condition:       1E-10

   => Auxiliary Basis Set <=

  Basis Set: (AUG-CC-PVTZ AUX)
    Blend: AUG-CC-PVTZ-JKFIT
    Number of shells: 246
    Number of basis function: 830
    Number of Cartesian functions: 1019
    Spherical Harmonics?: true
    Max angular momentum: 4

  Minimum eigenvalue in the overlap matrix is 3.8767379302E-05.
  Using Symmetric Orthogonalization.

  SCF Guess: Superposition of Atomic Densities via on-the-fly atomic UHF.

  ==> Iterations <==

                           Total Energy        Delta E     RMS |[F,P]|

   @DF-RHF iter SAD:  -114.38269296802440   -1.14383e+02   0.00000e+00 
   @DF-RHF iter   1:  -115.00631359637637   -6.23621e-01   1.08213e-03 DIIS
   @DF-RHF iter   2:  -115.07016997896493   -6.38564e-02   6.38868e-04 DIIS
   @DF-RHF iter   3:  -115.09100823380685   -2.08383e-02   9.48587e-05 DIIS
   @DF-RHF iter   4:  -115.09197788839599   -9.69655e-04   2.98635e-05 DIIS
   @DF-RHF iter   5:  -115.09207204034594   -9.41519e-05   6.73430e-06 DIIS
   @DF-RHF iter   6:  -115.09207812560183   -6.08526e-06   1.54309e-06 DIIS
   @DF-RHF iter   7:  -115.09207862692361   -5.01322e-07   3.61274e-07 DIIS
   @DF-RHF iter   8:  -115.09207865663797   -2.97144e-08   7.67008e-08 DIIS
   @DF-RHF iter   9:  -115.09207865788127   -1.24331e-09   1.44820e-08 DIIS
   @DF-RHF iter  10:  -115.09207865792169   -4.04157e-11   3.43483e-09 DIIS
  Energy and wave function converged.


  ==> Post-Iterations <==

    Orbital Energies [Eh]
    ---------------------

    Doubly Occupied:                                                      

       1A    -20.559597     2A    -11.270538     3A     -1.358080  
       4A     -0.926445     5A     -0.691502     6A     -0.620942  
       7A     -0.593224     8A     -0.505220     9A     -0.452287  

    Virtual:                                                              

      10A      0.023259    11A      0.031880    12A      0.040234  
      13A      0.042871    14A      0.048196    15A      0.054402  
      16A      0.059210    17A      0.068615    18A      0.083918  
      19A      0.094691    20A      0.103212    21A      0.106787  
      22A      0.120302    23A      0.121886    24A      0.131369  
      25A      0.138653    26A      0.143499    27A      0.147749  
      28A      0.157111    29A      0.163520    30A      0.176565  
      31A      0.185706    32A      0.204094    33A      0.206747  
      34A      0.213645    35A      0.225449    36A      0.242852  
      37A      0.264879    38A      0.268275    39A      0.272961  
      40A      0.278934    41A      0.287672    42A      0.290015  
      43A      0.296767    44A      0.299370    45A      0.305647  
      46A      0.310164    47A      0.313157    48A      0.317409  
      49A      0.331504    50A      0.335406    51A      0.338872  
      52A      0.340790    53A      0.342956    54A      0.356857  
      55A      0.365359    56A      0.378482    57A      0.384028  
      58A      0.397012    59A      0.398557    60A      0.409704  
      61A      0.417605    62A      0.423950    63A      0.432185  
      64A      0.436934    65A      0.443094    66A      0.445850  
      67A      0.447971    68A      0.456351    69A      0.464764  
      70A      0.467520    71A      0.475914    72A      0.490553  
      73A      0.501035    74A      0.504661    75A      0.511061  
      76A      0.513839    77A      0.526229    78A      0.534859  
      79A      0.547881    80A      0.551460    81A      0.579788  
      82A      0.589289    83A      0.624383    84A      0.650928  
      85A      0.668698    86A      0.674971    87A      0.680119  
      88A      0.688458    89A      0.698393    90A      0.717781  
      91A      0.735452    92A      0.752918    93A      0.754734  
      94A      0.776531    95A      0.783380    96A      0.787732  
      97A      0.801576    98A      0.803626    99A      0.817995  
     100A      0.825706   101A      0.860683   102A      0.875494  
     103A      0.882825   104A      0.899505   105A      0.908366  
     106A      0.914375   107A      0.935190   108A      0.940718  
     109A      0.947555   110A      0.954750   111A      0.959175  
     112A      0.968042   113A      0.976292   114A      0.982818  
     115A      0.989483   116A      1.000104   117A      1.010124  
     118A      1.018102   119A      1.027136   120A      1.032480  
     121A      1.055218   122A      1.062014   123A      1.065900  
     124A      1.076302   125A      1.081015   126A      1.087626  
     127A      1.088844   128A      1.094009   129A      1.109725  
     130A      1.112353   131A      1.119103   132A      1.121664  
     133A      1.135618   134A      1.138232   135A      1.148777  
     136A      1.154032   137A      1.156139   138A      1.160330  
     139A      1.172848   140A      1.186338   141A      1.189724  
     142A      1.211889   143A      1.212267   144A      1.221846  
     145A      1.233630   146A      1.239814   147A      1.248603  
     148A      1.265230   149A      1.294059   150A      1.294998  
     151A      1.306178   152A      1.317839   153A      1.324969  
     154A      1.362278   155A      1.377319   156A      1.384760  
     157A      1.405800   158A      1.412907   159A      1.418721  
     160A      1.423670   161A      1.435707   162A      1.464769  
     163A      1.495485   164A      1.497766   165A      1.540953  
     166A      1.554896   167A      1.565517   168A      1.571484  
     169A      1.582724   170A      1.592288   171A      1.601728  
     172A      1.617546   173A      1.627308   174A      1.636708  
     175A      1.655084   176A      1.660777   177A      1.669469  
     178A      1.674688   179A      1.691127   180A      1.708330  
     181A      1.713440   182A      1.723039   183A      1.738039  
     184A      1.762669   185A      1.787007   186A      1.794676  
     187A      1.843122   188A      1.857639   189A      1.886425  
     190A      1.906854   191A      1.943921   192A      1.966432  
     193A      1.990426   194A      2.015587   195A      2.030309  
     196A      2.037249   197A      2.044082   198A      2.051048  
     199A      2.063153   200A      2.084168   201A      2.090138  
     202A      2.135412   203A      2.147377   204A      2.180676  
     205A      2.186182   206A      2.199639   207A      2.201059  
     208A      2.212313   209A      2.232714   210A      2.245877  
     211A      2.349115   212A      2.356743   213A      2.385311  
     214A      2.397915   215A      2.422218   216A      2.425451  
     217A      2.478977   218A      2.487093   219A      2.499328  
     220A      2.527726   221A      2.561701   222A      2.566253  
     223A      2.585201   224A      2.686893   225A      2.721354  
     226A      2.738313   227A      2.753399   228A      2.766180  
     229A      2.782632   230A      2.793571   231A      2.844088  
     232A      2.851189   233A      2.857485   234A      2.907078  
     235A      2.936265   236A      2.963472   237A      2.988427  
     238A      3.014856   239A      3.055229   240A      3.070054  
     241A      3.071911   242A      3.201628   243A      3.247560  
     244A      3.288431   245A      3.327706   246A      3.396074  
     247A      3.429004   248A      3.536970   249A      3.559119  
     250A      3.588142   251A      3.629540   252A      3.658507  
     253A      3.707751   254A      3.796960   255A      3.864533  
     256A      3.892646   257A      3.896852   258A      3.938735  
     259A      3.946922   260A      4.002864   261A      4.067490  
     262A      4.089389   263A      4.098349   264A      4.112213  
     265A      4.136824   266A      4.145337   267A      4.162331  
     268A      4.166924   269A      4.177999   270A      4.208954  
     271A      4.230640   272A      4.242113   273A      4.285477  
     274A      4.307275   275A      4.398917   276A      4.421968  
     277A      4.438980   278A      4.446042   279A      4.474463  
     280A      4.477285   281A      4.494184   282A      4.504620  
     283A      4.526753   284A      4.543069   285A      4.561237  
     286A      4.580067   287A      4.615503   288A      4.617970  
     289A      4.652765   290A      4.704653   291A      4.721006  
     292A      4.746815   293A      4.765413   294A      4.769496  
     295A      4.772989   296A      4.781489   297A      4.785615  
     298A      4.806734   299A      4.878500   300A      4.915152  
     301A      4.966625   302A      4.979741   303A      4.981280  
     304A      4.985900   305A      5.001775   306A      5.026971  
     307A      5.032899   308A      5.041541   309A      5.065517  
     310A      5.068108   311A      5.144811   312A      5.201723  
     313A      5.252789   314A      5.258872   315A      5.261278  
     316A      5.300625   317A      5.313592   318A      5.347339  
     319A      5.370909   320A      5.387498   321A      5.439322  
     322A      5.470710   323A      5.473025   324A      5.478966  
     325A      5.484676   326A      5.521596   327A      5.538791  
     328A      5.599323   329A      5.601975   330A      5.609033  
     331A      5.646709   332A      5.671448   333A      5.721300  
     334A      5.762354   335A      5.790977   336A      5.830039  
     337A      5.944096   338A      5.950043   339A      6.005086  
     340A      6.113667   341A      6.116962   342A      6.128541  
     343A      6.142888   344A      6.161283   345A      6.177829  
     346A      6.265486   347A      6.433534   348A      6.487465  
     349A      6.562371   350A      6.624263   351A      6.641515  
     352A      6.664485   353A      6.746447   354A      6.889743  
     355A      6.902661   356A      6.931371   357A      6.952859  
     358A      7.063577   359A      7.074568   360A      7.171005  
     361A      7.187503   362A      7.266983   363A      7.322521  
     364A      7.377600   365A      7.482126   366A      7.522029  
     367A      7.538715   368A      7.581845   369A      7.604981  
     370A      7.742410   371A      7.796965   372A      7.853818  
     373A      7.869934   374A      7.873652   375A      8.005935  
     376A      8.076588   377A      8.141589   378A      8.148133  
     379A      8.246524   380A      8.518360   381A      8.700043  
     382A      9.358728   383A      9.798103   384A     10.461519  
     385A     10.997932   386A     11.252934   387A     12.020761  
     388A     15.599365   389A     17.777973   390A     52.908283  
     391A     58.973673  

    Final Occupation by Irrep:
              A 
    DOCC [     9 ]

  @DF-RHF Final Energy:  -115.09207865792169

   => Energetics <=

    Nuclear Repulsion Energy =             40.3470521683313592
    One-Electron Energy =                -236.9225915201204771
    Two-Electron Energy =                  81.4834606938674426
    Total Energy =                       -115.0920786579216895

Computation Completed


Properties will be evaluated at   0.000000,   0.000000,   0.000000 [a0]

Properties computed using the SCF density matrix

  Nuclear Dipole Moment: [e a0]
     X:    94.4985      Y:     6.5198      Z:     1.7272

  Electronic Dipole Moment: [e a0]
     X:   -94.1570      Y:    -5.8979      Z:    -1.8103

  Dipole Moment: [e a0]
     X:     0.3415      Y:     0.6219      Z:    -0.0831     Total:     0.7143

  Dipole Moment: [D]
     X:     0.8680      Y:     1.5807      Z:    -0.2113     Total:     1.8157


*** tstop() called on node43.bme.utexas.edu at Thu Apr 23 23:00:25 2020
Module time:
	user time   =      36.23 seconds =       0.60 minutes
	system time =       1.05 seconds =       0.02 minutes
	total time  =          6 seconds =       0.10 minutes
Total time:
	user time   =     139.73 seconds =       2.33 minutes
	system time =       4.47 seconds =       0.07 minutes
	total time  =         21 seconds =       0.35 minutes
  Constructing Basis Sets for SAPT...

   => Loading Basis Set <=

    Name: (AUG-CC-PVTZ AUX)
    Role: RIFIT
    Keyword: DF_BASIS_SAPT
    atoms 1                  entry N          line   206 file /home/liuchw/anaconda3/envs/psi4env/share/psi4/basis/aug-cc-pvtz-ri.gbs 
    atoms 2-3, 5-7, 9, 11-13 entry H          line    30 file /home/liuchw/anaconda3/envs/psi4env/share/psi4/basis/aug-cc-pvtz-ri.gbs 
    atoms 4, 10              entry C          line   148 file /home/liuchw/anaconda3/envs/psi4env/share/psi4/basis/aug-cc-pvtz-ri.gbs 
    atoms 8                  entry O          line   264 file /home/liuchw/anaconda3/envs/psi4env/share/psi4/basis/aug-cc-pvtz-ri.gbs 


  //>>>>>>>>>>>>>>>>>>>>>>>>>>>>>>>>>>>//
  //               SAPT2+              //
  //<<<<<<<<<<<<<<<<<<<<<<<<<<<<<<<<<<<//


*** tstart() called on node43.bme.utexas.edu
*** at Thu Apr 23 23:00:25 2020

        SAPT2+  
    Ed Hohenstein
     6 June 2009

      Orbital Information
  --------------------------
    NSO        =       391
    NMO        =       391
    NRI        =       838
    NOCC A     =         9
    NOCC B     =         9
    FOCC A     =         2
    FOCC B     =         2
    NVIR A     =       382
    NVIR B     =       382

    Estimated memory usage: 1262.0 MB

    Natural Orbital Cutoff:   1.000E-06
    Disp(T3) Truncation:            Yes
    CCD (vv|vv) Truncation:         Yes
    MBPT T2 Truncation:             Yes

    Monomer A: 211 virtual orbitals dropped
    Monomer B: 230 virtual orbitals dropped

    Elst10,r            =    -0.000596199077 [Eh]
    Exch10 (S^2)        =     0.000003245114 [Eh]
    Exch10              =     0.000003245127 [Eh]
    Ind20,r (A<-B)      =    -0.000017495095 [Eh]
    Ind20,r (B<-A)      =    -0.000004912855 [Eh]
    Ind20,r             =    -0.000022407950 [Eh]
    Exch-Ind20,r (A<-B) =     0.000000153761 [Eh]
    Exch-Ind20,r (B<-A) =     0.000000205466 [Eh]
    Exch-Ind20,r        =     0.000000359227 [Eh]
    Disp20              =    -0.000180255089 [Eh]
    Disp20 (NO)         =    -0.000173836988 [Eh]
    Exch-Disp20         =     0.000000549170 [Eh]
    Elst12,r            =     0.000040131568 [Eh]
    Exch11              =    -0.000000121932 [Eh]
    Exch12              =     0.000001698977 [Eh]
    Ind22               =     0.000000236452 [Eh]
    Disp21              =     0.000013672367 [Eh]
    Disp22 (SDQ)        =     0.000004539561 [Eh]

    (i =   1 of   7)          7 seconds
    (i =   2 of   7)         14 seconds
    (i =   3 of   7)         22 seconds
    (i =   4 of   7)         29 seconds
    (i =   5 of   7)         36 seconds
    (i =   6 of   7)         43 seconds
    (i =   7 of   7)         50 seconds

    Disp220 (T)         =    -0.000014181003 [Eh]

    (i =   1 of   7)          6 seconds
    (i =   2 of   7)         12 seconds
    (i =   3 of   7)         18 seconds
    (i =   4 of   7)         24 seconds
    (i =   5 of   7)         29 seconds
    (i =   6 of   7)         35 seconds
    (i =   7 of   7)         41 seconds

    Disp202 (T)         =    -0.000015826778 [Eh]

    Disp22 (T)          =    -0.000030007781 [Eh]

    Est. Disp220 (T)    =    -0.000014704569 [Eh]
    Est. Disp202 (T)    =    -0.000016411106 [Eh]

    Est. Disp22 (T)     =    -0.000031115675 [Eh]

    SAPT Results 
  --------------------------------------------------------------------------------------------------------
    Electrostatics                 -0.55606751 [mEh]      -0.34893763 [kcal/mol]      -1.45995504 [kJ/mol]
      Elst10,r                     -0.59619908 [mEh]      -0.37412057 [kcal/mol]      -1.56532046 [kJ/mol]
      Elst12,r                      0.04013157 [mEh]       0.02518294 [kcal/mol]       0.10536542 [kJ/mol]

    Exchange                        0.00482217 [mEh]       0.00302596 [kcal/mol]       0.01266061 [kJ/mol]
      Exch10                        0.00324513 [mEh]       0.00203635 [kcal/mol]       0.00852008 [kJ/mol]
      Exch10(S^2)                   0.00324511 [mEh]       0.00203634 [kcal/mol]       0.00852005 [kJ/mol]
      Exch11(S^2)                  -0.00012193 [mEh]      -0.00007651 [kcal/mol]      -0.00032013 [kJ/mol]
      Exch12(S^2)                   0.00169898 [mEh]       0.00106612 [kcal/mol]       0.00446066 [kJ/mol]

    Induction                      -0.02258125 [mEh]      -0.01416995 [kcal/mol]      -0.05928705 [kJ/mol]
      Ind20,r                      -0.02240795 [mEh]      -0.01406120 [kcal/mol]      -0.05883207 [kJ/mol]
      Ind22                         0.00023645 [mEh]       0.00014838 [kcal/mol]       0.00062080 [kJ/mol]
      Exch-Ind20,r                  0.00035923 [mEh]       0.00022542 [kcal/mol]       0.00094315 [kJ/mol]
      Exch-Ind22                   -0.00000379 [mEh]      -0.00000238 [kcal/mol]      -0.00000995 [kJ/mol]
      delta HF,r (2)               -0.00076518 [mEh]      -0.00048016 [kcal/mol]      -0.00200899 [kJ/mol]

    Dispersion                     -0.19260967 [mEh]      -0.12086439 [kcal/mol]      -0.50569661 [kJ/mol]
      Disp20                       -0.18025509 [mEh]      -0.11311178 [kcal/mol]      -0.47325967 [kJ/mol]
      Disp21                        0.01367237 [mEh]       0.00857954 [kcal/mol]       0.03589680 [kJ/mol]
      Disp22 (SDQ)                  0.00453956 [mEh]       0.00284862 [kcal/mol]       0.01191862 [kJ/mol]
      Disp22 (T)                   -0.03000778 [mEh]      -0.01883017 [kcal/mol]      -0.07878542 [kJ/mol]
      Est. Disp22 (T)              -0.03111568 [mEh]      -0.01952538 [kcal/mol]      -0.08169419 [kJ/mol]
      Exch-Disp20                   0.00054917 [mEh]       0.00034461 [kcal/mol]       0.00144185 [kJ/mol]

  Total HF                         -0.61576786 [mEh]      -0.38640016 [kcal/mol]      -1.61669829 [kJ/mol]
  Total SAPT0                      -0.79547378 [mEh]      -0.49916733 [kcal/mol]      -2.08851611 [kJ/mol]
  Total SAPT2                      -0.75353250 [mEh]      -0.47284878 [kcal/mol]      -1.97839931 [kJ/mol]
  Total SAPT2+                     -0.76643625 [mEh]      -0.48094601 [kcal/mol]      -2.01227809 [kJ/mol]

  Special recipe for scaled SAPT0 (see Manual):
    Electrostatics sSAPT0          -0.59619908 [mEh]      -0.37412057 [kcal/mol]      -1.56532046 [kJ/mol]
    Exchange sSAPT0                 0.00324513 [mEh]       0.00203635 [kcal/mol]       0.00852008 [kJ/mol]
    Induction sSAPT0               -0.02281391 [mEh]      -0.01431594 [kcal/mol]      -0.05989791 [kJ/mol]
    Dispersion sSAPT0              -0.17970592 [mEh]      -0.11276717 [kcal/mol]      -0.47181783 [kJ/mol]
  Total sSAPT0                     -0.79547378 [mEh]      -0.49916733 [kcal/mol]      -2.08851611 [kJ/mol]
  --------------------------------------------------------------------------------------------------------

*** tstop() called on node43.bme.utexas.edu at Thu Apr 23 23:03:36 2020
Module time:
	user time   =    1368.44 seconds =      22.81 minutes
	system time =      46.50 seconds =       0.78 minutes
	total time  =        191 seconds =       3.18 minutes
Total time:
	user time   =    1509.17 seconds =      25.15 minutes
	system time =      51.04 seconds =       0.85 minutes
	total time  =        212 seconds =       3.53 minutes

    Psi4 stopped on: Thursday, 23 April 2020 11:03PM
    Psi4 wall time for execution: 0:03:32.29

*** Psi4 exiting successfully. Buy a developer a beer!
