    -----------------------------------------------------------------------
          PSI4: An Open-Source Ab Initio Electronic Structure Package
                              PSI 4.0.0-beta4 Driver

    J. M. Turney, A. C. Simmonett, R. M. Parrish, E. G. Hohenstein,
    F. A. Evangelista, J. T. Fermann, B. J. Mintz, L. A. Burns, J. J. Wilke,
    M. L. Abrams, N. J. Russ, M. L. Leininger, C. L. Janssen, E. T. Seidl,
    W. D. Allen, H. F. Schaefer, R. A. King, E. F. Valeev, C. D. Sherrill,
    and T. D. Crawford, WIREs Comput. Mol. Sci., (2011) (doi: 10.1002/wcms.93)

                         Additional Contributions by
    A. E. DePrince, M. Saitow, U. Bozkaya, A. Yu. Sokolov
    -----------------------------------------------------------------------

    Process ID:  22590
    PSI4DATADIR: /home/xzhu216/psi4/psi4-install/share/psi

    Using LocalCommunicator (Number of processes = 1)

    Memory level set to 256.000 MB

  ==> Input File <==

--------------------------------------------------------------------------
#psi4
#
memory 3 gb

molecule MeNH2_MeNH2 {
0 1
N   -0.638641380   0.470916372   0.044568477
H    0.189954359  -0.113937162  -0.005773605
H   -1.300468945   0.081256802  -0.613668480
C   -1.198658820   0.391398577   1.391946599
H   -2.092737771   1.009244715   1.453167495
H   -1.462745512  -0.615843668   1.729452190
H   -0.480275539   0.798674912   2.101087305
--
0 1
N    2.318675758  -0.443116514   0.189679169
H    2.614944428  -0.168578779  -0.738306074
H    2.942225425  -1.190806830   0.464874032
C    2.478905734   0.692094079   1.103354473
H    2.208715430   0.377398299   2.109007582
H    3.486316045   1.113870638   1.140326207
H    1.786365351   1.477869561   0.810697227
units angstrom
no_reorient  #important for SAPT in psi4, default
symmetry c1  #important for SAPT in psi4, default
}

set {
basis aug-cc-pVTZ
scf_type DF
freeze_core True
}
energy('sapt2+')
--------------------------------------------------------------------------

  Memory set to   3.000 GiB by Python script.

  //>>>>>>>>>>>>>>>>>>>>>>>>>>>>>>>>>>>//
  //              Dimer HF             //
  //<<<<<<<<<<<<<<<<<<<<<<<<<<<<<<<<<<<//


  No DF_BASIS_SCF auxiliary basis selected, defaulting to aug-cc-pvtz-jkfit


*** tstart() called on node142.bme.utexas.edu
*** at Fri Sep 20 13:53:55 2013


         ---------------------------------------------------------
                                   SCF
            by Justin Turney, Rob Parrish, and Andy Simmonett
                              RHF Reference
                        4 Threads,   3000 MiB Core
         ---------------------------------------------------------

  ==> Geometry <==

    Molecular point group: c1
    Full point group: C1

    Geometry (in Angstrom), charge = 0, multiplicity = 1:

       Center              X                  Y                   Z       
    ------------   -----------------  -----------------  -----------------
           N         -1.393141071911     0.210270977346    -0.627754896808
           H         -0.564545332911    -0.374582556654    -0.678096978808
           H         -2.054968636911    -0.179388592654    -1.285991853808
           C         -1.953158511911     0.130753182346     0.719623225192
           H         -2.847237462911     0.748599320346     0.780844121192
           H         -2.217245203911    -0.876489062654     1.057128816192
           H         -1.234775230911     0.538029517346     1.428763931192
           N          1.564176066089    -0.703761908654    -0.482644204808
           H          1.860444736089    -0.429224173654    -1.410629447808
           H          2.187725733089    -1.451452224654    -0.207449341808
           C          1.724406042089     0.431448684346     0.431031099192
           H          1.454215738089     0.116752904346     1.436684208192
           H          2.731816353089     0.853225243346     0.468002833192
           H          1.031865659089     1.217224166346     0.138373853192

  Running in c1 symmetry.

  Nuclear repulsion =  132.771377251199596

  Charge       = 0
  Multiplicity = 1
  Electrons    = 36
  Nalpha       = 18
  Nbeta        = 18

  ==> Algorithm <==

  SCF Algorithm Type is DF.
  DIIS enabled.
  MOM disabled.
  Fractional occupation disabled.
  Guess Type is CORE.
  Energy threshold   = 1.00e-08
  Density threshold  = 1.00e-08
  Integral threshold = 0.00e+00

  ==> Primary Basis <==

  Basis Set: AUG-CC-PVTZ
    Number of shells: 146
    Number of basis function: 414
    Number of Cartesian functions: 470
    Spherical Harmonics?: true
    Max angular momentum: 3

  ==> Pre-Iterations <==

   -------------------------------------------------------
    Irrep   Nso     Nmo     Nalpha   Nbeta   Ndocc  Nsocc
   -------------------------------------------------------
     A        414     414       0       0       0       0
   -------------------------------------------------------
    Total     414     414      18      18      18       0
   -------------------------------------------------------

 OEINTS: Wrapper to libmints.
   by Justin Turney

   Calculation information:
      Number of atoms:                  14
      Number of AO shells:             146
      Number of SO shells:             146
      Number of primitives:            230
      Number of atomic orbitals:       470
      Number of basis functions:       414

      Number of irreps:                  1
      Number of functions per irrep: [ 414 ]

      Overlap, kinetic, potential, dipole, and quadrupole integrals
        stored in file 35.

  ==> Integral Setup <==

  ==> DFJK: Density-Fitted J/K Matrices <==

    J tasked:                  Yes
    K tasked:                  Yes
    wK tasked:                  No
    OpenMP threads:              4
    Integrals threads:           4
    Memory (MB):              2145
    Algorithm:                Core
    Integral Cache:           SAVE
    Schwarz Cutoff:          0E+00
    Fitting Condition:       1E-12

   => Auxiliary Basis Set <=

  Basis Set: aug-cc-pvtz-jkfit
    Number of shells: 260
    Number of basis function: 876
    Number of Cartesian functions: 1074
    Spherical Harmonics?: true
    Max angular momentum: 4

  Minimum eigenvalue in the overlap matrix is 1.4565597730E-05.
  Using Symmetric Orthogonalization.
  SCF Guess: Core (One-Electron) Hamiltonian.

  Guess energy:  -154.29133996708393

  ==> Iterations <==

                        Total Energy        Delta E     RMS |[F,P]|

   @RHF iter   1:  -139.47458200666753   -1.39475e+02   2.97968e-02 
   @RHF iter   2:  -135.70195514533950    3.77263e+00   1.18221e-02 DIIS
   @RHF iter   3:  -169.83396058332315   -3.41320e+01   1.48984e-02 DIIS
   @RHF iter   4:  -185.23930912066382   -1.54053e+01   7.92196e-03 DIIS
   @RHF iter   5:  -189.02805628944608   -3.78875e+00   3.97541e-03 DIIS
   @RHF iter   6:  -190.35402893159838   -1.32597e+00   1.15539e-03 DIIS
   @RHF iter   7:  -190.50379713964705   -1.49768e-01   2.35604e-04 DIIS
   @RHF iter   8:  -190.51066076608075   -6.86363e-03   8.14224e-05 DIIS
   @RHF iter   9:  -190.51135927328053   -6.98507e-04   2.14722e-05 DIIS
   @RHF iter  10:  -190.51143162867609   -7.23554e-05   4.98352e-06 DIIS
   @RHF iter  11:  -190.51143650652571   -4.87785e-06   1.50599e-06 DIIS
   @RHF iter  12:  -190.51143693370793   -4.27182e-07   4.35839e-07 DIIS
   @RHF iter  13:  -190.51143697100301   -3.72951e-08   1.34011e-07 DIIS
   @RHF iter  14:  -190.51143697348752   -2.48451e-09   3.22317e-08 DIIS
   @RHF iter  15:  -190.51143697373541   -2.47894e-10   7.69753e-09 DIIS

  ==> Post-Iterations <==

	Orbital Energies (a.u.)
	-----------------------

	Doubly Occupied:                                                      

	   1A    -15.547818     2A    -15.516928     3A    -11.241194  
	   4A    -11.227333     5A     -1.179572     6A     -1.151857  
	   7A     -0.900150     8A     -0.881175     9A     -0.671054  
	  10A     -0.649568    11A     -0.605681    12A     -0.588963  
	  13A     -0.559234    14A     -0.537885    15A     -0.520119  
	  16A     -0.502869    17A     -0.404148    18A     -0.374004  

	Virtual:                                                              

	  19A      0.027456    20A      0.038689    21A      0.040148  
	  22A      0.042166    23A      0.055810    24A      0.058914  
	  25A      0.059563    26A      0.071428    27A      0.080340  
	  28A      0.090811    29A      0.104190    30A      0.117818  
	  31A      0.129559    32A      0.132182    33A      0.141468  
	  34A      0.144494    35A      0.146038    36A      0.156288  
	  37A      0.161734    38A      0.176534    39A      0.178076  
	  40A      0.188952    41A      0.192674    42A      0.209146  
	  43A      0.214686    44A      0.238216    45A      0.250532  
	  46A      0.254063    47A      0.264354    48A      0.268606  
	  49A      0.279840    50A      0.286014    51A      0.293425  
	  52A      0.300480    53A      0.308198    54A      0.324822  
	  55A      0.336708    56A      0.340570    57A      0.347647  
	  58A      0.354905    59A      0.361890    60A      0.367218  
	  61A      0.373487    62A      0.377016    63A      0.380188  
	  64A      0.387186    65A      0.392276    66A      0.396883  
	  67A      0.405934    68A      0.410160    69A      0.414559  
	  70A      0.425192    71A      0.429646    72A      0.431046  
	  73A      0.441212    74A      0.450656    75A      0.451108  
	  76A      0.459446    77A      0.468418    78A      0.471635  
	  79A      0.473308    80A      0.484484    81A      0.496806  
	  82A      0.504143    83A      0.508894    84A      0.518263  
	  85A      0.521517    86A      0.527830    87A      0.539161  
	  88A      0.545709    89A      0.553652    90A      0.556768  
	  91A      0.567962    92A      0.574412    93A      0.592773  
	  94A      0.606168    95A      0.620545    96A      0.630372  
	  97A      0.641636    98A      0.648962    99A      0.659563  
	 100A      0.671502   101A      0.682480   102A      0.711241  
	 103A      0.723608   104A      0.730418   105A      0.760412  
	 106A      0.769877   107A      0.784980   108A      0.810934  
	 109A      0.815446   110A      0.824904   111A      0.834019  
	 112A      0.842785   113A      0.845210   114A      0.859219  
	 115A      0.869188   116A      0.888738   117A      0.891241  
	 118A      0.911866   119A      0.911909   120A      0.918819  
	 121A      0.928910   122A      0.935393   123A      0.937451  
	 124A      0.948607   125A      0.955868   126A      0.960964  
	 127A      0.968906   128A      0.972553   129A      0.987433  
	 130A      0.998270   131A      1.012204   132A      1.013540  
	 133A      1.027270   134A      1.031304   135A      1.045119  
	 136A      1.053745   137A      1.063541   138A      1.063821  
	 139A      1.071357   140A      1.086235   141A      1.091681  
	 142A      1.104684   143A      1.107443   144A      1.115613  
	 145A      1.128102   146A      1.134087   147A      1.138574  
	 148A      1.149725   149A      1.152650   150A      1.157774  
	 151A      1.174997   152A      1.184457   153A      1.200717  
	 154A      1.214142   155A      1.233512   156A      1.239114  
	 157A      1.242856   158A      1.250993   159A      1.262074  
	 160A      1.274564   161A      1.284815   162A      1.296575  
	 163A      1.312763   164A      1.314757   165A      1.319650  
	 166A      1.335832   167A      1.345280   168A      1.369617  
	 169A      1.372130   170A      1.385246   171A      1.394922  
	 172A      1.401574   173A      1.417399   174A      1.432012  
	 175A      1.456756   176A      1.472504   177A      1.476103  
	 178A      1.488625   179A      1.495898   180A      1.514504  
	 181A      1.520349   182A      1.536364   183A      1.546277  
	 184A      1.561393   185A      1.582819   186A      1.595221  
	 187A      1.614770   188A      1.649995   189A      1.660809  
	 190A      1.668687   191A      1.677669   192A      1.683561  
	 193A      1.699030   194A      1.705927   195A      1.716293  
	 196A      1.726024   197A      1.730222   198A      1.748461  
	 199A      1.762630   200A      1.765040   201A      1.774390  
	 202A      1.787499   203A      1.807124   204A      1.826434  
	 205A      1.841269   206A      1.858643   207A      1.869031  
	 208A      1.885580   209A      1.905302   210A      1.926520  
	 211A      1.944870   212A      1.974437   213A      2.001326  
	 214A      2.027750   215A      2.041339   216A      2.053338  
	 217A      2.058778   218A      2.066098   219A      2.080651  
	 220A      2.089329   221A      2.104016   222A      2.116013  
	 223A      2.136792   224A      2.140937   225A      2.165253  
	 226A      2.176439   227A      2.185597   228A      2.204626  
	 229A      2.220161   230A      2.251658   231A      2.258270  
	 232A      2.272861   233A      2.285116   234A      2.296761  
	 235A      2.321372   236A      2.338170   237A      2.345318  
	 238A      2.362480   239A      2.396948   240A      2.403275  
	 241A      2.452158   242A      2.462987   243A      2.478169  
	 244A      2.503875   245A      2.522452   246A      2.546326  
	 247A      2.562990   248A      2.571301   249A      2.609111  
	 250A      2.620970   251A      2.634818   252A      2.663881  
	 253A      2.680525   254A      2.705022   255A      2.740866  
	 256A      2.754195   257A      2.801007   258A      2.913688  
	 259A      3.005285   260A      3.086034   261A      3.205487  
	 262A      3.283255   263A      3.405706   264A      3.438621  
	 265A      3.459008   266A      3.472064   267A      3.493892  
	 268A      3.528947   269A      3.620655   270A      3.647939  
	 271A      3.653744   272A      3.660610   273A      3.673210  
	 274A      3.695171   275A      3.705848   276A      3.724289  
	 277A      3.743337   278A      3.779357   279A      3.791698  
	 280A      3.803063   281A      3.842681   282A      3.869096  
	 283A      3.884361   284A      3.898498   285A      3.932782  
	 286A      3.957766   287A      3.964148   288A      3.975964  
	 289A      4.009000   290A      4.013953   291A      4.034468  
	 292A      4.052060   293A      4.061839   294A      4.105970  
	 295A      4.125511   296A      4.134479   297A      4.148805  
	 298A      4.163873   299A      4.172995   300A      4.193209  
	 301A      4.211474   302A      4.227401   303A      4.236699  
	 304A      4.268595   305A      4.295414   306A      4.316255  
	 307A      4.322776   308A      4.336734   309A      4.346325  
	 310A      4.357323   311A      4.371894   312A      4.386593  
	 313A      4.403824   314A      4.422567   315A      4.462828  
	 316A      4.479571   317A      4.522099   318A      4.527897  
	 319A      4.539990   320A      4.573117   321A      4.598110  
	 322A      4.629858   323A      4.656983   324A      4.664971  
	 325A      4.674079   326A      4.682958   327A      4.716518  
	 328A      4.731834   329A      4.761123   330A      4.774296  
	 331A      4.797019   332A      4.800546   333A      4.837783  
	 334A      4.844380   335A      4.855635   336A      4.886497  
	 337A      4.895310   338A      4.919064   339A      4.928880  
	 340A      4.949668   341A      4.957011   342A      4.978258  
	 343A      5.013561   344A      5.032245   345A      5.050030  
	 346A      5.067407   347A      5.077860   348A      5.089459  
	 349A      5.127096   350A      5.143368   351A      5.162205  
	 352A      5.167528   353A      5.185564   354A      5.217304  
	 355A      5.232591   356A      5.236550   357A      5.275421  
	 358A      5.280954   359A      5.310578   360A      5.338827  
	 361A      5.383274   362A      5.419462   363A      5.429104  
	 364A      5.471340   365A      5.539423   366A      5.562015  
	 367A      5.567060   368A      5.580337   369A      5.605590  
	 370A      5.626762   371A      5.633292   372A      5.675546  
	 373A      5.803320   374A      5.836353   375A      5.858585  
	 376A      5.874451   377A      5.900674   378A      5.948545  
	 379A      5.966350   380A      6.010419   381A      6.037903  
	 382A      6.041194   383A      6.063407   384A      6.116242  
	 385A      6.129367   386A      6.148573   387A      6.160902  
	 388A      6.168351   389A      6.216549   390A      6.225890  
	 391A      6.279745   392A      6.392217   393A      6.451154  
	 394A      6.458401   395A      6.568047   396A      6.603664  
	 397A      6.624415   398A      6.674102   399A      6.750780  
	 400A      6.772931   401A      6.813498   402A      6.827823  
	 403A      6.839814   404A      6.944144   405A      7.078818  
	 406A      7.123694   407A      7.188271   408A      7.282161  
	 409A      7.867779   410A      7.893080   411A     17.236251  
	 412A     17.438096   413A     18.227454   414A     18.662167  

	Final Occupation by Irrep:
	          A 
	DOCC [    18 ]

  Energy converged.

  @RHF Final Energy:  -190.51143697373541

   => Energetics <=

    Nuclear Repulsion Energy =            132.7713772511995955
    One-Electron Energy =                -520.4465187416951721
    Two-Electron Energy =                 197.1637045167608733
    DFT Exchange-Correlation Energy =       0.0000000000000000
    Empirical Dispersion Energy =           0.0000000000000000
    Total Energy =                       -190.5114369737346749



Properties will be evaluated at   0.000000,   0.000000,   0.000000 Bohr
  ==> Properties <==


Properties computed using the SCF density density matrix
  Nuclear Dipole Moment: (a.u.)
     X:     0.3251      Y:     0.1540      Z:     1.6228

  Electronic Dipole Moment: (a.u.)
     X:     0.2722      Y:    -0.5598      Z:    -1.5570

  Dipole Moment: (a.u.)
     X:     0.5973      Y:    -0.4059      Z:     0.0658     Total:     0.7252

  Dipole Moment: (Debye)
     X:     1.5182      Y:    -1.0316      Z:     0.1673     Total:     1.8432


  Saving occupied orbitals to File 180.

  Saving SAPT 2-DIMER file.

*** tstop() called on node142.bme.utexas.edu at Fri Sep 20 13:54:51 2013
Module time:
	user time   =     206.55 seconds =       3.44 minutes
	system time =       2.52 seconds =       0.04 minutes
	total time  =         56 seconds =       0.93 minutes
Total time:
	user time   =     206.55 seconds =       3.44 minutes
	system time =       2.52 seconds =       0.04 minutes
	total time  =         56 seconds =       0.93 minutes

  //>>>>>>>>>>>>>>>>>>>>>>>>>>>>>>>>>>>//
  //            Monomer A HF           //
  //<<<<<<<<<<<<<<<<<<<<<<<<<<<<<<<<<<<//


  No DF_BASIS_SCF auxiliary basis selected, defaulting to aug-cc-pvtz-jkfit


*** tstart() called on node142.bme.utexas.edu
*** at Fri Sep 20 13:54:51 2013


         ---------------------------------------------------------
                                   SCF
            by Justin Turney, Rob Parrish, and Andy Simmonett
                              RHF Reference
                        4 Threads,   3000 MiB Core
         ---------------------------------------------------------

  ==> Geometry <==

    Molecular point group: c1
    Full point group: C1

    Geometry (in Angstrom), charge = 0, multiplicity = 1:

       Center              X                  Y                   Z       
    ------------   -----------------  -----------------  -----------------
           N         -1.393141071911     0.210270977346    -0.627754896808
           H         -0.564545332911    -0.374582556654    -0.678096978808
           H         -2.054968636911    -0.179388592654    -1.285991853808
           C         -1.953158511911     0.130753182346     0.719623225192
           H         -2.847237462911     0.748599320346     0.780844121192
           H         -2.217245203911    -0.876489062654     1.057128816192
           H         -1.234775230911     0.538029517346     1.428763931192
           N(Gh)      1.564176066089    -0.703761908654    -0.482644204808
           H(Gh)      1.860444736089    -0.429224173654    -1.410629447808
           H(Gh)      2.187725733089    -1.451452224654    -0.207449341808
           C(Gh)      1.724406042089     0.431448684346     0.431031099192
           H(Gh)      1.454215738089     0.116752904346     1.436684208192
           H(Gh)      2.731816353089     0.853225243346     0.468002833192
           H(Gh)      1.031865659089     1.217224166346     0.138373853192

  Running in c1 symmetry.

  Nuclear repulsion =   42.092175479304125

  Charge       = 0
  Multiplicity = 1
  Electrons    = 18
  Nalpha       = 9
  Nbeta        = 9

  ==> Algorithm <==

  SCF Algorithm Type is DF.
  DIIS enabled.
  MOM disabled.
  Fractional occupation disabled.
  Guess Type is CORE.
  Energy threshold   = 1.00e-08
  Density threshold  = 1.00e-08
  Integral threshold = 0.00e+00

  ==> Primary Basis <==

  Basis Set: AUG-CC-PVTZ
    Number of shells: 146
    Number of basis function: 414
    Number of Cartesian functions: 470
    Spherical Harmonics?: true
    Max angular momentum: 3

  ==> Pre-Iterations <==

   -------------------------------------------------------
    Irrep   Nso     Nmo     Nalpha   Nbeta   Ndocc  Nsocc
   -------------------------------------------------------
     A        414     414       0       0       0       0
   -------------------------------------------------------
    Total     414     414       9       9       9       0
   -------------------------------------------------------

 OEINTS: Wrapper to libmints.
   by Justin Turney

   Calculation information:
      Number of atoms:                  14
      Number of AO shells:             146
      Number of SO shells:             146
      Number of primitives:            230
      Number of atomic orbitals:       470
      Number of basis functions:       414

      Number of irreps:                  1
      Number of functions per irrep: [ 414 ]

      Overlap, kinetic, potential, dipole, and quadrupole integrals
        stored in file 35.

  ==> Integral Setup <==

  ==> DFJK: Density-Fitted J/K Matrices <==

    J tasked:                  Yes
    K tasked:                  Yes
    wK tasked:                  No
    OpenMP threads:              4
    Integrals threads:           4
    Memory (MB):              2145
    Algorithm:                Core
    Integral Cache:           LOAD
    Schwarz Cutoff:          0E+00
    Fitting Condition:       1E-12

   => Auxiliary Basis Set <=

  Basis Set: aug-cc-pvtz-jkfit
    Number of shells: 260
    Number of basis function: 876
    Number of Cartesian functions: 1074
    Spherical Harmonics?: true
    Max angular momentum: 4

  Minimum eigenvalue in the overlap matrix is 1.4565597729E-05.
  Using Symmetric Orthogonalization.
  SCF Guess: Core (One-Electron) Hamiltonian.

  Guess energy:   -76.57340589273673

  ==> Iterations <==

                        Total Energy        Delta E     RMS |[F,P]|

   @RHF iter   1:   -69.64346426254110   -6.96435e+01   2.11378e-02 
   @RHF iter   2:   -71.82363134814261   -2.18017e+00   7.51425e-03 DIIS
   @RHF iter   3:   -87.23291963627415   -1.54093e+01   1.02321e-02 DIIS
   @RHF iter   4:   -92.40948946468427   -5.17657e+00   5.96401e-03 DIIS
   @RHF iter   5:   -94.54354543422775   -2.13406e+00   2.83901e-03 DIIS
   @RHF iter   6:   -95.22532773241159   -6.81782e-01   5.13198e-04 DIIS
   @RHF iter   7:   -95.25220781566762   -2.68801e-02   1.70981e-04 DIIS
   @RHF iter   8:   -95.25528540660088   -3.07759e-03   2.42676e-05 DIIS
   @RHF iter   9:   -95.25536125785086   -7.58512e-05   6.29638e-06 DIIS
   @RHF iter  10:   -95.25536952311018   -8.26526e-06   1.35765e-06 DIIS
   @RHF iter  11:   -95.25536995216555   -4.29055e-07   2.65007e-07 DIIS
   @RHF iter  12:   -95.25536997117942   -1.90139e-08   4.74273e-08 DIIS
   @RHF iter  13:   -95.25536997184355   -6.64130e-10   1.39801e-08 DIIS
   @RHF iter  14:   -95.25536997190159   -5.80371e-11   3.21308e-09 DIIS

  ==> Post-Iterations <==

	Orbital Energies (a.u.)
	-----------------------

	Doubly Occupied:                                                      

	   1A    -15.540740     2A    -11.240264     3A     -1.171602  
	   4A     -0.895579     5A     -0.662800     6A     -0.604120  
	   7A     -0.555538     8A     -0.516181     9A     -0.393748  

	Virtual:                                                              

	  10A      0.022386    11A      0.035434    12A      0.038753  
	  13A      0.040837    14A      0.054612    15A      0.057608  
	  16A      0.059040    17A      0.070927    18A      0.079441  
	  19A      0.083987    20A      0.095776    21A      0.108240  
	  22A      0.115981    23A      0.127902    24A      0.130455  
	  25A      0.135675    26A      0.138119    27A      0.147689  
	  28A      0.157211    29A      0.166589    30A      0.171150  
	  31A      0.181641    32A      0.190438    33A      0.196346  
	  34A      0.205753    35A      0.231729    36A      0.249476  
	  37A      0.251956    38A      0.268901    39A      0.273772  
	  40A      0.283531    41A      0.287330    42A      0.288574  
	  43A      0.297365    44A      0.305505    45A      0.310571  
	  46A      0.315224    47A      0.319483    48A      0.330554  
	  49A      0.336106    50A      0.351447    51A      0.354304  
	  52A      0.359392    53A      0.371458    54A      0.375252  
	  55A      0.381162    56A      0.386785    57A      0.388028  
	  58A      0.392243    59A      0.399769    60A      0.410870  
	  61A      0.418447    62A      0.424594    63A      0.432279  
	  64A      0.434728    65A      0.443612    66A      0.450812  
	  67A      0.459875    68A      0.466400    69A      0.469474  
	  70A      0.491364    71A      0.495795    72A      0.501083  
	  73A      0.505275    74A      0.515441    75A      0.518082  
	  76A      0.527030    77A      0.541044    78A      0.543328  
	  79A      0.552423    80A      0.563887    81A      0.564521  
	  82A      0.586948    83A      0.591450    84A      0.597518  
	  85A      0.610398    86A      0.627352    87A      0.637039  
	  88A      0.644966    89A      0.661911    90A      0.675279  
	  91A      0.681341    92A      0.692812    93A      0.712027  
	  94A      0.718574    95A      0.734316    96A      0.743001  
	  97A      0.754139    98A      0.764559    99A      0.796901  
	 100A      0.808455   101A      0.818175   102A      0.820895  
	 103A      0.836546   104A      0.839501   105A      0.847269  
	 106A      0.870463   107A      0.882204   108A      0.893540  
	 109A      0.901900   110A      0.914081   111A      0.922135  
	 112A      0.939787   113A      0.945725   114A      0.952648  
	 115A      0.965593   116A      0.970243   117A      0.984416  
	 118A      0.993654   119A      1.000416   120A      1.012682  
	 121A      1.022315   122A      1.029204   123A      1.046073  
	 124A      1.054247   125A      1.060957   126A      1.068929  
	 127A      1.071119   128A      1.076302   129A      1.084051  
	 130A      1.086229   131A      1.095689   132A      1.111677  
	 133A      1.122123   134A      1.127692   135A      1.137253  
	 136A      1.141849   137A      1.148916   138A      1.166060  
	 139A      1.176972   140A      1.186373   141A      1.189841  
	 142A      1.204085   143A      1.215792   144A      1.220705  
	 145A      1.229059   146A      1.240660   147A      1.257283  
	 148A      1.263819   149A      1.268096   150A      1.289888  
	 151A      1.297116   152A      1.299233   153A      1.319114  
	 154A      1.328479   155A      1.334135   156A      1.346128  
	 157A      1.360382   158A      1.375197   159A      1.382251  
	 160A      1.386850   161A      1.404624   162A      1.417879  
	 163A      1.433534   164A      1.442419   165A      1.449033  
	 166A      1.455782   167A      1.478608   168A      1.493528  
	 169A      1.504437   170A      1.512441   171A      1.520777  
	 172A      1.543098   173A      1.545160   174A      1.556227  
	 175A      1.586222   176A      1.590635   177A      1.603831  
	 178A      1.613238   179A      1.638899   180A      1.658325  
	 181A      1.661362   182A      1.677567   183A      1.687658  
	 184A      1.695064   185A      1.706089   186A      1.719095  
	 187A      1.737099   188A      1.747904   189A      1.764042  
	 190A      1.776675   191A      1.782859   192A      1.794710  
	 193A      1.812789   194A      1.817269   195A      1.862355  
	 196A      1.870935   197A      1.888270   198A      1.897109  
	 199A      1.906503   200A      1.926521   201A      1.937340  
	 202A      1.985325   203A      1.987455   204A      2.028378  
	 205A      2.040880   206A      2.050928   207A      2.073516  
	 208A      2.083254   209A      2.092256   210A      2.109430  
	 211A      2.125089   212A      2.146540   213A      2.154663  
	 214A      2.172635   215A      2.194916   216A      2.208507  
	 217A      2.213166   218A      2.222767   219A      2.248923  
	 220A      2.257659   221A      2.280517   222A      2.292022  
	 223A      2.303714   224A      2.325774   225A      2.331667  
	 226A      2.366652   227A      2.372732   228A      2.393612  
	 229A      2.413738   230A      2.429380   231A      2.465711  
	 232A      2.477837   233A      2.492723   234A      2.522883  
	 235A      2.539775   236A      2.568383   237A      2.582805  
	 238A      2.595603   239A      2.620283   240A      2.633584  
	 241A      2.685484   242A      2.691044   243A      2.711296  
	 244A      2.753124   245A      2.786028   246A      2.818184  
	 247A      2.864670   248A      2.901515   249A      2.912784  
	 250A      2.947627   251A      2.974308   252A      3.076639  
	 253A      3.088034   254A      3.125516   255A      3.169862  
	 256A      3.202522   257A      3.324936   258A      3.357892  
	 259A      3.436857   260A      3.453632   261A      3.461612  
	 262A      3.487200   263A      3.652610   264A      3.660405  
	 265A      3.672008   266A      3.679287   267A      3.744331  
	 268A      3.783916   269A      3.842320   270A      3.889133  
	 271A      3.931266   272A      3.946741   273A      3.986184  
	 274A      4.003744   275A      4.027041   276A      4.031561  
	 277A      4.111951   278A      4.127637   279A      4.145208  
	 280A      4.156071   281A      4.186392   282A      4.188030  
	 283A      4.203744   284A      4.219430   285A      4.246669  
	 286A      4.259249   287A      4.297975   288A      4.330219  
	 289A      4.341451   290A      4.350606   291A      4.375111  
	 292A      4.417199   293A      4.433573   294A      4.456645  
	 295A      4.468806   296A      4.495017   297A      4.522391  
	 298A      4.529343   299A      4.561717   300A      4.582304  
	 301A      4.593819   302A      4.608411   303A      4.627498  
	 304A      4.634796   305A      4.649024   306A      4.687390  
	 307A      4.710054   308A      4.731624   309A      4.748947  
	 310A      4.779760   311A      4.797654   312A      4.821843  
	 313A      4.828150   314A      4.853970   315A      4.858933  
	 316A      4.880202   317A      4.889505   318A      4.917586  
	 319A      4.932813   320A      4.940124   321A      4.955198  
	 322A      4.987185   323A      4.999750   324A      5.021140  
	 325A      5.038236   326A      5.063752   327A      5.072001  
	 328A      5.086310   329A      5.105824   330A      5.110586  
	 331A      5.123311   332A      5.153849   333A      5.188519  
	 334A      5.192257   335A      5.229225   336A      5.240459  
	 337A      5.265583   338A      5.295587   339A      5.306121  
	 340A      5.330821   341A      5.341590   342A      5.400859  
	 343A      5.411867   344A      5.420285   345A      5.466576  
	 346A      5.491558   347A      5.503853   348A      5.539384  
	 349A      5.544387   350A      5.560665   351A      5.573757  
	 352A      5.600944   353A      5.634593   354A      5.642377  
	 355A      5.685085   356A      5.748065   357A      5.807330  
	 358A      5.823466   359A      5.846125   360A      5.861201  
	 361A      5.899210   362A      5.952468   363A      5.977704  
	 364A      5.990607   365A      6.009470   366A      6.037544  
	 367A      6.072401   368A      6.085743   369A      6.143833  
	 370A      6.153209   371A      6.192831   372A      6.212911  
	 373A      6.239711   374A      6.336671   375A      6.346816  
	 376A      6.436153   377A      6.472208   378A      6.502191  
	 379A      6.584884   380A      6.645353   381A      6.710140  
	 382A      6.731436   383A      6.761165   384A      6.802206  
	 385A      6.902463   386A      6.956570   387A      7.024181  
	 388A      7.114588   389A      7.171154   390A      7.202825  
	 391A      7.225054   392A      7.324102   393A      7.585860  
	 394A      7.615141   395A      7.658737   396A      7.855168  
	 397A      7.873118   398A      7.880822   399A      7.910881  
	 400A      8.023262   401A      8.094871   402A      8.256026  
	 403A      8.295202   404A      8.723103   405A      9.384300  
	 406A     10.080731   407A     10.602126   408A     11.077670  
	 409A     11.302447   410A     12.081788   411A     17.454206  
	 412A     18.357481   413A     53.634686   414A     59.721063  

	Final Occupation by Irrep:
	          A 
	DOCC [     9 ]

  Energy converged.

  @RHF Final Energy:   -95.25536997190159

   => Energetics <=

    Nuclear Repulsion Energy =             42.0921754793041245
    One-Electron Energy =                -211.5339449727550800
    Two-Electron Energy =                  74.1863995215490775
    DFT Exchange-Correlation Energy =       0.0000000000000000
    Empirical Dispersion Energy =           0.0000000000000000
    Total Energy =                        -95.2553699719018709



Properties will be evaluated at   0.000000,   0.000000,   0.000000 Bohr
  ==> Properties <==


Properties computed using the SCF density density matrix
  Nuclear Dipole Moment: (a.u.)
     X:   -57.4282      Y:     3.9922      Z:     2.3170

  Electronic Dipole Moment: (a.u.)
     X:    57.3116      Y:    -4.5369      Z:    -2.2024

  Dipole Moment: (a.u.)
     X:    -0.1166      Y:    -0.5447      Z:     0.1146     Total:     0.5687

  Dipole Moment: (Debye)
     X:    -0.2964      Y:    -1.3846      Z:     0.2912     Total:     1.4456


  Saving occupied orbitals to File 180.

  Saving SAPT 2-MONOMER_A file.

*** tstop() called on node142.bme.utexas.edu at Fri Sep 20 13:55:32 2013
Module time:
	user time   =     153.35 seconds =       2.56 minutes
	system time =       1.53 seconds =       0.03 minutes
	total time  =         41 seconds =       0.68 minutes
Total time:
	user time   =     359.93 seconds =       6.00 minutes
	system time =       4.05 seconds =       0.07 minutes
	total time  =         97 seconds =       1.62 minutes

  //>>>>>>>>>>>>>>>>>>>>>>>>>>>>>>>>>>>//
  //            Monomer B HF           //
  //<<<<<<<<<<<<<<<<<<<<<<<<<<<<<<<<<<<//


  No DF_BASIS_SCF auxiliary basis selected, defaulting to aug-cc-pvtz-jkfit


*** tstart() called on node142.bme.utexas.edu
*** at Fri Sep 20 13:55:32 2013


         ---------------------------------------------------------
                                   SCF
            by Justin Turney, Rob Parrish, and Andy Simmonett
                              RHF Reference
                        4 Threads,   3000 MiB Core
         ---------------------------------------------------------

  ==> Geometry <==

    Molecular point group: c1
    Full point group: C1

    Geometry (in Angstrom), charge = 0, multiplicity = 1:

       Center              X                  Y                   Z       
    ------------   -----------------  -----------------  -----------------
           N(Gh)     -1.393141071911     0.210270977346    -0.627754896808
           H(Gh)     -0.564545332911    -0.374582556654    -0.678096978808
           H(Gh)     -2.054968636911    -0.179388592654    -1.285991853808
           C(Gh)     -1.953158511911     0.130753182346     0.719623225192
           H(Gh)     -2.847237462911     0.748599320346     0.780844121192
           H(Gh)     -2.217245203911    -0.876489062654     1.057128816192
           H(Gh)     -1.234775230911     0.538029517346     1.428763931192
           N          1.564176066089    -0.703761908654    -0.482644204808
           H          1.860444736089    -0.429224173654    -1.410629447808
           H          2.187725733089    -1.451452224654    -0.207449341808
           C          1.724406042089     0.431448684346     0.431031099192
           H          1.454215738089     0.116752904346     1.436684208192
           H          2.731816353089     0.853225243346     0.468002833192
           H          1.031865659089     1.217224166346     0.138373853192

  Running in c1 symmetry.

  Nuclear repulsion =   42.059829299923756

  Charge       = 0
  Multiplicity = 1
  Electrons    = 18
  Nalpha       = 9
  Nbeta        = 9

  ==> Algorithm <==

  SCF Algorithm Type is DF.
  DIIS enabled.
  MOM disabled.
  Fractional occupation disabled.
  Guess Type is CORE.
  Energy threshold   = 1.00e-08
  Density threshold  = 1.00e-08
  Integral threshold = 0.00e+00

  ==> Primary Basis <==

  Basis Set: AUG-CC-PVTZ
    Number of shells: 146
    Number of basis function: 414
    Number of Cartesian functions: 470
    Spherical Harmonics?: true
    Max angular momentum: 3

  ==> Pre-Iterations <==

   -------------------------------------------------------
    Irrep   Nso     Nmo     Nalpha   Nbeta   Ndocc  Nsocc
   -------------------------------------------------------
     A        414     414       0       0       0       0
   -------------------------------------------------------
    Total     414     414       9       9       9       0
   -------------------------------------------------------

 OEINTS: Wrapper to libmints.
   by Justin Turney

   Calculation information:
      Number of atoms:                  14
      Number of AO shells:             146
      Number of SO shells:             146
      Number of primitives:            230
      Number of atomic orbitals:       470
      Number of basis functions:       414

      Number of irreps:                  1
      Number of functions per irrep: [ 414 ]

      Overlap, kinetic, potential, dipole, and quadrupole integrals
        stored in file 35.

  ==> Integral Setup <==

  ==> DFJK: Density-Fitted J/K Matrices <==

    J tasked:                  Yes
    K tasked:                  Yes
    wK tasked:                  No
    OpenMP threads:              4
    Integrals threads:           4
    Memory (MB):              2145
    Algorithm:                Core
    Integral Cache:           LOAD
    Schwarz Cutoff:          0E+00
    Fitting Condition:       1E-12

   => Auxiliary Basis Set <=

  Basis Set: aug-cc-pvtz-jkfit
    Number of shells: 260
    Number of basis function: 876
    Number of Cartesian functions: 1074
    Spherical Harmonics?: true
    Max angular momentum: 4

  Minimum eigenvalue in the overlap matrix is 1.4565597729E-05.
  Using Symmetric Orthogonalization.
  SCF Guess: Core (One-Electron) Hamiltonian.

  Guess energy:   -76.55083626642909

  ==> Iterations <==

                        Total Energy        Delta E     RMS |[F,P]|

   @RHF iter   1:   -69.68530183285353   -6.96853e+01   2.11289e-02 
   @RHF iter   2:   -71.65961726592636   -1.97432e+00   7.55174e-03 DIIS
   @RHF iter   3:   -87.26631791257964   -1.56067e+01   1.02015e-02 DIIS
   @RHF iter   4:   -92.45465137426496   -5.18833e+00   5.90701e-03 DIIS
   @RHF iter   5:   -94.56763551277891   -2.11298e+00   2.78225e-03 DIIS
   @RHF iter   6:   -95.22745134460041   -6.59816e-01   4.95203e-04 DIIS
   @RHF iter   7:   -95.25241952782068   -2.49682e-02   1.66539e-04 DIIS
   @RHF iter   8:   -95.25538273639069   -2.96321e-03   2.29360e-05 DIIS
   @RHF iter   9:   -95.25545643737280   -7.37010e-05   6.46797e-06 DIIS
   @RHF iter  10:   -95.25546488406096   -8.44669e-06   1.33818e-06 DIIS
   @RHF iter  11:   -95.25546529257946   -4.08519e-07   2.63305e-07 DIIS
   @RHF iter  12:   -95.25546531060650   -1.80270e-08   4.68379e-08 DIIS
   @RHF iter  13:   -95.25546531124274   -6.36248e-10   1.40338e-08 DIIS
   @RHF iter  14:   -95.25546531129805   -5.53086e-11   3.11503e-09 DIIS

  ==> Post-Iterations <==

	Orbital Energies (a.u.)
	-----------------------

	Doubly Occupied:                                                      

	   1A    -15.540057     2A    -11.240443     3A     -1.170509  
	   4A     -0.896361     5A     -0.661678     6A     -0.604301  
	   7A     -0.554943     8A     -0.517165     9A     -0.393963  

	Virtual:                                                              

	  10A      0.025492    11A      0.034602    12A      0.040076  
	  13A      0.040494    14A      0.055735    15A      0.057767  
	  16A      0.059154    17A      0.068559    18A      0.079613  
	  19A      0.092072    20A      0.096783    21A      0.109072  
	  22A      0.119449    23A      0.127111    24A      0.131771  
	  25A      0.136332    26A      0.140040    27A      0.146077  
	  28A      0.155406    29A      0.169927    30A      0.174852  
	  31A      0.179839    32A      0.194379    33A      0.201671  
	  34A      0.214245    35A      0.222735    36A      0.240302  
	  37A      0.260320    38A      0.264681    39A      0.276841  
	  40A      0.281027    41A      0.290068    42A      0.294693  
	  43A      0.301837    44A      0.308190    45A      0.310291  
	  46A      0.317980    47A      0.325442    48A      0.332651  
	  49A      0.344317    50A      0.352669    51A      0.357287  
	  52A      0.367612    53A      0.369918    54A      0.374609  
	  55A      0.377375    56A      0.390434    57A      0.391173  
	  58A      0.398317    59A      0.402707    60A      0.408260  
	  61A      0.412553    62A      0.424556    63A      0.434699  
	  64A      0.444225    65A      0.448085    66A      0.460225  
	  67A      0.461621    68A      0.471191    69A      0.474081  
	  70A      0.482479    71A      0.488613    72A      0.499502  
	  73A      0.510073    74A      0.520795    75A      0.524812  
	  76A      0.531171    77A      0.540665    78A      0.547851  
	  79A      0.553635    80A      0.560454    81A      0.573545  
	  82A      0.577123    83A      0.584721    84A      0.609359  
	  85A      0.614702    86A      0.626593    87A      0.648254  
	  88A      0.661264    89A      0.669642    90A      0.675762  
	  91A      0.681081    92A      0.698243    93A      0.708411  
	  94A      0.719339    95A      0.740403    96A      0.760476  
	  97A      0.775196    98A      0.778045    99A      0.787465  
	 100A      0.802562   101A      0.810867   102A      0.819164  
	 103A      0.830160   104A      0.839572   105A      0.869494  
	 106A      0.875709   107A      0.883630   108A      0.884903  
	 109A      0.911275   110A      0.919474   111A      0.930563  
	 112A      0.940104   113A      0.943312   114A      0.956168  
	 115A      0.963995   116A      0.979819   117A      0.992434  
	 118A      0.999319   119A      1.008009   120A      1.013831  
	 121A      1.024076   122A      1.029341   123A      1.045823  
	 124A      1.056804   125A      1.066364   126A      1.068876  
	 127A      1.076823   128A      1.088767   129A      1.100584  
	 130A      1.107834   131A      1.109079   132A      1.113510  
	 133A      1.124193   134A      1.129656   135A      1.143196  
	 136A      1.150122   137A      1.155783   138A      1.167617  
	 139A      1.177930   140A      1.185926   141A      1.198398  
	 142A      1.206421   143A      1.214697   144A      1.220363  
	 145A      1.234044   146A      1.245379   147A      1.247807  
	 148A      1.263325   149A      1.267102   150A      1.278381  
	 151A      1.298238   152A      1.308650   153A      1.321844  
	 154A      1.330738   155A      1.340439   156A      1.346744  
	 157A      1.367402   158A      1.382822   159A      1.392918  
	 160A      1.399613   161A      1.407928   162A      1.424486  
	 163A      1.429712   164A      1.437206   165A      1.445663  
	 166A      1.469835   167A      1.483540   168A      1.494884  
	 169A      1.508170   170A      1.520094   171A      1.529739  
	 172A      1.553313   173A      1.560281   174A      1.589130  
	 175A      1.591244   176A      1.607457   177A      1.628928  
	 178A      1.645519   179A      1.652741   180A      1.659282  
	 181A      1.666593   182A      1.685732   183A      1.699591  
	 184A      1.706472   185A      1.716284   186A      1.720383  
	 187A      1.740074   188A      1.758050   189A      1.767195  
	 190A      1.781373   191A      1.792172   192A      1.803624  
	 193A      1.815815   194A      1.851512   195A      1.860605  
	 196A      1.870093   197A      1.889515   198A      1.901263  
	 199A      1.913549   200A      1.922687   201A      1.976980  
	 202A      1.987093   203A      1.997728   204A      2.008112  
	 205A      2.044630   206A      2.067297   207A      2.069220  
	 208A      2.077209   209A      2.083478   210A      2.090056  
	 211A      2.117550   212A      2.151663   213A      2.159644  
	 214A      2.182502   215A      2.197638   216A      2.207420  
	 217A      2.215900   218A      2.231623   219A      2.250430  
	 220A      2.270355   221A      2.285903   222A      2.292382  
	 223A      2.298453   224A      2.327752   225A      2.339310  
	 226A      2.359648   227A      2.371523   228A      2.403394  
	 229A      2.417449   230A      2.452377   231A      2.477765  
	 232A      2.488880   233A      2.496248   234A      2.509854  
	 235A      2.536995   236A      2.552673   237A      2.580435  
	 238A      2.591160   239A      2.622675   240A      2.634293  
	 241A      2.662455   242A      2.710014   243A      2.727918  
	 244A      2.743808   245A      2.763184   246A      2.799960  
	 247A      2.876651   248A      2.880700   249A      2.952438  
	 250A      2.989713   251A      3.003735   252A      3.091084  
	 253A      3.132008   254A      3.148764   255A      3.220494  
	 256A      3.305142   257A      3.307903   258A      3.376669  
	 259A      3.445705   260A      3.485941   261A      3.538873  
	 262A      3.577190   263A      3.649288   264A      3.695274  
	 265A      3.708218   266A      3.736554   267A      3.765092  
	 268A      3.803359   269A      3.844761   270A      3.890127  
	 271A      3.944232   272A      3.960492   273A      3.988109  
	 274A      4.016534   275A      4.041277   276A      4.102837  
	 277A      4.113849   278A      4.146578   279A      4.157325  
	 280A      4.167998   281A      4.184624   282A      4.201752  
	 283A      4.215410   284A      4.240426   285A      4.250889  
	 286A      4.292448   287A      4.305309   288A      4.319335  
	 289A      4.355765   290A      4.370063   291A      4.386310  
	 292A      4.401214   293A      4.445927   294A      4.459794  
	 295A      4.467991   296A      4.484409   297A      4.500377  
	 298A      4.514981   299A      4.539422   300A      4.563895  
	 301A      4.595380   302A      4.608403   303A      4.626670  
	 304A      4.645720   305A      4.655834   306A      4.690810  
	 307A      4.701017   308A      4.726079   309A      4.742710  
	 310A      4.756481   311A      4.772632   312A      4.800702  
	 313A      4.814346   314A      4.827424   315A      4.854815  
	 316A      4.866350   317A      4.889581   318A      4.898122  
	 319A      4.921507   320A      4.947686   321A      4.953361  
	 322A      4.995056   323A      5.013339   324A      5.030396  
	 325A      5.056477   326A      5.061688   327A      5.065315  
	 328A      5.099197   329A      5.109492   330A      5.134059  
	 331A      5.145114   332A      5.154431   333A      5.197142  
	 334A      5.221243   335A      5.240184   336A      5.249710  
	 337A      5.287358   338A      5.313403   339A      5.329999  
	 340A      5.358878   341A      5.386322   342A      5.400950  
	 343A      5.422584   344A      5.426633   345A      5.455512  
	 346A      5.481338   347A      5.535066   348A      5.542958  
	 349A      5.548085   350A      5.555884   351A      5.578871  
	 352A      5.596914   353A      5.624098   354A      5.655625  
	 355A      5.721166   356A      5.749893   357A      5.818737  
	 358A      5.854478   359A      5.858890   360A      5.882935  
	 361A      5.903249   362A      5.931640   363A      5.966050  
	 364A      6.004632   365A      6.023885   366A      6.035403  
	 367A      6.065531   368A      6.076603   369A      6.130625  
	 370A      6.156631   371A      6.186696   372A      6.201366  
	 373A      6.225891   374A      6.286305   375A      6.384735  
	 376A      6.446175   377A      6.481429   378A      6.567403  
	 379A      6.575461   380A      6.637458   381A      6.688284  
	 382A      6.774839   383A      6.789075   384A      6.835521  
	 385A      6.841981   386A      7.009090   387A      7.020988  
	 388A      7.084720   389A      7.166004   390A      7.238522  
	 391A      7.258915   392A      7.276391   393A      7.567263  
	 394A      7.657508   395A      7.760542   396A      7.823441  
	 397A      7.878170   398A      7.895037   399A      7.928320  
	 400A      8.120949   401A      8.176298   402A      8.226715  
	 403A      8.305554   404A      8.742125   405A      9.395918  
	 406A      9.909772   407A     10.513722   408A     11.182834  
	 409A     11.318550   410A     12.242574   411A     17.247302  
	 412A     18.488057   413A     53.215227   414A     60.474982  

	Final Occupation by Irrep:
	          A 
	DOCC [     9 ]

  Energy converged.

  @RHF Final Energy:   -95.25546531129805

   => Energetics <=

    Nuclear Repulsion Energy =             42.0598292999237557
    One-Electron Energy =                -211.4717483732296159
    Two-Electron Energy =                  74.1564537620074589
    DFT Exchange-Correlation Energy =       0.0000000000000000
    Empirical Dispersion Energy =           0.0000000000000000
    Total Energy =                        -95.2554653112983942



Properties will be evaluated at   0.000000,   0.000000,   0.000000 Bohr
  ==> Properties <==


Properties computed using the SCF density density matrix
  Nuclear Dipole Moment: (a.u.)
     X:    57.7533      Y:    -3.8383      Z:    -0.6942

  Electronic Dipole Moment: (a.u.)
     X:   -57.2063      Y:     4.0039      Z:     0.6866

  Dipole Moment: (a.u.)
     X:     0.5470      Y:     0.1656      Z:    -0.0076     Total:     0.5716

  Dipole Moment: (Debye)
     X:     1.3903      Y:     0.4210      Z:    -0.0193     Total:     1.4528


  Saving occupied orbitals to File 180.

  Saving SAPT 2-MONOMER_B file.

*** tstop() called on node142.bme.utexas.edu at Fri Sep 20 13:56:13 2013
Module time:
	user time   =     153.72 seconds =       2.56 minutes
	system time =       1.54 seconds =       0.03 minutes
	total time  =         41 seconds =       0.68 minutes
Total time:
	user time   =     513.67 seconds =       8.56 minutes
	system time =       5.59 seconds =       0.09 minutes
	total time  =        138 seconds =       2.30 minutes
  No DF_BASIS_SAPT auxiliary basis selected, defaulting to aug-cc-pvtz-ri

  //>>>>>>>>>>>>>>>>>>>>>>>>>>>>>>>>>>>//
  //               SAPT2+              //
  //<<<<<<<<<<<<<<<<<<<<<<<<<<<<<<<<<<<//


*** tstart() called on node142.bme.utexas.edu
*** at Fri Sep 20 13:56:13 2013

        SAPT2+  
    Ed Hohenstein
     6 June 2009

      Orbital Information
  --------------------------
    NSO        =       414
    NMO        =       414
    NRI        =       884
    NOCC A     =         9
    NOCC B     =         9
    FOCC A     =         2
    FOCC B     =         2
    NVIR A     =       405
    NVIR B     =       405

    Estimated memory usage: 1478.8 MB

    Elst10,r            =    -0.010837871417 H
    Exch10 (S^2)        =     0.013268630313 H
    Exch10              =     0.013357992130 H
    Ind20,r (A<-B)      =    -0.001776895107 H
    Ind20,r (B<-A)      =    -0.002792061202 H
    Ind20,r             =    -0.004568956310 H
    Exch-Ind20,r (A<-B) =     0.001051026019 H
    Exch-Ind20,r (B<-A) =     0.001812702893 H
    Exch-Ind20,r        =     0.002863728912 H
    Disp20              =    -0.007893899931 H
    Exch-Disp20         =     0.001188554597 H
    Elst12,r            =    -0.000577540235 H
    Exch11              =     0.000257089964 H
    Exch12              =     0.001198633848 H
    Ind22               =    -0.000554653540 H
    Disp21              =     0.000379420993 H
    Disp22 (SDQ)        =     0.000225580130 H

    (i =   1 of   7)        536 seconds
    (i =   2 of   7)       1073 seconds
    (i =   3 of   7)       1609 seconds
    (i =   4 of   7)       2146 seconds
    (i =   5 of   7)       2682 seconds
    (i =   6 of   7)       3219 seconds
    (i =   7 of   7)       3755 seconds

    Disp220 (T)         =    -0.000614783322 H

    (i =   1 of   7)        536 seconds
    (i =   2 of   7)       1072 seconds
    (i =   3 of   7)       1608 seconds
    (i =   4 of   7)       2144 seconds
    (i =   5 of   7)       2680 seconds
    (i =   6 of   7)       3216 seconds
    (i =   7 of   7)       3752 seconds

    Disp202 (T)         =    -0.000592621821 H

    Disp22 (T)          =    -0.001207405143 H

    SAPT Results  
  -----------------------------------------------------------------------
    Electrostatics         -11.41541165 mH      -7.16327926 kcal mol^-1
      Elst10,r             -10.83787142 mH      -6.80086727 kcal mol^-1
      Elst12,r              -0.57754023 mH      -0.36241198 kcal mol^-1

    Exchange                14.81371594 mH       9.29574748 kcal mol^-1
      Exch10                13.35799213 mH       8.38226696 kcal mol^-1
      Exch10(S^2)           13.26863031 mH       8.32619157 kcal mol^-1
      Exch11(S^2)            0.25708996 mH       0.16132639 kcal mol^-1
      Exch12(S^2)            1.19863385 mH       0.75215413 kcal mol^-1

    Induction               -3.32881923 mH      -2.08886569 kcal mol^-1
      Ind20,r               -4.56895631 mH      -2.86706349 kcal mol^-1
      Ind22                 -0.55465354 mH      -0.34805037 kcal mol^-1
      Exch-Ind20,r           2.86372891 mH       1.79701710 kcal mol^-1
      Exch-Ind22             0.34764556 mH       0.21815089 kcal mol^-1
      delta HF,r (2)        -1.41658385 mH      -0.88891982 kcal mol^-1

    Dispersion              -7.30774935 mH      -4.58568214 kcal mol^-1
      Disp20                -7.89389993 mH      -4.95349720 kcal mol^-1
      Disp21                 0.37942099 mH       0.23809028 kcal mol^-1
      Disp22 (SDQ)           0.22558013 mH       0.14155367 kcal mol^-1
      Disp22 (T)            -1.20740514 mH      -0.75765820 kcal mol^-1
      Exch-Disp20            1.18855460 mH       0.74582930 kcal mol^-1

    Total HF                -0.60169054 mH      -0.37756653 kcal mol^-1
    Total SAPT0             -7.30703587 mH      -4.58523443 kcal mol^-1
    Total SAPT2             -6.63586027 mH      -4.16406536 kcal mol^-1
    Total SAPT2+            -7.23826429 mH      -4.54207961 kcal mol^-1

*** tstop() called on node142.bme.utexas.edu at Fri Sep 20 17:03:10 2013
Module time:
	user time   =   42682.49 seconds =     711.37 minutes
	system time =     156.29 seconds =       2.60 minutes
	total time  =      11217 seconds =     186.95 minutes
Total time:
	user time   =   43196.16 seconds =     719.94 minutes
	system time =     161.88 seconds =       2.70 minutes
	total time  =      11355 seconds =     189.25 minutes

*** PSI4 exiting successfully. Buy a developer a beer!
