    -----------------------------------------------------------------------
          PSI4: An Open-Source Ab Initio Electronic Structure Package
                              PSI 4.0.0-beta4 Driver

    J. M. Turney, A. C. Simmonett, R. M. Parrish, E. G. Hohenstein,
    F. A. Evangelista, J. T. Fermann, B. J. Mintz, L. A. Burns, J. J. Wilke,
    M. L. Abrams, N. J. Russ, M. L. Leininger, C. L. Janssen, E. T. Seidl,
    W. D. Allen, H. F. Schaefer, R. A. King, E. F. Valeev, C. D. Sherrill,
    and T. D. Crawford, WIREs Comput. Mol. Sci., (2011) (doi: 10.1002/wcms.93)

                         Additional Contributions by
    A. E. DePrince, M. Saitow, U. Bozkaya, A. Yu. Sokolov
    -----------------------------------------------------------------------

    Process ID:  20876
    PSI4DATADIR: /home/xzhu216/psi4/psi4-install/share/psi

    Using LocalCommunicator (Number of processes = 1)

    Memory level set to 256.000 MB

  ==> Input File <==

--------------------------------------------------------------------------
#psi4
#
memory 7 gb

molecule MeNH2_MeNH2 {
0 1
    N    -0.638641380     0.470916372     0.044568477
    H     0.189954359    -0.113937162    -0.005773605
    H    -1.300468945     0.081256802    -0.613668480
    C    -1.198658820     0.391398577     1.391946599
    H    -2.092737771     1.009244715     1.453167495
    H    -1.462745512    -0.615843668     1.729452190
    H    -0.480275539     0.798674912     2.101087305
--
0 1
    N     1.982478972    -0.391128011     0.158810595
    H     2.278747642    -0.116590276    -0.769174648
    H     2.606028639    -1.138818327     0.434005458
    C     2.142708948     0.744082582     1.072485899
    H     1.872518644     0.429386802     2.078139008
    H     3.150119259     1.165859141     1.109457633
    H     1.450168565     1.529858064     0.779828653
units angstrom
no_reorient  #important for SAPT in psi4, default
symmetry c1  #important for SAPT in psi4, default
}

set {
basis aug-cc-pVTZ
scf_type DF
freeze_core True
}
energy('sapt2+')
--------------------------------------------------------------------------

  Memory set to   7.000 GiB by Python script.

  //>>>>>>>>>>>>>>>>>>>>>>>>>>>>>>>>>>>//
  //              Dimer HF             //
  //<<<<<<<<<<<<<<<<<<<<<<<<<<<<<<<<<<<//


  No DF_BASIS_SCF auxiliary basis selected, defaulting to aug-cc-pvtz-jkfit


*** tstart() called on node117.bme.utexas.edu
*** at Fri Feb 14 11:31:40 2014


         ---------------------------------------------------------
                                   SCF
            by Justin Turney, Rob Parrish, and Andy Simmonett
                              RHF Reference
                        4 Threads,   7000 MiB Core
         ---------------------------------------------------------

  ==> Geometry <==

    Molecular point group: c1
    Full point group: C1

    Geometry (in Angstrom), charge = 0, multiplicity = 1:

       Center              X                  Y                   Z       
    ------------   -----------------  -----------------  -----------------
           N         -1.225042678911     0.184276725846    -0.612320609808
           H         -0.396446939911    -0.400576808154    -0.662662691808
           H         -1.886870243911    -0.205382844154    -1.270557566808
           C         -1.785060118911     0.104758930846     0.735057512192
           H         -2.679139069911     0.722605068846     0.796278408192
           H         -2.049146810911    -0.902483314154     1.072563103192
           H         -1.066676837911     0.512035265846     1.444198218192
           N          1.396077673089    -0.677767657154    -0.498078491808
           H          1.692346343089    -0.403229922154    -1.426063734808
           H          2.019627340089    -1.425457973154    -0.222883628808
           C          1.556307649089     0.457442935846     0.415596812192
           H          1.286117345089     0.142747155846     1.421249921192
           H          2.563717960089     0.879219494846     0.452568546192
           H          0.863767266089     1.243218417846     0.122939566192

  Running in c1 symmetry.

  Nuclear repulsion =  137.727312972554301

  Charge       = 0
  Multiplicity = 1
  Electrons    = 36
  Nalpha       = 18
  Nbeta        = 18

  ==> Algorithm <==

  SCF Algorithm Type is DF.
  DIIS enabled.
  MOM disabled.
  Fractional occupation disabled.
  Guess Type is CORE.
  Energy threshold   = 1.00e-08
  Density threshold  = 1.00e-08
  Integral threshold = 0.00e+00

  ==> Primary Basis <==

  Basis Set: AUG-CC-PVTZ
    Number of shells: 146
    Number of basis function: 414
    Number of Cartesian functions: 470
    Spherical Harmonics?: true
    Max angular momentum: 3

  ==> Pre-Iterations <==

   -------------------------------------------------------
    Irrep   Nso     Nmo     Nalpha   Nbeta   Ndocc  Nsocc
   -------------------------------------------------------
     A        414     414       0       0       0       0
   -------------------------------------------------------
    Total     414     414      18      18      18       0
   -------------------------------------------------------

 OEINTS: Wrapper to libmints.
   by Justin Turney

   Calculation information:
      Number of atoms:                  14
      Number of AO shells:             146
      Number of SO shells:             146
      Number of primitives:            230
      Number of atomic orbitals:       470
      Number of basis functions:       414

      Number of irreps:                  1
      Number of functions per irrep: [ 414 ]

      Overlap, kinetic, potential, dipole, and quadrupole integrals
        stored in file 35.

  ==> Integral Setup <==

  ==> DFJK: Density-Fitted J/K Matrices <==

    J tasked:                  Yes
    K tasked:                  Yes
    wK tasked:                  No
    OpenMP threads:              4
    Integrals threads:           4
    Memory (MB):              5006
    Algorithm:                Core
    Integral Cache:           SAVE
    Schwarz Cutoff:          0E+00
    Fitting Condition:       1E-12

   => Auxiliary Basis Set <=

  Basis Set: aug-cc-pvtz-jkfit
    Number of shells: 260
    Number of basis function: 876
    Number of Cartesian functions: 1074
    Spherical Harmonics?: true
    Max angular momentum: 4

  Minimum eigenvalue in the overlap matrix is 1.1603904522E-05.
  Using Symmetric Orthogonalization.
  SCF Guess: Core (One-Electron) Hamiltonian.

  Guess energy:  -154.63061264960490

  ==> Iterations <==

                        Total Energy        Delta E     RMS |[F,P]|

   @RHF iter   1:  -139.52185862204490   -1.39522e+02   2.98015e-02 
   @RHF iter   2:  -132.91153376550741    6.61032e+00   1.18187e-02 DIIS
   @RHF iter   3:  -167.12516704185188   -3.42136e+01   1.54289e-02 DIIS
   @RHF iter   4:  -184.54261180388514   -1.74174e+01   8.42849e-03 DIIS
   @RHF iter   5:  -188.70570192646684   -4.16309e+00   4.36413e-03 DIIS
   @RHF iter   6:  -190.27833682521739   -1.57263e+00   1.38996e-03 DIIS
   @RHF iter   7:  -190.49318489409555   -2.14848e-01   2.51919e-04 DIIS
   @RHF iter   8:  -190.50124905503756   -8.06416e-03   9.25373e-05 DIIS
   @RHF iter   9:  -190.50211434868143   -8.65294e-04   2.42990e-05 DIIS
   @RHF iter  10:  -190.50220316632121   -8.88176e-05   5.78821e-06 DIIS
   @RHF iter  11:  -190.50220893675495   -5.77043e-06   1.85753e-06 DIIS
   @RHF iter  12:  -190.50220958016391   -6.43409e-07   5.69694e-07 DIIS
   @RHF iter  13:  -190.50220964387299   -6.37091e-08   1.56377e-07 DIIS
   @RHF iter  14:  -190.50220964731673   -3.44374e-09   3.82507e-08 DIIS
   @RHF iter  15:  -190.50220964765933   -3.42595e-10   9.59585e-09 DIIS

  ==> Post-Iterations <==

	Orbital Energies (a.u.)
	-----------------------

	Doubly Occupied:                                                      

	   1A    -15.550444     2A    -15.504524     3A    -11.240763  
	   4A    -11.223167     5A     -1.187022     6A     -1.143860  
	   7A     -0.902543     8A     -0.876982     9A     -0.679154  
	  10A     -0.654343    11A     -0.600535    12A     -0.585012  
	  13A     -0.559622    14A     -0.530394    15A     -0.521817  
	  16A     -0.501558    17A     -0.405906    18A     -0.364656  

	Virtual:                                                              

	  19A      0.026883    20A      0.039196    21A      0.040092  
	  22A      0.042162    23A      0.056542    24A      0.059560  
	  25A      0.060399    26A      0.071081    27A      0.080095  
	  28A      0.090831    29A      0.105064    30A      0.119631  
	  31A      0.129427    32A      0.132664    33A      0.141403  
	  34A      0.145919    35A      0.146828    36A      0.156685  
	  37A      0.162745    38A      0.177645    39A      0.178725  
	  40A      0.191248    41A      0.194069    42A      0.209567  
	  43A      0.214387    44A      0.239648    45A      0.255421  
	  46A      0.264588    47A      0.266602    48A      0.274859  
	  49A      0.283403    50A      0.289733    51A      0.298022  
	  52A      0.306530    53A      0.313229    54A      0.327490  
	  55A      0.338980    56A      0.345132    57A      0.350300  
	  58A      0.359596    59A      0.366518    60A      0.372467  
	  61A      0.374854    62A      0.380333    63A      0.385149  
	  64A      0.391300    65A      0.394935    66A      0.401618  
	  67A      0.409299    68A      0.409754    69A      0.422918  
	  70A      0.429546    71A      0.435666    72A      0.439620  
	  73A      0.445166    74A      0.458947    75A      0.460250  
	  76A      0.462845    77A      0.475235    78A      0.476426  
	  79A      0.484728    80A      0.488454    81A      0.503213  
	  82A      0.512425    83A      0.518656    84A      0.525395  
	  85A      0.529592    86A      0.533890    87A      0.553268  
	  88A      0.555225    89A      0.563341    90A      0.564855  
	  91A      0.581461    92A      0.585864    93A      0.602839  
	  94A      0.614354    95A      0.630930    96A      0.641139  
	  97A      0.657149    98A      0.664450    99A      0.673749  
	 100A      0.676100   101A      0.689868   102A      0.726146  
	 103A      0.730736   104A      0.739379   105A      0.768352  
	 106A      0.779268   107A      0.795411   108A      0.806495  
	 109A      0.820984   110A      0.826558   111A      0.833875  
	 112A      0.846396   113A      0.851931   114A      0.871731  
	 115A      0.875769   116A      0.886841   117A      0.904444  
	 118A      0.909629   119A      0.913043   120A      0.928310  
	 121A      0.935154   122A      0.940804   123A      0.950874  
	 124A      0.960893   125A      0.961264   126A      0.972036  
	 127A      0.980561   128A      0.985445   129A      0.995675  
	 130A      1.008144   131A      1.020157   132A      1.029300  
	 133A      1.037987   134A      1.049027   135A      1.053694  
	 136A      1.065978   137A      1.073860   138A      1.081289  
	 139A      1.094319   140A      1.097258   141A      1.100227  
	 142A      1.116265   143A      1.121505   144A      1.141438  
	 145A      1.145367   146A      1.152470   147A      1.160031  
	 148A      1.165325   149A      1.176165   150A      1.181749  
	 151A      1.207679   152A      1.210742   153A      1.220009  
	 154A      1.248390   155A      1.251299   156A      1.257658  
	 157A      1.268803   158A      1.279837   159A      1.291764  
	 160A      1.303456   161A      1.309488   162A      1.318169  
	 163A      1.331443   164A      1.342742   165A      1.347931  
	 166A      1.360439   167A      1.369778   168A      1.381171  
	 169A      1.397931   170A      1.401794   171A      1.429584  
	 172A      1.437039   173A      1.446913   174A      1.462115  
	 175A      1.482083   176A      1.499808   177A      1.513324  
	 178A      1.521022   179A      1.528614   180A      1.534195  
	 181A      1.551753   182A      1.565409   183A      1.585448  
	 184A      1.589905   185A      1.615803   186A      1.631390  
	 187A      1.645128   188A      1.666924   189A      1.674176  
	 190A      1.682423   191A      1.692655   192A      1.712269  
	 193A      1.722341   194A      1.727250   195A      1.750295  
	 196A      1.761286   197A      1.772966   198A      1.777968  
	 199A      1.787254   200A      1.797841   201A      1.809066  
	 202A      1.819727   203A      1.840416   204A      1.857426  
	 205A      1.874500   206A      1.885305   207A      1.903132  
	 208A      1.921710   209A      1.928996   210A      1.948089  
	 211A      1.964144   212A      1.984185   213A      2.019113  
	 214A      2.036775   215A      2.046071   216A      2.069099  
	 217A      2.070685   218A      2.086778   219A      2.111905  
	 220A      2.116254   221A      2.127813   222A      2.152515  
	 223A      2.157743   224A      2.161493   225A      2.195500  
	 226A      2.198506   227A      2.237305   228A      2.248251  
	 229A      2.253505   230A      2.261030   231A      2.285452  
	 232A      2.289716   233A      2.310045   234A      2.323857  
	 235A      2.340850   236A      2.354004   237A      2.393512  
	 238A      2.403666   239A      2.415854   240A      2.422498  
	 241A      2.480672   242A      2.504560   243A      2.519304  
	 244A      2.538720   245A      2.542297   246A      2.587368  
	 247A      2.595429   248A      2.612844   249A      2.637177  
	 250A      2.659039   251A      2.673629   252A      2.704245  
	 253A      2.724379   254A      2.747538   255A      2.769235  
	 256A      2.810046   257A      2.875897   258A      2.961740  
	 259A      3.087519   260A      3.178336   261A      3.235628  
	 262A      3.329909   263A      3.424161   264A      3.458090  
	 265A      3.476725   266A      3.502500   267A      3.532099  
	 268A      3.567946   269A      3.634831   270A      3.653668  
	 271A      3.685399   272A      3.696012   273A      3.707637  
	 274A      3.711228   275A      3.727809   276A      3.749430  
	 277A      3.768944   278A      3.806812   279A      3.827728  
	 280A      3.834500   281A      3.862334   282A      3.913823  
	 283A      3.916549   284A      3.930124   285A      3.972024  
	 286A      3.981521   287A      3.984473   288A      3.997487  
	 289A      4.029041   290A      4.061038   291A      4.068328  
	 292A      4.083891   293A      4.106272   294A      4.133611  
	 295A      4.152213   296A      4.164117   297A      4.184462  
	 298A      4.198441   299A      4.211108   300A      4.214625  
	 301A      4.233119   302A      4.253090   303A      4.269389  
	 304A      4.301640   305A      4.315726   306A      4.318969  
	 307A      4.356706   308A      4.369192   309A      4.378461  
	 310A      4.396374   311A      4.408667   312A      4.415953  
	 313A      4.435500   314A      4.461249   315A      4.480708  
	 316A      4.520146   317A      4.533813   318A      4.578974  
	 319A      4.612233   320A      4.618996   321A      4.632385  
	 322A      4.645493   323A      4.657815   324A      4.698838  
	 325A      4.702870   326A      4.739214   327A      4.752466  
	 328A      4.756847   329A      4.788088   330A      4.803448  
	 331A      4.809869   332A      4.838175   333A      4.846527  
	 334A      4.859766   335A      4.876592   336A      4.901948  
	 337A      4.927403   338A      4.936874   339A      4.963970  
	 340A      4.986402   341A      4.999162   342A      5.017010  
	 343A      5.030781   344A      5.057927   345A      5.086693  
	 346A      5.102044   347A      5.119058   348A      5.136023  
	 349A      5.161374   350A      5.163350   351A      5.185678  
	 352A      5.205763   353A      5.233686   354A      5.253379  
	 355A      5.266560   356A      5.282327   357A      5.328064  
	 358A      5.341131   359A      5.371137   360A      5.387540  
	 361A      5.442995   362A      5.474143   363A      5.492066  
	 364A      5.528274   365A      5.563778   366A      5.578804  
	 367A      5.589942   368A      5.602843   369A      5.612817  
	 370A      5.653803   371A      5.664300   372A      5.717280  
	 373A      5.821965   374A      5.857383   375A      5.874824  
	 376A      5.902772   377A      5.924213   378A      5.941580  
	 379A      6.003972   380A      6.033607   381A      6.039985  
	 382A      6.085140   383A      6.108777   384A      6.134300  
	 385A      6.151611   386A      6.176315   387A      6.197870  
	 388A      6.214234   389A      6.264566   390A      6.282060  
	 391A      6.316193   392A      6.443558   393A      6.471437  
	 394A      6.576318   395A      6.598817   396A      6.641123  
	 397A      6.650363   398A      6.723755   399A      6.767666  
	 400A      6.796643   401A      6.847460   402A      6.854952  
	 403A      6.883112   404A      7.021138   405A      7.122069  
	 406A      7.165832   407A      7.240458   408A      7.414046  
	 409A      7.882401   410A      7.973827   411A     17.651973  
	 412A     17.740261   413A     18.446360   414A     18.966218  

	Final Occupation by Irrep:
	          A 
	DOCC [    18 ]

  Energy converged.

  @RHF Final Energy:  -190.50220964765933

   => Energetics <=

    Nuclear Repulsion Energy =            137.7273129725543015
    One-Electron Energy =                -530.3944318961144972
    Two-Electron Energy =                 202.1649092759008397
    DFT Exchange-Correlation Energy =       0.0000000000000000
    Empirical Dispersion Energy =           0.0000000000000000
    Total Energy =                       -190.5022096476593845



Properties will be evaluated at   0.000000,   0.000000,   0.000000 Bohr
  ==> Properties <==


Properties computed using the SCF density density matrix
  Nuclear Dipole Moment: (a.u.)
     X:     0.3251      Y:     0.1540      Z:     1.6228

  Electronic Dipole Moment: (a.u.)
     X:     0.3552      Y:    -0.5822      Z:    -1.5760

  Dipole Moment: (a.u.)
     X:     0.6803      Y:    -0.4282      Z:     0.0468     Total:     0.8052

  Dipole Moment: (Debye)
     X:     1.7292      Y:    -1.0884      Z:     0.1189     Total:     2.0467


  Saving occupied orbitals to File 180.

  Saving SAPT 2-DIMER file.

*** tstop() called on node117.bme.utexas.edu at Fri Feb 14 11:32:36 2014
Module time:
	user time   =     205.96 seconds =       3.43 minutes
	system time =       2.52 seconds =       0.04 minutes
	total time  =         56 seconds =       0.93 minutes
Total time:
	user time   =     205.96 seconds =       3.43 minutes
	system time =       2.52 seconds =       0.04 minutes
	total time  =         56 seconds =       0.93 minutes

  //>>>>>>>>>>>>>>>>>>>>>>>>>>>>>>>>>>>//
  //            Monomer A HF           //
  //<<<<<<<<<<<<<<<<<<<<<<<<<<<<<<<<<<<//


  No DF_BASIS_SCF auxiliary basis selected, defaulting to aug-cc-pvtz-jkfit


*** tstart() called on node117.bme.utexas.edu
*** at Fri Feb 14 11:32:36 2014


         ---------------------------------------------------------
                                   SCF
            by Justin Turney, Rob Parrish, and Andy Simmonett
                              RHF Reference
                        4 Threads,   7000 MiB Core
         ---------------------------------------------------------

  ==> Geometry <==

    Molecular point group: c1
    Full point group: C1

    Geometry (in Angstrom), charge = 0, multiplicity = 1:

       Center              X                  Y                   Z       
    ------------   -----------------  -----------------  -----------------
           N         -1.225042678911     0.184276725846    -0.612320609808
           H         -0.396446939911    -0.400576808154    -0.662662691808
           H         -1.886870243911    -0.205382844154    -1.270557566808
           C         -1.785060118911     0.104758930846     0.735057512192
           H         -2.679139069911     0.722605068846     0.796278408192
           H         -2.049146810911    -0.902483314154     1.072563103192
           H         -1.066676837911     0.512035265846     1.444198218192
           N(Gh)      1.396077673089    -0.677767657154    -0.498078491808
           H(Gh)      1.692346343089    -0.403229922154    -1.426063734808
           H(Gh)      2.019627340089    -1.425457973154    -0.222883628808
           C(Gh)      1.556307649089     0.457442935846     0.415596812192
           H(Gh)      1.286117345089     0.142747155846     1.421249921192
           H(Gh)      2.563717960089     0.879219494846     0.452568546192
           H(Gh)      0.863767266089     1.243218417846     0.122939566192

  Running in c1 symmetry.

  Nuclear repulsion =   42.092175479304117

  Charge       = 0
  Multiplicity = 1
  Electrons    = 18
  Nalpha       = 9
  Nbeta        = 9

  ==> Algorithm <==

  SCF Algorithm Type is DF.
  DIIS enabled.
  MOM disabled.
  Fractional occupation disabled.
  Guess Type is CORE.
  Energy threshold   = 1.00e-08
  Density threshold  = 1.00e-08
  Integral threshold = 0.00e+00

  ==> Primary Basis <==

  Basis Set: AUG-CC-PVTZ
    Number of shells: 146
    Number of basis function: 414
    Number of Cartesian functions: 470
    Spherical Harmonics?: true
    Max angular momentum: 3

  ==> Pre-Iterations <==

   -------------------------------------------------------
    Irrep   Nso     Nmo     Nalpha   Nbeta   Ndocc  Nsocc
   -------------------------------------------------------
     A        414     414       0       0       0       0
   -------------------------------------------------------
    Total     414     414       9       9       9       0
   -------------------------------------------------------

 OEINTS: Wrapper to libmints.
   by Justin Turney

   Calculation information:
      Number of atoms:                  14
      Number of AO shells:             146
      Number of SO shells:             146
      Number of primitives:            230
      Number of atomic orbitals:       470
      Number of basis functions:       414

      Number of irreps:                  1
      Number of functions per irrep: [ 414 ]

      Overlap, kinetic, potential, dipole, and quadrupole integrals
        stored in file 35.

  ==> Integral Setup <==

  ==> DFJK: Density-Fitted J/K Matrices <==

    J tasked:                  Yes
    K tasked:                  Yes
    wK tasked:                  No
    OpenMP threads:              4
    Integrals threads:           4
    Memory (MB):              5006
    Algorithm:                Core
    Integral Cache:           LOAD
    Schwarz Cutoff:          0E+00
    Fitting Condition:       1E-12

   => Auxiliary Basis Set <=

  Basis Set: aug-cc-pvtz-jkfit
    Number of shells: 260
    Number of basis function: 876
    Number of Cartesian functions: 1074
    Spherical Harmonics?: true
    Max angular momentum: 4

  Minimum eigenvalue in the overlap matrix is 1.1603904522E-05.
  Using Symmetric Orthogonalization.
  SCF Guess: Core (One-Electron) Hamiltonian.

  Guess energy:   -76.57469615454868

  ==> Iterations <==

                        Total Energy        Delta E     RMS |[F,P]|

   @RHF iter   1:   -69.63234725506625   -6.96323e+01   2.11809e-02 
   @RHF iter   2:   -71.83950837796191   -2.20716e+00   7.52423e-03 DIIS
   @RHF iter   3:   -87.21478306017265   -1.53753e+01   1.02406e-02 DIIS
   @RHF iter   4:   -92.40981955718577   -5.19504e+00   5.96245e-03 DIIS
   @RHF iter   5:   -94.54444398789626   -2.13462e+00   2.83630e-03 DIIS
   @RHF iter   6:   -95.22539611164139   -6.80952e-01   5.12728e-04 DIIS
   @RHF iter   7:   -95.25221641015308   -2.68203e-02   1.71244e-04 DIIS
   @RHF iter   8:   -95.25530660743409   -3.09020e-03   2.41312e-05 DIIS
   @RHF iter   9:   -95.25538240069322   -7.57933e-05   6.32680e-06 DIIS
   @RHF iter  10:   -95.25539072218974   -8.32150e-06   1.35748e-06 DIIS
   @RHF iter  11:   -95.25539115142927   -4.29240e-07   2.65265e-07 DIIS
   @RHF iter  12:   -95.25539117040385   -1.89746e-08   4.74447e-08 DIIS
   @RHF iter  13:   -95.25539117106699   -6.63135e-10   1.40203e-08 DIIS
   @RHF iter  14:   -95.25539117112508   -5.80940e-11   3.21051e-09 DIIS

  ==> Post-Iterations <==

	Orbital Energies (a.u.)
	-----------------------

	Doubly Occupied:                                                      

	   1A    -15.540731     2A    -11.240269     3A     -1.171603  
	   4A     -0.895579     5A     -0.662801     6A     -0.604120  
	   7A     -0.555537     8A     -0.516180     9A     -0.393748  

	Virtual:                                                              

	  10A      0.022710    11A      0.035816    12A      0.038913  
	  13A      0.040995    14A      0.055236    15A      0.058484  
	  16A      0.059987    17A      0.070673    18A      0.079501  
	  19A      0.084659    20A      0.096708    21A      0.109038  
	  22A      0.117536    23A      0.128087    24A      0.131716  
	  25A      0.136981    26A      0.139985    27A      0.148946  
	  28A      0.158134    29A      0.168842    30A      0.172398  
	  31A      0.184010    32A      0.193270    33A      0.198868  
	  34A      0.206014    35A      0.232715    36A      0.253476  
	  37A      0.255734    38A      0.270208    39A      0.280415  
	  40A      0.287649    41A      0.290366    42A      0.294357  
	  43A      0.301779    44A      0.310219    45A      0.314330  
	  46A      0.319265    47A      0.322437    48A      0.332435  
	  49A      0.338665    50A      0.355697    51A      0.357378  
	  52A      0.366238    53A      0.374358    54A      0.378803  
	  55A      0.384079    56A      0.389730    57A      0.393036  
	  58A      0.398199    59A      0.407842    60A      0.415690  
	  61A      0.421583    62A      0.428833    63A      0.436747  
	  64A      0.439065    65A      0.450534    66A      0.456033  
	  67A      0.463832    68A      0.473312    69A      0.480287  
	  70A      0.499078    71A      0.502020    72A      0.514681  
	  73A      0.517898    74A      0.524716    75A      0.528676  
	  76A      0.537059    77A      0.549907    78A      0.556061  
	  79A      0.561159    80A      0.573588    81A      0.574022  
	  82A      0.592782    83A      0.599474    84A      0.607268  
	  85A      0.618816    86A      0.637258    87A      0.646843  
	  88A      0.651355    89A      0.667211    90A      0.682155  
	  91A      0.692066    92A      0.701559    93A      0.727009  
	  94A      0.733781    95A      0.733937    96A      0.752783  
	  97A      0.764960    98A      0.780231    99A      0.801621  
	 100A      0.814344   101A      0.818626   102A      0.828983  
	 103A      0.836185   104A      0.848402   105A      0.855162  
	 106A      0.886398   107A      0.891024   108A      0.904208  
	 109A      0.915807   110A      0.925142   111A      0.936888  
	 112A      0.951799   113A      0.954571   114A      0.966110  
	 115A      0.981174   116A      0.985618   117A      0.988842  
	 118A      1.005461   119A      1.017346   120A      1.026390  
	 121A      1.036343   122A      1.039269   123A      1.057717  
	 124A      1.059772   125A      1.070333   126A      1.073750  
	 127A      1.079774   128A      1.089141   129A      1.094159  
	 130A      1.105325   131A      1.110819   132A      1.126991  
	 133A      1.133564   134A      1.145978   135A      1.152561  
	 136A      1.157985   137A      1.179997   138A      1.187919  
	 139A      1.198484   140A      1.206430   141A      1.208018  
	 142A      1.215279   143A      1.235714   144A      1.246491  
	 145A      1.256948   146A      1.262173   147A      1.272197  
	 148A      1.283210   149A      1.292418   150A      1.308888  
	 151A      1.323952   152A      1.326010   153A      1.334745  
	 154A      1.349044   155A      1.368888   156A      1.373306  
	 157A      1.386926   158A      1.392674   159A      1.409695  
	 160A      1.423615   161A      1.432404   162A      1.451489  
	 163A      1.456760   164A      1.463820   165A      1.474722  
	 166A      1.488206   167A      1.512227   168A      1.516802  
	 169A      1.524619   170A      1.531728   171A      1.545502  
	 172A      1.564851   173A      1.574006   174A      1.589927  
	 175A      1.612035   176A      1.629426   177A      1.629589  
	 178A      1.640290   179A      1.665300   180A      1.668233  
	 181A      1.697811   182A      1.701062   183A      1.706742  
	 184A      1.730513   185A      1.737785   186A      1.753264  
	 187A      1.765756   188A      1.785352   189A      1.791521  
	 190A      1.807104   191A      1.820826   192A      1.841401  
	 193A      1.855532   194A      1.869617   195A      1.879252  
	 196A      1.897251   197A      1.909244   198A      1.920475  
	 199A      1.943497   200A      1.952509   201A      1.969728  
	 202A      2.008286   203A      2.028856   204A      2.047809  
	 205A      2.051078   206A      2.070414   207A      2.088556  
	 208A      2.097023   209A      2.112494   210A      2.129391  
	 211A      2.153425   212A      2.171769   213A      2.190153  
	 214A      2.198760   215A      2.208377   216A      2.234734  
	 217A      2.250026   218A      2.263432   219A      2.283834  
	 220A      2.288568   221A      2.304235   222A      2.323877  
	 223A      2.339916   224A      2.368830   225A      2.374696  
	 226A      2.377485   227A      2.402994   228A      2.430086  
	 229A      2.460539   230A      2.472869   231A      2.483022  
	 232A      2.513065   233A      2.519009   234A      2.539741  
	 235A      2.565549   236A      2.584082   237A      2.628661  
	 238A      2.642776   239A      2.658537   240A      2.684411  
	 241A      2.708765   242A      2.744269   243A      2.760572  
	 244A      2.786882   245A      2.826491   246A      2.855923  
	 247A      2.910110   248A      2.917062   249A      2.938767  
	 250A      2.974283   251A      3.025838   252A      3.088831  
	 253A      3.116986   254A      3.145238   255A      3.229966  
	 256A      3.283742   257A      3.330369   258A      3.402368  
	 259A      3.466436   260A      3.471624   261A      3.502153  
	 262A      3.556553   263A      3.663297   264A      3.674460  
	 265A      3.702619   266A      3.734077   267A      3.791518  
	 268A      3.807958   269A      3.864243   270A      3.912070  
	 271A      3.953540   272A      3.960902   273A      4.006914  
	 274A      4.030909   275A      4.055581   276A      4.104869  
	 277A      4.122025   278A      4.142928   279A      4.164206  
	 280A      4.188751   281A      4.211440   282A      4.220560  
	 283A      4.227565   284A      4.259746   285A      4.268484  
	 286A      4.293330   287A      4.324710   288A      4.335113  
	 289A      4.356018   290A      4.375015   291A      4.399812  
	 292A      4.440944   293A      4.470051   294A      4.490419  
	 295A      4.523543   296A      4.531211   297A      4.541742  
	 298A      4.560660   299A      4.569556   300A      4.588952  
	 301A      4.641095   302A      4.647590   303A      4.661542  
	 304A      4.667525   305A      4.675083   306A      4.707664  
	 307A      4.741234   308A      4.761550   309A      4.770237  
	 310A      4.810514   311A      4.818221   312A      4.830780  
	 313A      4.863127   314A      4.869339   315A      4.880996  
	 316A      4.903594   317A      4.922449   318A      4.935790  
	 319A      4.960252   320A      4.993050   321A      5.003873  
	 322A      5.023373   323A      5.043963   324A      5.058722  
	 325A      5.070450   326A      5.089368   327A      5.101871  
	 328A      5.117838   329A      5.129709   330A      5.166739  
	 331A      5.175837   332A      5.185977   333A      5.212544  
	 334A      5.219797   335A      5.240529   336A      5.264741  
	 337A      5.299968   338A      5.325219   339A      5.345304  
	 340A      5.356492   341A      5.416583   342A      5.428139  
	 343A      5.452794   344A      5.474833   345A      5.487366  
	 346A      5.524131   347A      5.536045   348A      5.565414  
	 349A      5.579749   350A      5.597788   351A      5.611116  
	 352A      5.646306   353A      5.680444   354A      5.708868  
	 355A      5.755332   356A      5.778143   357A      5.822264  
	 358A      5.855278   359A      5.874482   360A      5.893963  
	 361A      5.955116   362A      5.977478   363A      6.006772  
	 364A      6.032193   365A      6.040254   366A      6.077926  
	 367A      6.090809   368A      6.140920   369A      6.153916  
	 370A      6.176641   371A      6.210348   372A      6.249629  
	 373A      6.299874   374A      6.370871   375A      6.400659  
	 376A      6.457730   377A      6.490959   378A      6.553185  
	 379A      6.613083   380A      6.672135   381A      6.747775  
	 382A      6.758489   383A      6.786918   384A      6.833465  
	 385A      6.921935   386A      7.004485   387A      7.070346  
	 388A      7.131862   389A      7.226986   390A      7.229707  
	 391A      7.252208   392A      7.384697   393A      7.602937  
	 394A      7.648003   395A      7.727583   396A      7.833123  
	 397A      7.886070   398A      7.912668   399A      8.035654  
	 400A      8.100866   401A      8.186454   402A      8.316954  
	 403A      8.355674   404A      8.751373   405A      9.408287  
	 406A     10.133133   407A     10.655568   408A     11.094818  
	 409A     11.375449   410A     12.211837   411A     17.756992  
	 412A     18.666368   413A     53.838871   414A     60.747775  

	Final Occupation by Irrep:
	          A 
	DOCC [     9 ]

  Energy converged.

  @RHF Final Energy:   -95.25539117112508

   => Energetics <=

    Nuclear Repulsion Energy =             42.0921754793041174
    One-Electron Energy =                -211.5339961323523426
    Two-Electron Energy =                  74.1864294819236960
    DFT Exchange-Correlation Energy =       0.0000000000000000
    Empirical Dispersion Energy =           0.0000000000000000
    Total Energy =                        -95.2553911711245433



Properties will be evaluated at   0.000000,   0.000000,   0.000000 Bohr
  ==> Properties <==


Properties computed using the SCF density density matrix
  Nuclear Dipole Moment: (a.u.)
     X:   -51.7104      Y:     3.1080      Z:     2.8420

  Electronic Dipole Moment: (a.u.)
     X:    51.5937      Y:    -3.6528      Z:    -2.7274

  Dipole Moment: (a.u.)
     X:    -0.1166      Y:    -0.5448      Z:     0.1146     Total:     0.5688

  Dipole Moment: (Debye)
     X:    -0.2965      Y:    -1.3846      Z:     0.2912     Total:     1.4456


  Saving occupied orbitals to File 180.

  Saving SAPT 2-MONOMER_A file.

*** tstop() called on node117.bme.utexas.edu at Fri Feb 14 11:33:17 2014
Module time:
	user time   =     154.93 seconds =       2.58 minutes
	system time =       1.59 seconds =       0.03 minutes
	total time  =         41 seconds =       0.68 minutes
Total time:
	user time   =     360.91 seconds =       6.02 minutes
	system time =       4.11 seconds =       0.07 minutes
	total time  =         97 seconds =       1.62 minutes

  //>>>>>>>>>>>>>>>>>>>>>>>>>>>>>>>>>>>//
  //            Monomer B HF           //
  //<<<<<<<<<<<<<<<<<<<<<<<<<<<<<<<<<<<//


  No DF_BASIS_SCF auxiliary basis selected, defaulting to aug-cc-pvtz-jkfit


*** tstart() called on node117.bme.utexas.edu
*** at Fri Feb 14 11:33:17 2014


         ---------------------------------------------------------
                                   SCF
            by Justin Turney, Rob Parrish, and Andy Simmonett
                              RHF Reference
                        4 Threads,   7000 MiB Core
         ---------------------------------------------------------

  ==> Geometry <==

    Molecular point group: c1
    Full point group: C1

    Geometry (in Angstrom), charge = 0, multiplicity = 1:

       Center              X                  Y                   Z       
    ------------   -----------------  -----------------  -----------------
           N(Gh)     -1.225042678911     0.184276725846    -0.612320609808
           H(Gh)     -0.396446939911    -0.400576808154    -0.662662691808
           H(Gh)     -1.886870243911    -0.205382844154    -1.270557566808
           C(Gh)     -1.785060118911     0.104758930846     0.735057512192
           H(Gh)     -2.679139069911     0.722605068846     0.796278408192
           H(Gh)     -2.049146810911    -0.902483314154     1.072563103192
           H(Gh)     -1.066676837911     0.512035265846     1.444198218192
           N          1.396077673089    -0.677767657154    -0.498078491808
           H          1.692346343089    -0.403229922154    -1.426063734808
           H          2.019627340089    -1.425457973154    -0.222883628808
           C          1.556307649089     0.457442935846     0.415596812192
           H          1.286117345089     0.142747155846     1.421249921192
           H          2.563717960089     0.879219494846     0.452568546192
           H          0.863767266089     1.243218417846     0.122939566192

  Running in c1 symmetry.

  Nuclear repulsion =   42.059829299923749

  Charge       = 0
  Multiplicity = 1
  Electrons    = 18
  Nalpha       = 9
  Nbeta        = 9

  ==> Algorithm <==

  SCF Algorithm Type is DF.
  DIIS enabled.
  MOM disabled.
  Fractional occupation disabled.
  Guess Type is CORE.
  Energy threshold   = 1.00e-08
  Density threshold  = 1.00e-08
  Integral threshold = 0.00e+00

  ==> Primary Basis <==

  Basis Set: AUG-CC-PVTZ
    Number of shells: 146
    Number of basis function: 414
    Number of Cartesian functions: 470
    Spherical Harmonics?: true
    Max angular momentum: 3

  ==> Pre-Iterations <==

   -------------------------------------------------------
    Irrep   Nso     Nmo     Nalpha   Nbeta   Ndocc  Nsocc
   -------------------------------------------------------
     A        414     414       0       0       0       0
   -------------------------------------------------------
    Total     414     414       9       9       9       0
   -------------------------------------------------------

 OEINTS: Wrapper to libmints.
   by Justin Turney

   Calculation information:
      Number of atoms:                  14
      Number of AO shells:             146
      Number of SO shells:             146
      Number of primitives:            230
      Number of atomic orbitals:       470
      Number of basis functions:       414

      Number of irreps:                  1
      Number of functions per irrep: [ 414 ]

      Overlap, kinetic, potential, dipole, and quadrupole integrals
        stored in file 35.

  ==> Integral Setup <==

  ==> DFJK: Density-Fitted J/K Matrices <==

    J tasked:                  Yes
    K tasked:                  Yes
    wK tasked:                  No
    OpenMP threads:              4
    Integrals threads:           4
    Memory (MB):              5006
    Algorithm:                Core
    Integral Cache:           LOAD
    Schwarz Cutoff:          0E+00
    Fitting Condition:       1E-12

   => Auxiliary Basis Set <=

  Basis Set: aug-cc-pvtz-jkfit
    Number of shells: 260
    Number of basis function: 876
    Number of Cartesian functions: 1074
    Spherical Harmonics?: true
    Max angular momentum: 4

  Minimum eigenvalue in the overlap matrix is 1.1603904522E-05.
  Using Symmetric Orthogonalization.
  SCF Guess: Core (One-Electron) Hamiltonian.

  Guess energy:   -76.55228138638671

  ==> Iterations <==

                        Total Energy        Delta E     RMS |[F,P]|

   @RHF iter   1:   -69.67253761948710   -6.96725e+01   2.11613e-02 
   @RHF iter   2:   -71.66592456450944   -1.99339e+00   7.56133e-03 DIIS
   @RHF iter   3:   -87.25732645111445   -1.55914e+01   1.02054e-02 DIIS
   @RHF iter   4:   -92.45858299389592   -5.20126e+00   5.90154e-03 DIIS
   @RHF iter   5:   -94.57071301331816   -2.11213e+00   2.77513e-03 DIIS
   @RHF iter   6:   -95.22769946627407   -6.56986e-01   4.93309e-04 DIIS
   @RHF iter   7:   -95.25246504542257   -2.47656e-02   1.66101e-04 DIIS
   @RHF iter   8:   -95.25541450123156   -2.94946e-03   2.28157e-05 DIIS
   @RHF iter   9:   -95.25548794940583   -7.34482e-05   6.47746e-06 DIIS
   @RHF iter  10:   -95.25549640144347   -8.45204e-06   1.33456e-06 DIIS
   @RHF iter  11:   -95.25549680830254   -4.06859e-07   2.63063e-07 DIIS
   @RHF iter  12:   -95.25549682625284   -1.79503e-08   4.66797e-08 DIIS
   @RHF iter  13:   -95.25549682688448   -6.31644e-10   1.39914e-08 DIIS
   @RHF iter  14:   -95.25549682693990   -5.54223e-11   3.09860e-09 DIIS

  ==> Post-Iterations <==

	Orbital Energies (a.u.)
	-----------------------

	Doubly Occupied:                                                      

	   1A    -15.540044     2A    -11.240450     3A     -1.170512  
	   4A     -0.896360     5A     -0.661677     6A     -0.604302  
	   7A     -0.554941     8A     -0.517163     9A     -0.393967  

	Virtual:                                                              

	  10A      0.025583    11A      0.035153    12A      0.039944  
	  13A      0.040541    14A      0.056486    15A      0.058658  
	  16A      0.059910    17A      0.068387    18A      0.079931  
	  19A      0.092807    20A      0.097285    21A      0.110564  
	  22A      0.120591    23A      0.128006    24A      0.131470  
	  25A      0.137910    26A      0.140519    27A      0.147315  
	  28A      0.156133    29A      0.172539    30A      0.176173  
	  31A      0.182576    32A      0.196123    33A      0.204655  
	  34A      0.215279    35A      0.223270    36A      0.243183  
	  37A      0.264264    38A      0.270510    39A      0.280826  
	  40A      0.283556    41A      0.295267    42A      0.298189  
	  43A      0.306729    44A      0.313258    45A      0.313655  
	  46A      0.321841    47A      0.328345    48A      0.334453  
	  49A      0.346168    50A      0.354021    51A      0.360983  
	  52A      0.371042    53A      0.375806    54A      0.377653  
	  55A      0.382656    56A      0.395344    57A      0.398434  
	  58A      0.403924    59A      0.407932    60A      0.415174  
	  61A      0.421745    62A      0.426140    63A      0.439123  
	  64A      0.447298    65A      0.453330    66A      0.463209  
	  67A      0.467719    68A      0.475067    69A      0.478398  
	  70A      0.488527    71A      0.492419    72A      0.513263  
	  73A      0.520926    74A      0.529622    75A      0.534921  
	  76A      0.544402    77A      0.549423    78A      0.556956  
	  79A      0.564729    80A      0.573892    81A      0.584697  
	  82A      0.585951    83A      0.591032    84A      0.616853  
	  85A      0.618749    86A      0.636588    87A      0.658814  
	  88A      0.668816    89A      0.682992    90A      0.692050  
	  91A      0.698507    92A      0.706212    93A      0.713764  
	  94A      0.732613    95A      0.745903    96A      0.764912  
	  97A      0.782056    98A      0.786736    99A      0.795930  
	 100A      0.809306   101A      0.823244   102A      0.832198  
	 103A      0.834186   104A      0.846567   105A      0.876030  
	 106A      0.882537   107A      0.886682   108A      0.895878  
	 109A      0.919621   110A      0.922701   111A      0.933862  
	 112A      0.950395   113A      0.954819   114A      0.960047  
	 115A      0.972699   116A      0.989425   117A      1.010018  
	 118A      1.010993   119A      1.018980   120A      1.034253  
	 121A      1.035781   122A      1.037296   123A      1.054143  
	 124A      1.064006   125A      1.079710   126A      1.079785  
	 127A      1.087439   128A      1.102134   129A      1.107820  
	 130A      1.122662   131A      1.126755   132A      1.131473  
	 133A      1.136476   134A      1.152132   135A      1.156344  
	 136A      1.174050   137A      1.183800   138A      1.186360  
	 139A      1.197242   140A      1.214545   141A      1.217667  
	 142A      1.223388   143A      1.231249   144A      1.242079  
	 145A      1.244503   146A      1.260290   147A      1.268877  
	 148A      1.281005   149A      1.293640   150A      1.308242  
	 151A      1.323451   152A      1.339303   153A      1.347849  
	 154A      1.359077   155A      1.367284   156A      1.377452  
	 157A      1.394928   158A      1.411412   159A      1.413405  
	 160A      1.424402   161A      1.435597   162A      1.446841  
	 163A      1.460004   164A      1.472905   165A      1.490183  
	 166A      1.500720   167A      1.510818   168A      1.524726  
	 169A      1.541423   170A      1.556253   171A      1.569337  
	 172A      1.571912   173A      1.586104   174A      1.610267  
	 175A      1.621402   176A      1.641073   177A      1.649384  
	 178A      1.653128   179A      1.666253   180A      1.689201  
	 181A      1.691670   182A      1.711114   183A      1.719133  
	 184A      1.730209   185A      1.739544   186A      1.751551  
	 187A      1.760231   188A      1.787444   189A      1.811771  
	 190A      1.813507   191A      1.825904   192A      1.839501  
	 193A      1.851908   194A      1.878433   195A      1.899161  
	 196A      1.903681   197A      1.925800   198A      1.940406  
	 199A      1.948521   200A      1.964747   201A      1.978454  
	 202A      2.008756   203A      2.016303   204A      2.054409  
	 205A      2.061102   206A      2.072668   207A      2.076865  
	 208A      2.104168   209A      2.119262   210A      2.132702  
	 211A      2.153762   212A      2.159028   213A      2.173959  
	 214A      2.216414   215A      2.231524   216A      2.236264  
	 217A      2.248233   218A      2.265801   219A      2.287302  
	 220A      2.294279   221A      2.317609   222A      2.320464  
	 223A      2.332360   224A      2.362030   225A      2.371309  
	 226A      2.386300   227A      2.412151   228A      2.422469  
	 229A      2.430529   230A      2.481892   231A      2.506836  
	 232A      2.520850   233A      2.529879   234A      2.554602  
	 235A      2.572600   236A      2.594544   237A      2.616529  
	 238A      2.626703   239A      2.659542   240A      2.676107  
	 241A      2.716995   242A      2.732144   243A      2.765414  
	 244A      2.790485   245A      2.812986   246A      2.861474  
	 247A      2.895386   248A      2.912646   249A      2.982195  
	 250A      3.036586   251A      3.046334   252A      3.129092  
	 253A      3.156655   254A      3.201934   255A      3.257480  
	 256A      3.331602   257A      3.384999   258A      3.393927  
	 259A      3.479214   260A      3.516062   261A      3.566431  
	 262A      3.665428   263A      3.680450   264A      3.721269  
	 265A      3.742318   266A      3.778903   267A      3.797933  
	 268A      3.830491   269A      3.869607   270A      3.920173  
	 271A      3.955721   272A      3.983132   273A      4.003643  
	 274A      4.054841   275A      4.089542   276A      4.138505  
	 277A      4.148791   278A      4.164544   279A      4.167800  
	 280A      4.202197   281A      4.213394   282A      4.231278  
	 283A      4.247992   284A      4.279146   285A      4.288840  
	 286A      4.311781   287A      4.327466   288A      4.345093  
	 289A      4.383831   290A      4.398015   291A      4.405690  
	 292A      4.430197   293A      4.461977   294A      4.476924  
	 295A      4.499588   296A      4.515833   297A      4.533782  
	 298A      4.549662   299A      4.568903   300A      4.601587  
	 301A      4.616261   302A      4.631192   303A      4.651892  
	 304A      4.683594   305A      4.693470   306A      4.718947  
	 307A      4.737763   308A      4.765321   309A      4.776770  
	 310A      4.782093   311A      4.791157   312A      4.834715  
	 313A      4.841431   314A      4.850552   315A      4.873614  
	 316A      4.888071   317A      4.916507   318A      4.935342  
	 319A      4.949950   320A      4.979828   321A      4.998838  
	 322A      5.020648   323A      5.054722   324A      5.059490  
	 325A      5.088815   326A      5.094986   327A      5.111446  
	 328A      5.126097   329A      5.133903   330A      5.144473  
	 331A      5.184891   332A      5.204803   333A      5.230754  
	 334A      5.246977   335A      5.266947   336A      5.285117  
	 337A      5.341874   338A      5.357054   339A      5.402702  
	 340A      5.414018   341A      5.439685   342A      5.457123  
	 343A      5.474660   344A      5.480668   345A      5.495821  
	 346A      5.523783   347A      5.535470   348A      5.554984  
	 349A      5.580606   350A      5.599824   351A      5.620085  
	 352A      5.643537   353A      5.659322   354A      5.711761  
	 355A      5.747695   356A      5.790348   357A      5.843082  
	 358A      5.873171   359A      5.885115   360A      5.904126  
	 361A      5.927630   362A      5.972139   363A      6.003710  
	 364A      6.014363   365A      6.046109   366A      6.079918  
	 367A      6.114330   368A      6.141986   369A      6.166678  
	 370A      6.181810   371A      6.211064   372A      6.239512  
	 373A      6.275643   374A      6.322863   375A      6.437772  
	 376A      6.493863   377A      6.510561   378A      6.585187  
	 379A      6.626205   380A      6.669760   381A      6.737137  
	 382A      6.793768   383A      6.809964   384A      6.850292  
	 385A      6.880647   386A      7.047030   387A      7.058537  
	 388A      7.152954   389A      7.204954   390A      7.306671  
	 391A      7.330630   392A      7.383354   393A      7.599399  
	 394A      7.678720   395A      7.812095   396A      7.833753  
	 397A      7.906904   398A      7.919608   399A      7.966652  
	 400A      8.176243   401A      8.220146   402A      8.288080  
	 403A      8.342448   404A      8.764399   405A      9.447332  
	 406A      9.970968   407A     10.533802   408A     11.222748  
	 409A     11.363384   410A     12.422593   411A     17.668281  
	 412A     18.698675   413A     53.326532   414A     61.641743  

	Final Occupation by Irrep:
	          A 
	DOCC [     9 ]

  Energy converged.

  @RHF Final Energy:   -95.25549682693990

   => Energetics <=

    Nuclear Repulsion Energy =             42.0598292999237486
    One-Electron Energy =                -211.4718208407352904
    Two-Electron Energy =                  74.1564947138716946
    DFT Exchange-Correlation Energy =       0.0000000000000000
    Empirical Dispersion Energy =           0.0000000000000000
    Total Energy =                        -95.2554968269398330



Properties will be evaluated at   0.000000,   0.000000,   0.000000 Bohr
  ==> Properties <==


Properties computed using the SCF density density matrix
  Nuclear Dipole Moment: (a.u.)
     X:    52.0354      Y:    -2.9541      Z:    -1.2192

  Electronic Dipole Moment: (a.u.)
     X:   -51.4884      Y:     3.1197      Z:     1.2116

  Dipole Moment: (a.u.)
     X:     0.5470      Y:     0.1657      Z:    -0.0076     Total:     0.5716

  Dipole Moment: (Debye)
     X:     1.3903      Y:     0.4211      Z:    -0.0193     Total:     1.4528


  Saving occupied orbitals to File 180.

  Saving SAPT 2-MONOMER_B file.

*** tstop() called on node117.bme.utexas.edu at Fri Feb 14 11:33:59 2014
Module time:
	user time   =     153.91 seconds =       2.57 minutes
	system time =       1.54 seconds =       0.03 minutes
	total time  =         42 seconds =       0.70 minutes
Total time:
	user time   =     514.85 seconds =       8.58 minutes
	system time =       5.65 seconds =       0.09 minutes
	total time  =        139 seconds =       2.32 minutes
  No DF_BASIS_SAPT auxiliary basis selected, defaulting to aug-cc-pvtz-ri

  //>>>>>>>>>>>>>>>>>>>>>>>>>>>>>>>>>>>//
  //               SAPT2+              //
  //<<<<<<<<<<<<<<<<<<<<<<<<<<<<<<<<<<<//


*** tstart() called on node117.bme.utexas.edu
*** at Fri Feb 14 11:33:59 2014

        SAPT2+  
    Ed Hohenstein
     6 June 2009

      Orbital Information
  --------------------------
    NSO        =       414
    NMO        =       414
    NRI        =       884
    NOCC A     =         9
    NOCC B     =         9
    FOCC A     =         2
    FOCC B     =         2
    NVIR A     =       405
    NVIR B     =       405

    Estimated memory usage: 1478.8 MB

    Elst10,r            =    -0.023649705544 H
    Exch10 (S^2)        =     0.040140877398 H
    Exch10              =     0.040896284743 H
    Ind20,r (A<-B)      =    -0.006123483009 H
    Ind20,r (B<-A)      =    -0.008579873216 H
    Ind20,r             =    -0.014703356225 H
    Exch-Ind20,r (A<-B) =     0.004650779828 H
    Exch-Ind20,r (B<-A) =     0.005617965791 H
    Exch-Ind20,r        =     0.010268745619 H
    Disp20              =    -0.015640146421 H
    Exch-Disp20         =     0.003022505748 H
    Elst12,r            =    -0.001182354257 H
    Exch11              =     0.000828423214 H
    Exch12              =     0.002256578976 H
    Ind22               =    -0.001548566529 H
    Disp21              =     0.000990260262 H
    Disp22 (SDQ)        =     0.000434371519 H

    (i =   1 of   7)        535 seconds
    (i =   2 of   7)       1070 seconds
    (i =   3 of   7)       1605 seconds
    (i =   4 of   7)       2141 seconds
    (i =   5 of   7)       2677 seconds
    (i =   6 of   7)       3213 seconds
    (i =   7 of   7)       3748 seconds

    Disp220 (T)         =    -0.001150172539 H

    (i =   1 of   7)        535 seconds
    (i =   2 of   7)       1072 seconds
    (i =   3 of   7)       1606 seconds
    (i =   4 of   7)       2141 seconds
    (i =   5 of   7)       2676 seconds
    (i =   6 of   7)       3211 seconds
    (i =   7 of   7)       3746 seconds

    Disp202 (T)         =    -0.001093470584 H

    Disp22 (T)          =    -0.002243643124 H

    SAPT Results  
  -----------------------------------------------------------------------
    Electrostatics         -24.83205980 mH     -15.58235343 kcal mol^-1
      Elst10,r             -23.64970554 mH     -14.84041490 kcal mol^-1
      Elst12,r              -1.18235426 mH      -0.74193853 kcal mol^-1

    Exchange                43.98128693 mH      27.59867537 kcal mol^-1
      Exch10                40.89628474 mH      25.66280719 kcal mol^-1
      Exch10(S^2)           40.14087740 mH      25.18878191 kcal mol^-1
      Exch11(S^2)            0.82842321 mH       0.51984344 kcal mol^-1
      Exch12(S^2)            2.25657898 mH       1.41602474 kcal mol^-1

    Induction               -9.03528471 mH      -5.66972699 kcal mol^-1
      Ind20,r              -14.70335622 mH      -9.22649571 kcal mol^-1
      Ind22                 -1.54856653 mH      -0.97174021 kcal mol^-1
      Exch-Ind20,r          10.26874562 mH       6.44373543 kcal mol^-1
      Exch-Ind22             1.08151061 mH       0.67865818 kcal mol^-1
      delta HF,r (2)        -4.13361819 mH      -2.59388468 kcal mol^-1

    Dispersion             -13.43665201 mH      -8.43162679 kcal mol^-1
      Disp20               -15.64014642 mH      -9.81434046 kcal mol^-1
      Disp21                 0.99026026 mH       0.62139772 kcal mol^-1
      Disp22 (SDQ)           0.43437152 mH       0.27257225 kcal mol^-1
      Disp22 (T)            -2.24364312 mH      -1.40790737 kcal mol^-1
      Exch-Disp20            3.02250575 mH       1.89665107 kcal mol^-1

    Total HF                 8.67835041 mH       5.44574732 kcal mol^-1
    Total SAPT0             -3.93929027 mH      -2.47194207 kcal mol^-1
    Total SAPT2             -2.50369825 mH      -1.57109444 kcal mol^-1
    Total SAPT2+            -3.32270959 mH      -2.08503184 kcal mol^-1

*** tstop() called on node117.bme.utexas.edu at Fri Feb 14 14:40:55 2014
Module time:
	user time   =   42577.96 seconds =     709.63 minutes
	system time =     177.02 seconds =       2.95 minutes
	total time  =      11216 seconds =     186.93 minutes
Total time:
	user time   =   43092.82 seconds =     718.21 minutes
	system time =     182.67 seconds =       3.04 minutes
	total time  =      11355 seconds =     189.25 minutes

*** PSI4 exiting successfully. Buy a developer a beer!
