    -----------------------------------------------------------------------
          PSI4: An Open-Source Ab Initio Electronic Structure Package
                              PSI 4.0.0-beta4 Driver

    J. M. Turney, A. C. Simmonett, R. M. Parrish, E. G. Hohenstein,
    F. A. Evangelista, J. T. Fermann, B. J. Mintz, L. A. Burns, J. J. Wilke,
    M. L. Abrams, N. J. Russ, M. L. Leininger, C. L. Janssen, E. T. Seidl,
    W. D. Allen, H. F. Schaefer, R. A. King, E. F. Valeev, C. D. Sherrill,
    and T. D. Crawford, WIREs Comput. Mol. Sci., (2011) (doi: 10.1002/wcms.93)

                         Additional Contributions by
    A. E. DePrince, M. Saitow, U. Bozkaya, A. Yu. Sokolov
    -----------------------------------------------------------------------

    Process ID:    521
    PSI4DATADIR: /home/xzhu216/psi4/psi4-install/share/psi

    Using LocalCommunicator (Number of processes = 1)

    Memory level set to 256.000 MB

  ==> Input File <==

--------------------------------------------------------------------------
#psi4
#
memory 7 gb

molecule MeNH2_MeNH2 {
0 1
N   -0.638641380   0.470916372   0.044568477
H    0.189954359  -0.113937162  -0.005773605
H   -1.300468945   0.081256802  -0.613668480
C   -1.198658820   0.391398577   1.391946599
H   -2.092737771   1.009244715   1.453167495
H   -1.462745512  -0.615843668   1.729452190
H   -0.480275539   0.798674912   2.101087305
--
0 1
N    2.654774123  -0.495089799   0.220538707
H    2.951042793  -0.220552064  -0.707446536
H    3.278323790  -1.242780115   0.495733570
C    2.815004099   0.640120794   1.134214011
H    2.544813795   0.325425014   2.139867120
H    3.822414410   1.061897353   1.171185745
H    2.122463716   1.425896276   0.841556765
units angstrom
no_reorient  #important for SAPT in psi4, default
symmetry c1  #important for SAPT in psi4, default
}

set {
basis aug-cc-pVTZ
scf_type DF
freeze_core True
}
energy('sapt2+')
--------------------------------------------------------------------------

  Memory set to   7.000 GiB by Python script.

  //>>>>>>>>>>>>>>>>>>>>>>>>>>>>>>>>>>>//
  //              Dimer HF             //
  //<<<<<<<<<<<<<<<<<<<<<<<<<<<<<<<<<<<//


  No DF_BASIS_SCF auxiliary basis selected, defaulting to aug-cc-pvtz-jkfit


*** tstart() called on node129.bme.utexas.edu
*** at Fri Nov  8 20:36:55 2013


         ---------------------------------------------------------
                                   SCF
            by Justin Turney, Rob Parrish, and Andy Simmonett
                              RHF Reference
                        4 Threads,   7000 MiB Core
         ---------------------------------------------------------

  ==> Geometry <==

    Molecular point group: c1
    Full point group: C1

    Geometry (in Angstrom), charge = 0, multiplicity = 1:

       Center              X                  Y                   Z       
    ------------   -----------------  -----------------  -----------------
           N         -1.561190254411     0.236257619846    -0.643184665808
           H         -0.732594515411    -0.348595914154    -0.693526747808
           H         -2.223017819411    -0.153401950154    -1.301421622808
           C         -2.121207694411     0.156739824846     0.704193456192
           H         -3.015286645411     0.774585962846     0.765414352192
           H         -2.385294386411    -0.850502420154     1.041699047192
           H         -1.402824413411     0.564016159846     1.413334162192
           N          1.732225248589    -0.729748551154    -0.467214435808
           H          2.028493918589    -0.455210816154    -1.395199678808
           H          2.355774915589    -1.477438867154    -0.192019572808
           C          1.892455224589     0.405462041846     0.446460868192
           H          1.622264920589     0.090766261846     1.452113977192
           H          2.899865535589     0.827238600846     0.483432602192
           H          1.199914841589     1.191237523846     0.153803622192

  Running in c1 symmetry.

  Nuclear repulsion =  128.631388272261120

  Charge       = 0
  Multiplicity = 1
  Electrons    = 36
  Nalpha       = 18
  Nbeta        = 18

  ==> Algorithm <==

  SCF Algorithm Type is DF.
  DIIS enabled.
  MOM disabled.
  Fractional occupation disabled.
  Guess Type is CORE.
  Energy threshold   = 1.00e-08
  Density threshold  = 1.00e-08
  Integral threshold = 0.00e+00

  ==> Primary Basis <==

  Basis Set: AUG-CC-PVTZ
    Number of shells: 146
    Number of basis function: 414
    Number of Cartesian functions: 470
    Spherical Harmonics?: true
    Max angular momentum: 3

  ==> Pre-Iterations <==

   -------------------------------------------------------
    Irrep   Nso     Nmo     Nalpha   Nbeta   Ndocc  Nsocc
   -------------------------------------------------------
     A        414     414       0       0       0       0
   -------------------------------------------------------
    Total     414     414      18      18      18       0
   -------------------------------------------------------

 OEINTS: Wrapper to libmints.
   by Justin Turney

   Calculation information:
      Number of atoms:                  14
      Number of AO shells:             146
      Number of SO shells:             146
      Number of primitives:            230
      Number of atomic orbitals:       470
      Number of basis functions:       414

      Number of irreps:                  1
      Number of functions per irrep: [ 414 ]

      Overlap, kinetic, potential, dipole, and quadrupole integrals
        stored in file 35.

  ==> Integral Setup <==

  ==> DFJK: Density-Fitted J/K Matrices <==

    J tasked:                  Yes
    K tasked:                  Yes
    wK tasked:                  No
    OpenMP threads:              4
    Integrals threads:           4
    Memory (MB):              5006
    Algorithm:                Core
    Integral Cache:           SAVE
    Schwarz Cutoff:          0E+00
    Fitting Condition:       1E-12

   => Auxiliary Basis Set <=

  Basis Set: aug-cc-pvtz-jkfit
    Number of shells: 260
    Number of basis function: 876
    Number of Cartesian functions: 1074
    Spherical Harmonics?: true
    Max angular momentum: 4

  Minimum eigenvalue in the overlap matrix is 1.7439179255E-05.
  Using Symmetric Orthogonalization.
  SCF Guess: Core (One-Electron) Hamiltonian.

  Guess energy:  -154.04993813305475

  ==> Iterations <==

                        Total Energy        Delta E     RMS |[F,P]|

   @RHF iter   1:  -139.44857470014665   -1.39449e+02   2.97814e-02 
   @RHF iter   2:  -137.62679836401685    1.82178e+00   1.16514e-02 DIIS
   @RHF iter   3:  -170.85304829333728   -3.32262e+01   1.47006e-02 DIIS
   @RHF iter   4:  -185.34502327826823   -1.44920e+01   7.86919e-03 DIIS
   @RHF iter   5:  -189.05321375213731   -3.70819e+00   3.97555e-03 DIIS
   @RHF iter   6:  -190.36014120682995   -1.30693e+00   1.14864e-03 DIIS
   @RHF iter   7:  -190.50557030869982   -1.45429e-01   2.39263e-04 DIIS
   @RHF iter   8:  -190.51260863052386   -7.03832e-03   7.90955e-05 DIIS
   @RHF iter   9:  -190.51328188539179   -6.73255e-04   2.07817e-05 DIIS
   @RHF iter  10:  -190.51334950411285   -6.76187e-05   4.95807e-06 DIIS
   @RHF iter  11:  -190.51335446037319   -4.95626e-06   1.43875e-06 DIIS
   @RHF iter  12:  -190.51335486188333   -4.01510e-07   4.14101e-07 DIIS
   @RHF iter  13:  -190.51335489510871   -3.32254e-08   1.30082e-07 DIIS
   @RHF iter  14:  -190.51335489749727   -2.38856e-09   3.11608e-08 DIIS
   @RHF iter  15:  -190.51335489773669   -2.39424e-10   7.32558e-09 DIIS

  ==> Post-Iterations <==

	Orbital Energies (a.u.)
	-----------------------

	Doubly Occupied:                                                      

	   1A    -15.546001     2A    -15.523773     3A    -11.241360  
	   4A    -11.229951     5A     -1.176267     6A     -1.156701  
	   7A     -0.899016     8A     -0.884076     9A     -0.667426  
	  10A     -0.649674    11A     -0.607078    12A     -0.591999  
	  13A     -0.558310    14A     -0.542404    15A     -0.519296  
	  16A     -0.504917    17A     -0.401393    18A     -0.379291  

	Virtual:                                                              

	  19A      0.027759    20A      0.038105    21A      0.040221  
	  22A      0.042195    23A      0.055117    24A      0.058212  
	  25A      0.058712    26A      0.071660    27A      0.080242  
	  28A      0.090580    29A      0.103246    30A      0.115897  
	  31A      0.129613    32A      0.131555    33A      0.141061  
	  34A      0.142660    35A      0.146044    36A      0.155699  
	  37A      0.160626    38A      0.174776    39A      0.177029  
	  40A      0.186037    41A      0.191341    42A      0.208293  
	  43A      0.214878    44A      0.236219    45A      0.240035  
	  46A      0.249939    47A      0.258997    48A      0.264231  
	  49A      0.278738    50A      0.282780    51A      0.289821  
	  52A      0.295087    53A      0.303821    54A      0.321360  
	  55A      0.330018    56A      0.337239    57A      0.341286  
	  58A      0.351189    59A      0.355762    60A      0.364430  
	  61A      0.368231    62A      0.373591    63A      0.377116  
	  64A      0.384238    65A      0.389424    66A      0.391814  
	  67A      0.400860    68A      0.405591    69A      0.410571  
	  70A      0.419233    71A      0.422546    72A      0.428253  
	  73A      0.438029    74A      0.443266    75A      0.445524  
	  76A      0.456546    77A      0.461756    78A      0.466242  
	  79A      0.471075    80A      0.479363    81A      0.489391  
	  82A      0.497021    83A      0.499954    84A      0.513070  
	  85A      0.516208    86A      0.519739    87A      0.526087  
	  88A      0.536279    89A      0.547288    90A      0.552447  
	  91A      0.558252    92A      0.561020    93A      0.584549  
	  94A      0.597680    95A      0.611277    96A      0.615305  
	  97A      0.623333    98A      0.638760    99A      0.649893  
	 100A      0.665785   101A      0.680588   102A      0.693143  
	 103A      0.709836   104A      0.726064   105A      0.746696  
	 106A      0.756289   107A      0.783056   108A      0.808030  
	 109A      0.814971   110A      0.818753   111A      0.833384  
	 112A      0.837301   113A      0.843291   114A      0.855779  
	 115A      0.859280   116A      0.878261   117A      0.887488  
	 118A      0.900100   119A      0.914428   120A      0.916617  
	 121A      0.919233   122A      0.923655   123A      0.932294  
	 124A      0.941215   125A      0.947289   126A      0.958828  
	 127A      0.962239   128A      0.965523   129A      0.981282  
	 130A      0.989811   131A      0.997395   132A      1.006225  
	 133A      1.011931   134A      1.020805   135A      1.031667  
	 136A      1.038648   137A      1.041621   138A      1.050588  
	 139A      1.056816   140A      1.063386   141A      1.082840  
	 142A      1.087132   143A      1.101092   144A      1.106074  
	 145A      1.109144   146A      1.110530   147A      1.126142  
	 148A      1.134703   149A      1.138794   150A      1.143889  
	 151A      1.156663   152A      1.163096   153A      1.181203  
	 154A      1.196584   155A      1.211752   156A      1.216454  
	 157A      1.224554   158A      1.230421   159A      1.236659  
	 160A      1.250196   161A      1.259541   162A      1.279110  
	 163A      1.285243   164A      1.297764   165A      1.306167  
	 166A      1.315282   167A      1.328503   168A      1.345645  
	 169A      1.350465   170A      1.358078   171A      1.372174  
	 172A      1.375420   173A      1.393125   174A      1.402116  
	 175A      1.405875   176A      1.435925   177A      1.455594  
	 178A      1.472621   179A      1.478691   180A      1.493748  
	 181A      1.494490   182A      1.506572   183A      1.526444  
	 184A      1.530767   185A      1.544345   186A      1.563202  
	 187A      1.567414   188A      1.614754   189A      1.635688  
	 190A      1.653660   191A      1.654865   192A      1.663455  
	 193A      1.676705   194A      1.686995   195A      1.692654  
	 196A      1.696041   197A      1.706596   198A      1.715064  
	 199A      1.723956   200A      1.748432   201A      1.753131  
	 202A      1.771124   203A      1.784911   204A      1.798087  
	 205A      1.813222   206A      1.829499   207A      1.850894  
	 208A      1.871014   209A      1.884041   210A      1.901681  
	 211A      1.948220   212A      1.967131   213A      1.980789  
	 214A      2.002246   215A      2.016111   216A      2.031256  
	 217A      2.040805   218A      2.046479   219A      2.058866  
	 220A      2.071700   221A      2.089182   222A      2.099028  
	 223A      2.107123   224A      2.115290   225A      2.118430  
	 226A      2.129538   227A      2.143402   228A      2.192415  
	 229A      2.202065   230A      2.231270   231A      2.236281  
	 232A      2.260528   233A      2.268678   234A      2.278591  
	 235A      2.291485   236A      2.301451   237A      2.324828  
	 238A      2.337043   239A      2.352821   240A      2.361732  
	 241A      2.407162   242A      2.417943   243A      2.472438  
	 244A      2.478123   245A      2.490137   246A      2.520291  
	 247A      2.542955   248A      2.558063   249A      2.575734  
	 250A      2.595698   251A      2.601474   252A      2.645833  
	 253A      2.670403   254A      2.689538   255A      2.701032  
	 256A      2.735328   257A      2.748746   258A      2.842893  
	 259A      2.956167   260A      3.029911   261A      3.174314  
	 262A      3.218057   263A      3.393510   264A      3.419110  
	 265A      3.435000   266A      3.454222   267A      3.471490  
	 268A      3.499546   269A      3.606119   270A      3.625481  
	 271A      3.644883   272A      3.647572   273A      3.656934  
	 274A      3.665863   275A      3.680586   276A      3.698059  
	 277A      3.703921   278A      3.746632   279A      3.765324  
	 280A      3.776360   281A      3.807020   282A      3.862907  
	 283A      3.878237   284A      3.882073   285A      3.916051  
	 286A      3.937237   287A      3.946667   288A      3.951707  
	 289A      3.963435   290A      3.989163   291A      4.000993  
	 292A      4.011959   293A      4.034943   294A      4.089067  
	 295A      4.105379   296A      4.127223   297A      4.132696  
	 298A      4.138463   299A      4.153221   300A      4.169613  
	 301A      4.180621   302A      4.194848   303A      4.213560  
	 304A      4.236143   305A      4.266723   306A      4.273761  
	 307A      4.285015   308A      4.298972   309A      4.328847  
	 310A      4.340334   311A      4.359080   312A      4.365298  
	 313A      4.374537   314A      4.403050   315A      4.451394  
	 316A      4.466037   317A      4.473345   318A      4.503188  
	 319A      4.512120   320A      4.525614   321A      4.580114  
	 322A      4.590405   323A      4.622813   324A      4.647458  
	 325A      4.658665   326A      4.666553   327A      4.689369  
	 328A      4.721803   329A      4.729441   330A      4.756986  
	 331A      4.765358   332A      4.777145   333A      4.812776  
	 334A      4.835872   335A      4.839205   336A      4.848755  
	 337A      4.877201   338A      4.891777   339A      4.916591  
	 340A      4.926647   341A      4.936718   342A      4.966127  
	 343A      5.001833   344A      5.027913   345A      5.044975  
	 346A      5.060160   347A      5.066098   348A      5.071750  
	 349A      5.097075   350A      5.123593   351A      5.126762  
	 352A      5.139923   353A      5.174183   354A      5.185566  
	 355A      5.201351   356A      5.213341   357A      5.250818  
	 358A      5.258558   359A      5.272268   360A      5.292224  
	 361A      5.336774   362A      5.365546   363A      5.398614  
	 364A      5.426213   365A      5.520541   366A      5.552279  
	 367A      5.555285   368A      5.574441   369A      5.586299  
	 370A      5.596467   371A      5.621343   372A      5.652773  
	 373A      5.792421   374A      5.820668   375A      5.835778  
	 376A      5.850956   377A      5.877622   378A      5.920986  
	 379A      5.944285   380A      6.002853   381A      6.006165  
	 382A      6.029607   383A      6.034008   384A      6.079090  
	 385A      6.120823   386A      6.139251   387A      6.145061  
	 388A      6.157216   389A      6.190301   390A      6.207955  
	 391A      6.269312   392A      6.308600   393A      6.434854  
	 394A      6.444287   395A      6.560498   396A      6.587898  
	 397A      6.600613   398A      6.639720   399A      6.736814  
	 400A      6.769994   401A      6.787777   402A      6.815860  
	 403A      6.826257   404A      6.885736   405A      7.066244  
	 406A      7.091362   407A      7.159090   408A      7.183872  
	 409A      7.846147   410A      7.859228   411A     17.016495  
	 412A     17.239991   413A     18.157896   414A     18.406756  

	Final Occupation by Irrep:
	          A 
	DOCC [    18 ]

  Energy converged.

  @RHF Final Energy:  -190.51335489773669

   => Energetics <=

    Nuclear Repulsion Energy =            128.6313882722611197
    One-Electron Energy =                -512.1316150493545365
    Two-Electron Energy =                 192.9868718793571247
    DFT Exchange-Correlation Energy =       0.0000000000000000
    Empirical Dispersion Energy =           0.0000000000000000
    Total Energy =                       -190.5133548977362921



Properties will be evaluated at   0.000000,   0.000000,   0.000000 Bohr
  ==> Properties <==


Properties computed using the SCF density density matrix
  Nuclear Dipole Moment: (a.u.)
     X:     0.3251      Y:     0.1540      Z:     1.6228

  Electronic Dipole Moment: (a.u.)
     X:     0.2231      Y:    -0.5478      Z:    -1.5443

  Dipole Moment: (a.u.)
     X:     0.5482      Y:    -0.3939      Z:     0.0785     Total:     0.6796

  Dipole Moment: (Debye)
     X:     1.3934      Y:    -1.0011      Z:     0.1996     Total:     1.7273


  Saving occupied orbitals to File 180.

  Saving SAPT 2-DIMER file.

*** tstop() called on node129.bme.utexas.edu at Fri Nov  8 20:37:51 2013
Module time:
	user time   =     206.55 seconds =       3.44 minutes
	system time =       2.55 seconds =       0.04 minutes
	total time  =         56 seconds =       0.93 minutes
Total time:
	user time   =     206.55 seconds =       3.44 minutes
	system time =       2.55 seconds =       0.04 minutes
	total time  =         56 seconds =       0.93 minutes

  //>>>>>>>>>>>>>>>>>>>>>>>>>>>>>>>>>>>//
  //            Monomer A HF           //
  //<<<<<<<<<<<<<<<<<<<<<<<<<<<<<<<<<<<//


  No DF_BASIS_SCF auxiliary basis selected, defaulting to aug-cc-pvtz-jkfit


*** tstart() called on node129.bme.utexas.edu
*** at Fri Nov  8 20:37:51 2013


         ---------------------------------------------------------
                                   SCF
            by Justin Turney, Rob Parrish, and Andy Simmonett
                              RHF Reference
                        4 Threads,   7000 MiB Core
         ---------------------------------------------------------

  ==> Geometry <==

    Molecular point group: c1
    Full point group: C1

    Geometry (in Angstrom), charge = 0, multiplicity = 1:

       Center              X                  Y                   Z       
    ------------   -----------------  -----------------  -----------------
           N         -1.561190254411     0.236257619846    -0.643184665808
           H         -0.732594515411    -0.348595914154    -0.693526747808
           H         -2.223017819411    -0.153401950154    -1.301421622808
           C         -2.121207694411     0.156739824846     0.704193456192
           H         -3.015286645411     0.774585962846     0.765414352192
           H         -2.385294386411    -0.850502420154     1.041699047192
           H         -1.402824413411     0.564016159846     1.413334162192
           N(Gh)      1.732225248589    -0.729748551154    -0.467214435808
           H(Gh)      2.028493918589    -0.455210816154    -1.395199678808
           H(Gh)      2.355774915589    -1.477438867154    -0.192019572808
           C(Gh)      1.892455224589     0.405462041846     0.446460868192
           H(Gh)      1.622264920589     0.090766261846     1.452113977192
           H(Gh)      2.899865535589     0.827238600846     0.483432602192
           H(Gh)      1.199914841589     1.191237523846     0.153803622192

  Running in c1 symmetry.

  Nuclear repulsion =   42.092175479304117

  Charge       = 0
  Multiplicity = 1
  Electrons    = 18
  Nalpha       = 9
  Nbeta        = 9

  ==> Algorithm <==

  SCF Algorithm Type is DF.
  DIIS enabled.
  MOM disabled.
  Fractional occupation disabled.
  Guess Type is CORE.
  Energy threshold   = 1.00e-08
  Density threshold  = 1.00e-08
  Integral threshold = 0.00e+00

  ==> Primary Basis <==

  Basis Set: AUG-CC-PVTZ
    Number of shells: 146
    Number of basis function: 414
    Number of Cartesian functions: 470
    Spherical Harmonics?: true
    Max angular momentum: 3

  ==> Pre-Iterations <==

   -------------------------------------------------------
    Irrep   Nso     Nmo     Nalpha   Nbeta   Ndocc  Nsocc
   -------------------------------------------------------
     A        414     414       0       0       0       0
   -------------------------------------------------------
    Total     414     414       9       9       9       0
   -------------------------------------------------------

 OEINTS: Wrapper to libmints.
   by Justin Turney

   Calculation information:
      Number of atoms:                  14
      Number of AO shells:             146
      Number of SO shells:             146
      Number of primitives:            230
      Number of atomic orbitals:       470
      Number of basis functions:       414

      Number of irreps:                  1
      Number of functions per irrep: [ 414 ]

      Overlap, kinetic, potential, dipole, and quadrupole integrals
        stored in file 35.

  ==> Integral Setup <==

  ==> DFJK: Density-Fitted J/K Matrices <==

    J tasked:                  Yes
    K tasked:                  Yes
    wK tasked:                  No
    OpenMP threads:              4
    Integrals threads:           4
    Memory (MB):              5006
    Algorithm:                Core
    Integral Cache:           LOAD
    Schwarz Cutoff:          0E+00
    Fitting Condition:       1E-12

   => Auxiliary Basis Set <=

  Basis Set: aug-cc-pvtz-jkfit
    Number of shells: 260
    Number of basis function: 876
    Number of Cartesian functions: 1074
    Spherical Harmonics?: true
    Max angular momentum: 4

  Minimum eigenvalue in the overlap matrix is 1.7439179255E-05.
  Using Symmetric Orthogonalization.
  SCF Guess: Core (One-Electron) Hamiltonian.

  Guess energy:   -76.57248490222129

  ==> Iterations <==

                        Total Energy        Delta E     RMS |[F,P]|

   @RHF iter   1:   -69.65176079306568   -6.96518e+01   2.11059e-02 
   @RHF iter   2:   -71.79458133289812   -2.14282e+00   7.50607e-03 DIIS
   @RHF iter   3:   -87.24908963849090   -1.54545e+01   1.02248e-02 DIIS
   @RHF iter   4:   -92.40969395063614   -5.16060e+00   5.96472e-03 DIIS
   @RHF iter   5:   -94.54336193896809   -2.13367e+00   2.84008e-03 DIIS
   @RHF iter   6:   -95.22531093137671   -6.81949e-01   5.13289e-04 DIIS
   @RHF iter   7:   -95.25221078259615   -2.68999e-02   1.70570e-04 DIIS
   @RHF iter   8:   -95.25527069264122   -3.05991e-03   2.43915e-05 DIIS
   @RHF iter   9:   -95.25534657335253   -7.58807e-05   6.26253e-06 DIIS
   @RHF iter  10:   -95.25535477580213   -8.20245e-06   1.35679e-06 DIIS
   @RHF iter  11:   -95.25535520413659   -4.28334e-07   2.64582e-07 DIIS
   @RHF iter  12:   -95.25535522315816   -1.90216e-08   4.73990e-08 DIIS
   @RHF iter  13:   -95.25535522382357   -6.65409e-10   1.39325e-08 DIIS
   @RHF iter  14:   -95.25535522388110   -5.75255e-11   3.21230e-09 DIIS

  ==> Post-Iterations <==

	Orbital Energies (a.u.)
	-----------------------

	Doubly Occupied:                                                      

	   1A    -15.540743     2A    -11.240261     3A     -1.171602  
	   4A     -0.895579     5A     -0.662799     6A     -0.604120  
	   7A     -0.555539     8A     -0.516181     9A     -0.393748  

	Virtual:                                                              

	  10A      0.022065    11A      0.035071    12A      0.038589  
	  13A      0.040716    14A      0.053993    15A      0.056647  
	  16A      0.058035    17A      0.071034    18A      0.079067  
	  19A      0.083317    20A      0.095084    21A      0.107637  
	  22A      0.114343    23A      0.127551    24A      0.129207  
	  25A      0.133757    26A      0.137255    27A      0.146191  
	  28A      0.156140    29A      0.164038    30A      0.170035  
	  31A      0.179356    32A      0.186687    33A      0.195163  
	  34A      0.205187    35A      0.230725    36A      0.243575  
	  37A      0.249616    38A      0.267019    39A      0.268918  
	  40A      0.277225    41A      0.285282    42A      0.285595  
	  43A      0.293889    44A      0.301119    45A      0.307264  
	  46A      0.311921    47A      0.317688    48A      0.328989  
	  49A      0.332646    50A      0.346212    51A      0.347490  
	  52A      0.355157    53A      0.365697    54A      0.370691  
	  55A      0.376382    56A      0.381207    57A      0.385340  
	  58A      0.389818    59A      0.394472    60A      0.407296  
	  61A      0.415190    62A      0.420615    63A      0.426377  
	  64A      0.432149    65A      0.437157    66A      0.444515  
	  67A      0.453682    68A      0.459898    69A      0.463518  
	  70A      0.481786    71A      0.484813    72A      0.494074  
	  73A      0.497611    74A      0.502132    75A      0.508541  
	  76A      0.518725    77A      0.529382    78A      0.535916  
	  79A      0.543149    80A      0.554288    81A      0.559336  
	  82A      0.580622    83A      0.584435    84A      0.586745  
	  85A      0.600329    86A      0.617235    87A      0.632489  
	  88A      0.639078    89A      0.655605    90A      0.667059  
	  91A      0.672773    92A      0.676395    93A      0.701724  
	  94A      0.707642    95A      0.726927    96A      0.738362  
	  97A      0.742944    98A      0.750857    99A      0.790674  
	 100A      0.804814   101A      0.811624   102A      0.816260  
	 103A      0.827630   104A      0.833481   105A      0.845321  
	 106A      0.853326   107A      0.866429   108A      0.877868  
	 109A      0.893647   110A      0.897209   111A      0.921371  
	 112A      0.924553   113A      0.938001   114A      0.946304  
	 115A      0.956956   116A      0.964587   117A      0.977796  
	 118A      0.980226   119A      0.989904   120A      1.004032  
	 121A      1.014653   122A      1.024474   123A      1.032456  
	 124A      1.050249   125A      1.054191   126A      1.057506  
	 127A      1.064254   128A      1.069217   129A      1.074223  
	 130A      1.075881   131A      1.087043   132A      1.093719  
	 133A      1.105979   134A      1.116874   135A      1.121092  
	 136A      1.136679   137A      1.139093   138A      1.150205  
	 139A      1.156375   140A      1.171336   141A      1.172435  
	 142A      1.189747   143A      1.195301   144A      1.203223  
	 145A      1.210533   146A      1.225120   147A      1.237536  
	 148A      1.242849   149A      1.246749   150A      1.268507  
	 151A      1.277177   152A      1.279507   153A      1.290557  
	 154A      1.306689   155A      1.310601   156A      1.316441  
	 157A      1.335494   158A      1.342353   159A      1.357243  
	 160A      1.361385   161A      1.375513   162A      1.395941  
	 163A      1.409726   164A      1.420723   165A      1.429962  
	 166A      1.440808   167A      1.442243   168A      1.471019  
	 169A      1.484207   170A      1.489139   171A      1.494479  
	 172A      1.522372   173A      1.523235   174A      1.534226  
	 175A      1.548848   176A      1.560617   177A      1.569401  
	 178A      1.584724   179A      1.600572   180A      1.623204  
	 181A      1.635666   182A      1.651172   183A      1.661891  
	 184A      1.668702   185A      1.683090   186A      1.698829  
	 187A      1.710881   188A      1.721871   189A      1.738926  
	 190A      1.743703   191A      1.752585   192A      1.768936  
	 193A      1.777150   194A      1.786051   195A      1.838114  
	 196A      1.850142   197A      1.863826   198A      1.872335  
	 199A      1.885952   200A      1.908090   201A      1.929474  
	 202A      1.959684   203A      1.968782   204A      1.989783  
	 205A      2.033599   206A      2.039416   207A      2.048315  
	 208A      2.058034   209A      2.078383   210A      2.094918  
	 211A      2.100656   212A      2.114942   213A      2.123101  
	 214A      2.148963   215A      2.154801   216A      2.174133  
	 217A      2.195703   218A      2.211215   219A      2.228257  
	 220A      2.240542   221A      2.249965   222A      2.267492  
	 223A      2.288338   224A      2.291848   225A      2.306185  
	 226A      2.332770   227A      2.348597   228A      2.363846  
	 229A      2.376371   230A      2.403792   231A      2.433542  
	 232A      2.451336   233A      2.464915   234A      2.478948  
	 235A      2.500956   236A      2.520888   237A      2.550097  
	 238A      2.569697   239A      2.579346   240A      2.620563  
	 241A      2.642522   242A      2.681569   243A      2.698762  
	 244A      2.741686   245A      2.751797   246A      2.805058  
	 247A      2.831742   248A      2.876157   249A      2.892732  
	 250A      2.904986   251A      2.993100   252A      3.047194  
	 253A      3.066337   254A      3.084073   255A      3.115789  
	 256A      3.169049   257A      3.315837   258A      3.324484  
	 259A      3.420586   260A      3.426443   261A      3.434817  
	 262A      3.456459   263A      3.632052   264A      3.636663  
	 265A      3.649069   266A      3.651089   267A      3.702448  
	 268A      3.757987   269A      3.824487   270A      3.875464  
	 271A      3.904494   272A      3.936406   273A      3.956800  
	 274A      3.967886   275A      3.995369   276A      4.029910  
	 277A      4.105374   278A      4.119663   279A      4.125094  
	 280A      4.143690   281A      4.154654   282A      4.174340  
	 283A      4.184315   284A      4.190994   285A      4.219559  
	 286A      4.232482   287A      4.260337   288A      4.289867  
	 289A      4.322379   290A      4.345250   291A      4.347956  
	 292A      4.388693   293A      4.406527   294A      4.442037  
	 295A      4.448269   296A      4.477279   297A      4.493870  
	 298A      4.505900   299A      4.528542   300A      4.543960  
	 301A      4.555283   302A      4.591487   303A      4.621995  
	 304A      4.632262   305A      4.642245   306A      4.647069  
	 307A      4.699873   308A      4.701952   309A      4.718159  
	 310A      4.750238   311A      4.778641   312A      4.790689  
	 313A      4.802933   314A      4.818770   315A      4.837684  
	 316A      4.853856   317A      4.874158   318A      4.882324  
	 319A      4.894912   320A      4.914298   321A      4.927661  
	 322A      4.961378   323A      4.990587   324A      5.010764  
	 325A      5.033472   326A      5.043285   327A      5.050743  
	 328A      5.063669   329A      5.074921   330A      5.098626  
	 331A      5.103943   332A      5.138035   333A      5.145057  
	 334A      5.179720   335A      5.190363   336A      5.224030  
	 337A      5.246312   338A      5.272689   339A      5.275439  
	 340A      5.313154   341A      5.337857   342A      5.371056  
	 343A      5.382214   344A      5.401211   345A      5.429112  
	 346A      5.481794   347A      5.500835   348A      5.502864  
	 349A      5.524184   350A      5.548388   351A      5.557762  
	 352A      5.564954   353A      5.590362   354A      5.622242  
	 355A      5.650637   356A      5.726429   357A      5.789075  
	 358A      5.801331   359A      5.827038   360A      5.838637  
	 361A      5.869017   362A      5.921205   363A      5.966932  
	 364A      5.974586   365A      6.000566   366A      6.010047  
	 367A      6.030684   368A      6.056437   369A      6.131708  
	 370A      6.135184   371A      6.181575   372A      6.194226  
	 373A      6.201147   374A      6.289124   375A      6.305375  
	 376A      6.430243   377A      6.453682   378A      6.495850  
	 379A      6.573824   380A      6.615803   381A      6.661127  
	 382A      6.721898   383A      6.749701   384A      6.783252  
	 385A      6.861661   386A      6.939011   387A      7.005180  
	 388A      7.079797   389A      7.128673   390A      7.180302  
	 391A      7.211639   392A      7.265133   393A      7.554964  
	 394A      7.588008   395A      7.633374   396A      7.834981  
	 397A      7.854953   398A      7.869467   399A      7.888738  
	 400A      7.999430   401A      8.090168   402A      8.229032  
	 403A      8.285248   404A      8.704378   405A      9.371021  
	 406A      9.964792   407A     10.550312   408A     11.066867  
	 409A     11.277519   410A     12.022908   411A     17.233783  
	 412A     18.236291   413A     53.397767   414A     59.144658  

	Final Occupation by Irrep:
	          A 
	DOCC [     9 ]

  Energy converged.

  @RHF Final Energy:   -95.25535522388110

   => Energetics <=

    Nuclear Repulsion Energy =             42.0921754793041174
    One-Electron Energy =                -211.5339160132266443
    Two-Electron Energy =                  74.1863853100420698
    DFT Exchange-Correlation Energy =       0.0000000000000000
    Empirical Dispersion Energy =           0.0000000000000000
    Total Energy =                        -95.2553552238804713



Properties will be evaluated at   0.000000,   0.000000,   0.000000 Bohr
  ==> Properties <==


Properties computed using the SCF density density matrix
  Nuclear Dipole Moment: (a.u.)
     X:   -63.1444      Y:     4.8761      Z:     1.7922

  Electronic Dipole Moment: (a.u.)
     X:    63.0278      Y:    -5.4209      Z:    -1.6776

  Dipole Moment: (a.u.)
     X:    -0.1166      Y:    -0.5447      Z:     0.1146     Total:     0.5687

  Dipole Moment: (Debye)
     X:    -0.2964      Y:    -1.3846      Z:     0.2912     Total:     1.4456


  Saving occupied orbitals to File 180.

  Saving SAPT 2-MONOMER_A file.

*** tstop() called on node129.bme.utexas.edu at Fri Nov  8 20:38:32 2013
Module time:
	user time   =     154.04 seconds =       2.57 minutes
	system time =       1.73 seconds =       0.03 minutes
	total time  =         41 seconds =       0.68 minutes
Total time:
	user time   =     360.61 seconds =       6.01 minutes
	system time =       4.28 seconds =       0.07 minutes
	total time  =         97 seconds =       1.62 minutes

  //>>>>>>>>>>>>>>>>>>>>>>>>>>>>>>>>>>>//
  //            Monomer B HF           //
  //<<<<<<<<<<<<<<<<<<<<<<<<<<<<<<<<<<<//


  No DF_BASIS_SCF auxiliary basis selected, defaulting to aug-cc-pvtz-jkfit


*** tstart() called on node129.bme.utexas.edu
*** at Fri Nov  8 20:38:32 2013


         ---------------------------------------------------------
                                   SCF
            by Justin Turney, Rob Parrish, and Andy Simmonett
                              RHF Reference
                        4 Threads,   7000 MiB Core
         ---------------------------------------------------------

  ==> Geometry <==

    Molecular point group: c1
    Full point group: C1

    Geometry (in Angstrom), charge = 0, multiplicity = 1:

       Center              X                  Y                   Z       
    ------------   -----------------  -----------------  -----------------
           N(Gh)     -1.561190254411     0.236257619846    -0.643184665808
           H(Gh)     -0.732594515411    -0.348595914154    -0.693526747808
           H(Gh)     -2.223017819411    -0.153401950154    -1.301421622808
           C(Gh)     -2.121207694411     0.156739824846     0.704193456192
           H(Gh)     -3.015286645411     0.774585962846     0.765414352192
           H(Gh)     -2.385294386411    -0.850502420154     1.041699047192
           H(Gh)     -1.402824413411     0.564016159846     1.413334162192
           N          1.732225248589    -0.729748551154    -0.467214435808
           H          2.028493918589    -0.455210816154    -1.395199678808
           H          2.355774915589    -1.477438867154    -0.192019572808
           C          1.892455224589     0.405462041846     0.446460868192
           H          1.622264920589     0.090766261846     1.452113977192
           H          2.899865535589     0.827238600846     0.483432602192
           H          1.199914841589     1.191237523846     0.153803622192

  Running in c1 symmetry.

  Nuclear repulsion =   42.059829299923763

  Charge       = 0
  Multiplicity = 1
  Electrons    = 18
  Nalpha       = 9
  Nbeta        = 9

  ==> Algorithm <==

  SCF Algorithm Type is DF.
  DIIS enabled.
  MOM disabled.
  Fractional occupation disabled.
  Guess Type is CORE.
  Energy threshold   = 1.00e-08
  Density threshold  = 1.00e-08
  Integral threshold = 0.00e+00

  ==> Primary Basis <==

  Basis Set: AUG-CC-PVTZ
    Number of shells: 146
    Number of basis function: 414
    Number of Cartesian functions: 470
    Spherical Harmonics?: true
    Max angular momentum: 3

  ==> Pre-Iterations <==

   -------------------------------------------------------
    Irrep   Nso     Nmo     Nalpha   Nbeta   Ndocc  Nsocc
   -------------------------------------------------------
     A        414     414       0       0       0       0
   -------------------------------------------------------
    Total     414     414       9       9       9       0
   -------------------------------------------------------

 OEINTS: Wrapper to libmints.
   by Justin Turney

   Calculation information:
      Number of atoms:                  14
      Number of AO shells:             146
      Number of SO shells:             146
      Number of primitives:            230
      Number of atomic orbitals:       470
      Number of basis functions:       414

      Number of irreps:                  1
      Number of functions per irrep: [ 414 ]

      Overlap, kinetic, potential, dipole, and quadrupole integrals
        stored in file 35.

  ==> Integral Setup <==

  ==> DFJK: Density-Fitted J/K Matrices <==

    J tasked:                  Yes
    K tasked:                  Yes
    wK tasked:                  No
    OpenMP threads:              4
    Integrals threads:           4
    Memory (MB):              5006
    Algorithm:                Core
    Integral Cache:           LOAD
    Schwarz Cutoff:          0E+00
    Fitting Condition:       1E-12

   => Auxiliary Basis Set <=

  Basis Set: aug-cc-pvtz-jkfit
    Number of shells: 260
    Number of basis function: 876
    Number of Cartesian functions: 1074
    Spherical Harmonics?: true
    Max angular momentum: 4

  Minimum eigenvalue in the overlap matrix is 1.7439179255E-05.
  Using Symmetric Orthogonalization.
  SCF Guess: Core (One-Electron) Hamiltonian.

  Guess energy:   -76.54975764455730

  ==> Iterations <==

                        Total Energy        Delta E     RMS |[F,P]|

   @RHF iter   1:   -69.69650366739374   -6.96965e+01   2.10947e-02 
   @RHF iter   2:   -71.65651057513463   -1.96001e+00   7.54232e-03 DIIS
   @RHF iter   3:   -87.27719574654833   -1.56207e+01   1.01969e-02 DIIS
   @RHF iter   4:   -92.45133595751022   -5.17414e+00   5.91193e-03 DIIS
   @RHF iter   5:   -94.56515421669226   -2.11382e+00   2.78819e-03 DIIS
   @RHF iter   6:   -95.22727265604223   -6.62118e-01   4.96600e-04 DIIS
   @RHF iter   7:   -95.25239273354893   -2.51201e-02   1.66850e-04 DIIS
   @RHF iter   8:   -95.25536429555339   -2.97156e-03   2.30487e-05 DIIS
   @RHF iter   9:   -95.25543818351383   -7.38880e-05   6.45238e-06 DIIS
   @RHF iter  10:   -95.25544661228406   -8.42877e-06   1.34135e-06 DIIS
   @RHF iter  11:   -95.25544702233154   -4.10047e-07   2.63476e-07 DIIS
   @RHF iter  12:   -95.25544704044123   -1.81097e-08   4.69286e-08 DIIS
   @RHF iter  13:   -95.25544704108111   -6.39886e-10   1.40532e-08 DIIS
   @RHF iter  14:   -95.25544704113688   -5.57634e-11   3.12716e-09 DIIS

  ==> Post-Iterations <==

	Orbital Energies (a.u.)
	-----------------------

	Doubly Occupied:                                                      

	   1A    -15.540060     2A    -11.240440     3A     -1.170510  
	   4A     -0.896362     5A     -0.661680     6A     -0.604300  
	   7A     -0.554945     8A     -0.517167     9A     -0.393962  

	Virtual:                                                              

	  10A      0.025350    11A      0.034097    12A      0.040138  
	  13A      0.040513    14A      0.054999    15A      0.056772  
	  16A      0.058375    17A      0.068717    18A      0.079026  
	  19A      0.090898    20A      0.096745    21A      0.107720  
	  22A      0.118240    23A      0.126077    24A      0.131820  
	  25A      0.134550    26A      0.140173    27A      0.144713  
	  28A      0.154806    29A      0.166794    30A      0.173370  
	  31A      0.177060    32A      0.192783    33A      0.198540  
	  34A      0.213731    35A      0.222025    36A      0.237092  
	  37A      0.257203    38A      0.259477    39A      0.271421  
	  40A      0.279146    41A      0.286520    42A      0.291600  
	  43A      0.297189    44A      0.303490    45A      0.308027  
	  46A      0.314344    47A      0.322932    48A      0.330974  
	  49A      0.341571    50A      0.349812    51A      0.353399  
	  52A      0.359801    53A      0.364850    54A      0.372656  
	  55A      0.375192    56A      0.382585    57A      0.384290  
	  58A      0.390852    59A      0.399066    60A      0.404049  
	  61A      0.406175    62A      0.423156    63A      0.430400  
	  64A      0.441633    65A      0.443353    66A      0.455324  
	  67A      0.457318    68A      0.466112    69A      0.470523  
	  70A      0.473328    71A      0.479981    72A      0.491687  
	  73A      0.502279    74A      0.511256    75A      0.516601  
	  76A      0.518881    77A      0.535090    78A      0.536979  
	  79A      0.544293    80A      0.548809    81A      0.564632  
	  82A      0.567004    83A      0.582236    84A      0.599948  
	  85A      0.609863    86A      0.618931    87A      0.628393  
	  88A      0.646973    89A      0.654250    90A      0.666094  
	  91A      0.669263    92A      0.692700    93A      0.702606  
	  94A      0.710689    95A      0.733206    96A      0.751410  
	  97A      0.766236    98A      0.775571    99A      0.777417  
	 100A      0.790712   101A      0.802238   102A      0.812051  
	 103A      0.824661   104A      0.836217   105A      0.860115  
	 106A      0.868194   107A      0.872786   108A      0.885570  
	 109A      0.908258   110A      0.915340   111A      0.926687  
	 112A      0.934898   113A      0.937433   114A      0.949837  
	 115A      0.951769   116A      0.970262   117A      0.979027  
	 118A      0.991220   119A      0.997196   120A      1.002101  
	 121A      1.015934   122A      1.020326   123A      1.032438  
	 124A      1.039469   125A      1.052782   126A      1.061314  
	 127A      1.068360   128A      1.080601   129A      1.081665  
	 130A      1.091545   131A      1.100496   132A      1.103488  
	 133A      1.112835   134A      1.118052   135A      1.130072  
	 136A      1.136073   137A      1.140989   138A      1.152681  
	 139A      1.161698   140A      1.166459   141A      1.174650  
	 142A      1.190224   143A      1.204068   144A      1.208813  
	 145A      1.222278   146A      1.225430   147A      1.235739  
	 148A      1.242926   149A      1.244805   150A      1.257279  
	 151A      1.267150   152A      1.280424   153A      1.294530  
	 154A      1.302206   155A      1.318259   156A      1.332297  
	 157A      1.336663   158A      1.350177   159A      1.365261  
	 160A      1.368481   161A      1.384598   162A      1.398621  
	 163A      1.400884   164A      1.419947   165A      1.426667  
	 166A      1.435623   167A      1.452341   168A      1.473854  
	 169A      1.487580   170A      1.491605   171A      1.508567  
	 172A      1.519063   173A      1.536440   174A      1.561965  
	 175A      1.572925   176A      1.576194   177A      1.592323  
	 178A      1.611964   179A      1.625016   180A      1.630223  
	 181A      1.652723   182A      1.671993   183A      1.673703  
	 184A      1.680118   185A      1.687583   186A      1.703961  
	 187A      1.716433   188A      1.723674   189A      1.738151  
	 190A      1.759736   191A      1.771328   192A      1.777526  
	 193A      1.798126   194A      1.808702   195A      1.820473  
	 196A      1.848744   197A      1.863046   198A      1.876291  
	 199A      1.880424   200A      1.894249   201A      1.931167  
	 202A      1.945508   203A      1.986880   204A      2.019157  
	 205A      2.030813   206A      2.043371   207A      2.045231  
	 208A      2.063554   209A      2.065966   210A      2.074714  
	 211A      2.097349   212A      2.109729   213A      2.123092  
	 214A      2.153976   215A      2.158918   216A      2.183713  
	 217A      2.188976   218A      2.217209   219A      2.222717  
	 220A      2.242492   221A      2.265607   222A      2.268827  
	 223A      2.285462   224A      2.298675   225A      2.306718  
	 226A      2.335090   227A      2.359255   228A      2.383796  
	 229A      2.401071   230A      2.405607   231A      2.419615  
	 232A      2.461184   233A      2.472451   234A      2.489909  
	 235A      2.508552   236A      2.529638   237A      2.534168  
	 238A      2.570790   239A      2.590927   240A      2.610601  
	 241A      2.640320   242A      2.657138   243A      2.695231  
	 244A      2.735175   245A      2.741886   246A      2.762964  
	 247A      2.841637   248A      2.852679   249A      2.925731  
	 250A      2.962134   251A      2.983204   252A      3.020454  
	 253A      3.108817   254A      3.116883   255A      3.164857  
	 256A      3.252932   257A      3.297183   258A      3.376774  
	 259A      3.410575   260A      3.460187   261A      3.508435  
	 262A      3.532772   263A      3.634383   264A      3.663322  
	 265A      3.676935   266A      3.705461   267A      3.738896  
	 268A      3.779408   269A      3.828918   270A      3.880512  
	 271A      3.927235   272A      3.940998   273A      3.952177  
	 274A      3.985339   275A      4.004971   276A      4.071662  
	 277A      4.093064   278A      4.131027   279A      4.139486  
	 280A      4.148920   281A      4.168189   282A      4.185894  
	 283A      4.189148   284A      4.213487   285A      4.226331  
	 286A      4.257592   287A      4.272022   288A      4.294373  
	 289A      4.339437   290A      4.347175   291A      4.358785  
	 292A      4.374033   293A      4.428969   294A      4.442471  
	 295A      4.453346   296A      4.463265   297A      4.476392  
	 298A      4.489372   299A      4.505913   300A      4.528585  
	 301A      4.562763   302A      4.586205   303A      4.602456  
	 304A      4.617567   305A      4.629044   306A      4.668572  
	 307A      4.685464   308A      4.714452   309A      4.733114  
	 310A      4.740515   311A      4.761549   312A      4.790161  
	 313A      4.802717   314A      4.814102   315A      4.823151  
	 316A      4.835868   317A      4.853726   318A      4.868051  
	 319A      4.872323   320A      4.923205   321A      4.949154  
	 322A      4.957879   323A      4.996145   324A      5.015720  
	 325A      5.028740   326A      5.036518   327A      5.047492  
	 328A      5.081928   329A      5.085936   330A      5.103536  
	 331A      5.121784   332A      5.139043   333A      5.164743  
	 334A      5.181376   335A      5.203927   336A      5.228581  
	 337A      5.247375   338A      5.265126   339A      5.307678  
	 340A      5.325085   341A      5.361346   342A      5.393978  
	 343A      5.396667   344A      5.404484   345A      5.421273  
	 346A      5.469054   347A      5.512386   348A      5.513832  
	 349A      5.525063   350A      5.538188   351A      5.558201  
	 352A      5.561345   353A      5.594953   354A      5.641666  
	 355A      5.659571   356A      5.736303   357A      5.784397  
	 358A      5.824395   359A      5.843806   360A      5.850270  
	 361A      5.877119   362A      5.901362   363A      5.940837  
	 364A      5.991270   365A      6.015396   366A      6.018977  
	 367A      6.036711   368A      6.042706   369A      6.123564  
	 370A      6.145913   371A      6.162215   372A      6.193145  
	 373A      6.204431   374A      6.275816   375A      6.329452  
	 376A      6.437003   377A      6.464345   378A      6.525836  
	 379A      6.567080   380A      6.614182   381A      6.668955  
	 382A      6.768316   383A      6.773164   384A      6.809648  
	 385A      6.831249   386A      6.971074   387A      6.992246  
	 388A      7.079038   389A      7.131105   390A      7.173772  
	 391A      7.213156   392A      7.231488   393A      7.552301  
	 394A      7.636290   395A      7.729887   396A      7.816380  
	 397A      7.851106   398A      7.883569   399A      7.912454  
	 400A      8.081003   401A      8.123366   402A      8.208373  
	 403A      8.281002   404A      8.728993   405A      9.379712  
	 406A      9.869933   407A     10.498902   408A     11.140204  
	 409A     11.297148   410A     12.144774   411A     17.025029  
	 412A     18.309841   413A     53.145145   414A     59.799095  

	Final Occupation by Irrep:
	          A 
	DOCC [     9 ]

  Energy converged.

  @RHF Final Energy:   -95.25544704113688

   => Energetics <=

    Nuclear Repulsion Energy =             42.0598292999237628
    One-Electron Energy =                -211.4717002013848628
    Two-Electron Energy =                  74.1564238603247929
    DFT Exchange-Correlation Energy =       0.0000000000000000
    Empirical Dispersion Energy =           0.0000000000000000
    Total Energy =                        -95.2554470411363070



Properties will be evaluated at   0.000000,   0.000000,   0.000000 Bohr
  ==> Properties <==


Properties computed using the SCF density density matrix
  Nuclear Dipole Moment: (a.u.)
     X:    63.4695      Y:    -4.7222      Z:    -0.1693

  Electronic Dipole Moment: (a.u.)
     X:   -62.9226      Y:     4.8878      Z:     0.1617

  Dipole Moment: (a.u.)
     X:     0.5469      Y:     0.1656      Z:    -0.0076     Total:     0.5715

  Dipole Moment: (Debye)
     X:     1.3902      Y:     0.4210      Z:    -0.0194     Total:     1.4527


  Saving occupied orbitals to File 180.

  Saving SAPT 2-MONOMER_B file.

*** tstop() called on node129.bme.utexas.edu at Fri Nov  8 20:39:13 2013
Module time:
	user time   =     154.09 seconds =       2.57 minutes
	system time =       1.72 seconds =       0.03 minutes
	total time  =         41 seconds =       0.68 minutes
Total time:
	user time   =     514.72 seconds =       8.58 minutes
	system time =       6.00 seconds =       0.10 minutes
	total time  =        138 seconds =       2.30 minutes
  No DF_BASIS_SAPT auxiliary basis selected, defaulting to aug-cc-pvtz-ri

  //>>>>>>>>>>>>>>>>>>>>>>>>>>>>>>>>>>>//
  //               SAPT2+              //
  //<<<<<<<<<<<<<<<<<<<<<<<<<<<<<<<<<<<//


*** tstart() called on node129.bme.utexas.edu
*** at Fri Nov  8 20:39:13 2013

        SAPT2+  
    Ed Hohenstein
     6 June 2009

      Orbital Information
  --------------------------
    NSO        =       414
    NMO        =       414
    NRI        =       884
    NOCC A     =         9
    NOCC B     =         9
    FOCC A     =         2
    FOCC B     =         2
    NVIR A     =       405
    NVIR B     =       405

    Estimated memory usage: 1478.8 MB

    Elst10,r            =    -0.005611642462 H
    Exch10 (S^2)        =     0.004261481660 H
    Exch10              =     0.004271514175 H
    Ind20,r (A<-B)      =    -0.000629098939 H
    Ind20,r (B<-A)      =    -0.000927755995 H
    Ind20,r             =    -0.001556854934 H
    Exch-Ind20,r (A<-B) =     0.000239270866 H
    Exch-Ind20,r (B<-A) =     0.000552659146 H
    Exch-Ind20,r        =     0.000791930012 H
    Disp20              =    -0.004126254509 H
    Exch-Disp20         =     0.000440527968 H
    Elst12,r            =    -0.000245358269 H
    Exch11              =     0.000066325403 H
    Exch12              =     0.000544580904 H
    Ind22               =    -0.000198139802 H
    Disp21              =     0.000173485426 H
    Disp22 (SDQ)        =     0.000118693685 H

    (i =   1 of   7)        535 seconds
    (i =   2 of   7)       1071 seconds
    (i =   3 of   7)       1608 seconds
    (i =   4 of   7)       2144 seconds
    (i =   5 of   7)       2680 seconds
    (i =   6 of   7)       3215 seconds
    (i =   7 of   7)       3751 seconds

    Disp220 (T)         =    -0.000336025314 H

    (i =   1 of   7)        535 seconds
    (i =   2 of   7)       1071 seconds
    (i =   3 of   7)       1607 seconds
    (i =   4 of   7)       2143 seconds
    (i =   5 of   7)       2678 seconds
    (i =   6 of   7)       3214 seconds
    (i =   7 of   7)       3749 seconds

    Disp202 (T)         =    -0.000326979261 H

    Disp22 (T)          =    -0.000663004575 H

    SAPT Results  
  -----------------------------------------------------------------------
    Electrostatics          -5.85700073 mH      -3.67532360 kcal mol^-1
      Elst10,r              -5.61164246 mH      -3.52135896 kcal mol^-1
      Elst12,r              -0.24535827 mH      -0.15396464 kcal mol^-1

    Exchange                 4.88242048 mH       3.06376523 kcal mol^-1
      Exch10                 4.27151417 mH       2.68041572 kcal mol^-1
      Exch10(S^2)            4.26148166 mH       2.67412023 kcal mol^-1
      Exch11(S^2)            0.06632540 mH       0.04161982 kcal mol^-1
      Exch12(S^2)            0.54458090 mH       0.34172969 kcal mol^-1

    Induction               -1.30985587 mH      -0.82194700 kcal mol^-1
      Ind20,r               -1.55685493 mH      -0.97694126 kcal mol^-1
      Ind22                 -0.19813980 mH      -0.12433461 kcal mol^-1
      Exch-Ind20,r           0.79193001 mH       0.49694361 kcal mol^-1
      Exch-Ind22             0.10078836 mH       0.06324565 kcal mol^-1
      delta HF,r (2)        -0.44757951 mH      -0.28086039 kcal mol^-1

    Dispersion              -4.05655201 mH      -2.54552492 kcal mol^-1
      Disp20                -4.12625451 mH      -2.58926390 kcal mol^-1
      Disp21                 0.17348543 mH       0.10886375 kcal mol^-1
      Disp22 (SDQ)           0.11869368 mH       0.07448141 kcal mol^-1
      Disp22 (T)            -0.66300457 mH      -0.41604167 kcal mol^-1
      Exch-Disp20            0.44052797 mH       0.27643549 kcal mol^-1

    Total HF                -2.55263272 mH      -1.60180128 kcal mol^-1
    Total SAPT0             -6.23835926 mH      -3.91462970 kcal mol^-1
    Total SAPT2             -5.97016266 mH      -3.74633379 kcal mol^-1
    Total SAPT2+            -6.34098813 mH      -3.97903029 kcal mol^-1

*** tstop() called on node129.bme.utexas.edu at Fri Nov  8 23:45:59 2013
Module time:
	user time   =   42638.64 seconds =     710.64 minutes
	system time =     157.34 seconds =       2.62 minutes
	total time  =      11206 seconds =     186.77 minutes
Total time:
	user time   =   43153.37 seconds =     719.22 minutes
	system time =     163.34 seconds =       2.72 minutes
	total time  =      11344 seconds =     189.07 minutes

*** PSI4 exiting successfully. Buy a developer a beer!
