
    -----------------------------------------------------------------------
          Psi4: An Open-Source Ab Initio Electronic Structure Package
                               Psi4 1.4a2.dev224 

                         Git: Rev {master} e453b16 


    R. M. Parrish, L. A. Burns, D. G. A. Smith, A. C. Simmonett,
    A. E. DePrince III, E. G. Hohenstein, U. Bozkaya, A. Yu. Sokolov,
    R. Di Remigio, R. M. Richard, J. F. Gonthier, A. M. James,
    H. R. McAlexander, A. Kumar, M. Saitow, X. Wang, B. P. Pritchard,
    P. Verma, H. F. Schaefer III, K. Patkowski, R. A. King, E. F. Valeev,
    F. A. Evangelista, J. M. Turney, T. D. Crawford, and C. D. Sherrill,
    J. Chem. Theory Comput. 13(7) pp 3185--3197 (2017).
    (doi: 10.1021/acs.jctc.7b00174)


                         Additional Contributions by
    P. Kraus, H. Kruse, M. H. Lechner, M. C. Schieber, R. A. Shaw,
    A. Alenaizan, R. Galvelis, Z. L. Glick, S. Lehtola, and J. P. Misiewicz

    -----------------------------------------------------------------------


    Psi4 started on: Thursday, 23 April 2020 10:13PM

    Process ID: 67391
    Host:       node43.bme.utexas.edu
    PSIDATADIR: /home/liuchw/anaconda3/envs/psi4env/share/psi4
    Memory:     500.0 MiB
    Threads:    8
    
  ==> Input File <==

--------------------------------------------------------------------------
#Generated by lconvert.py for sapt job

memory 50 GB

molecule  {
0 1
  N      -0.533460   -0.279590    0.107000
  H      -0.629150   -1.248420    0.382850
  H      -1.122600   -0.166160   -0.707760
  C      -1.016910    0.588490    1.187370
  H      -0.912760    1.625550    0.879520
  H      -2.054740    0.415080    1.478500
  H      -0.385020    0.448800    2.060610
--
0 1
  O       2.682490    1.145490    0.189930
  H       1.864980    0.649220    0.016780
  H       3.264390    0.886990   -0.525810
units angstrom
no_reorient
symmetry c1
}

set {
scf_type DF
basis aug-cc-pvtz
freeze_core True
guess SAD
}
energy('sapt2+')
--------------------------------------------------------------------------

  Memory set to  46.566 GiB by Python driver.

Scratch directory: /scratch/liuchw/

  //>>>>>>>>>>>>>>>>>>>>>>>>>>>>>>>>>>>//
  //              Dimer HF             //
  //<<<<<<<<<<<<<<<<<<<<<<<<<<<<<<<<<<<//


*** tstart() called on node43.bme.utexas.edu
*** at Thu Apr 23 22:13:30 2020

   => Loading Basis Set <=

    Name: AUG-CC-PVTZ
    Role: ORBITAL
    Keyword: BASIS
    atoms 1              entry N          line   285 file /home/liuchw/anaconda3/envs/psi4env/share/psi4/basis/aug-cc-pvtz.gbs 
    atoms 2-3, 5-7, 9-10 entry H          line    40 file /home/liuchw/anaconda3/envs/psi4env/share/psi4/basis/aug-cc-pvtz.gbs 
    atoms 4              entry C          line   239 file /home/liuchw/anaconda3/envs/psi4env/share/psi4/basis/aug-cc-pvtz.gbs 
    atoms 8              entry O          line   331 file /home/liuchw/anaconda3/envs/psi4env/share/psi4/basis/aug-cc-pvtz.gbs 


         ---------------------------------------------------------
                                   SCF
               by Justin Turney, Rob Parrish, Andy Simmonett
                          and Daniel G. A. Smith
                              RHF Reference
                        8 Threads,  47683 MiB Core
         ---------------------------------------------------------

  ==> Geometry <==

    Molecular point group: c1
    Full point group: C1

    Geometry (in Angstrom), charge = 0, multiplicity = 1:

       Center              X                  Y                   Z               Mass       
    ------------   -----------------  -----------------  -----------------  -----------------
         N           -1.007612590852    -0.770903129454    -0.349598601368    14.003074004430
         H           -1.103302590852    -1.739733129454    -0.073748601368     1.007825032230
         H           -1.596752590852    -0.657473129454    -1.164358601368     1.007825032230
         C           -1.491062590852     0.097176870546     0.730771398632    12.000000000000
         H           -1.386912590852     1.134236870546     0.422921398632     1.007825032230
         H           -2.528892590852    -0.076233129454     1.021901398632     1.007825032230
         H           -0.859172590852    -0.042513129454     1.604011398632     1.007825032230
         O            2.208337409148     0.654176870546    -0.266668601368    15.994914619570
         H            1.390827409148     0.157906870546    -0.439818601368     1.007825032230
         H            2.790237409148     0.395676870546    -0.982408601368     1.007825032230

  Running in c1 symmetry.

  Rotational constants: A =      0.73692  B =      0.10704  C =      0.09654 [cm^-1]
  Rotational constants: A =  22092.40060  B =   3208.93872  C =   2894.09608 [MHz]
  Nuclear repulsion =   76.804175883822793

  Charge       = 0
  Multiplicity = 1
  Electrons    = 28
  Nalpha       = 14
  Nbeta        = 14

  ==> Algorithm <==

  SCF Algorithm Type is DF.
  DIIS enabled.
  MOM disabled.
  Fractional occupation disabled.
  Guess Type is SAD.
  Energy threshold   = 1.00e-08
  Density threshold  = 1.00e-08
  Integral threshold = 0.00e+00

  ==> Primary Basis <==

  Basis Set: AUG-CC-PVTZ
    Blend: AUG-CC-PVTZ
    Number of shells: 105
    Number of basis function: 299
    Number of Cartesian functions: 340
    Spherical Harmonics?: true
    Max angular momentum: 3

   => Loading Basis Set <=

    Name: (AUG-CC-PVTZ AUX)
    Role: JKFIT
    Keyword: DF_BASIS_SCF
    atoms 1              entry N          line   224 file /home/liuchw/anaconda3/envs/psi4env/share/psi4/basis/aug-cc-pvtz-jkfit.gbs 
    atoms 2-3, 5-7, 9-10 entry H          line    70 file /home/liuchw/anaconda3/envs/psi4env/share/psi4/basis/aug-cc-pvtz-jkfit.gbs 
    atoms 4              entry C          line   162 file /home/liuchw/anaconda3/envs/psi4env/share/psi4/basis/aug-cc-pvtz-jkfit.gbs 
    atoms 8              entry O          line   286 file /home/liuchw/anaconda3/envs/psi4env/share/psi4/basis/aug-cc-pvtz-jkfit.gbs 

  ==> Pre-Iterations <==

   -------------------------------------------------------
    Irrep   Nso     Nmo     Nalpha   Nbeta   Ndocc  Nsocc
   -------------------------------------------------------
     A        299     299       0       0       0       0
   -------------------------------------------------------
    Total     299     299      14      14      14       0
   -------------------------------------------------------

  ==> Integral Setup <==

  ==> DiskDFJK: Density-Fitted J/K Matrices <==

    J tasked:                  Yes
    K tasked:                  Yes
    wK tasked:                  No
    OpenMP threads:              8
    Integrals threads:           8
    Memory [MiB]:            35762
    Algorithm:                Core
    Integral Cache:           SAVE
    Schwarz Cutoff:          1E-12
    Fitting Condition:       1E-10

   => Auxiliary Basis Set <=

  Basis Set: (AUG-CC-PVTZ AUX)
    Blend: AUG-CC-PVTZ-JKFIT
    Number of shells: 188
    Number of basis function: 634
    Number of Cartesian functions: 778
    Spherical Harmonics?: true
    Max angular momentum: 4

  Minimum eigenvalue in the overlap matrix is 3.1120264770E-05.
  Using Symmetric Orthogonalization.

  SCF Guess: Superposition of Atomic Densities via on-the-fly atomic UHF.

  ==> Iterations <==

                           Total Energy        Delta E     RMS |[F,P]|

   @DF-RHF iter SAD:  -170.13048749084359   -1.70130e+02   0.00000e+00 
   @DF-RHF iter   1:  -171.12848702709627   -9.98000e-01   2.17885e-03 DIIS
   @DF-RHF iter   2:  -171.26484249673572   -1.36355e-01   1.32630e-03 DIIS
   @DF-RHF iter   3:  -171.31966787519264   -5.48254e-02   1.45783e-04 DIIS
   @DF-RHF iter   4:  -171.32126712037694   -1.59925e-03   4.79326e-05 DIIS
   @DF-RHF iter   5:  -171.32140105063851   -1.33930e-04   1.27251e-05 DIIS
   @DF-RHF iter   6:  -171.32141238496794   -1.13343e-05   3.34663e-06 DIIS
   @DF-RHF iter   7:  -171.32141340490870   -1.01994e-06   1.18622e-06 DIIS
   @DF-RHF iter   8:  -171.32141352229306   -1.17384e-07   3.25073e-07 DIIS
   @DF-RHF iter   9:  -171.32141353601511   -1.37221e-08   6.77716e-08 DIIS
   @DF-RHF iter  10:  -171.32141353675348   -7.38368e-10   1.19332e-08 DIIS
   @DF-RHF iter  11:  -171.32141353677582   -2.23395e-11   3.46912e-09 DIIS
  Energy and wave function converged.


  ==> Post-Iterations <==

    Orbital Energies [Eh]
    ---------------------

    Doubly Occupied:                                                      

       1A    -20.545590     2A    -15.553560     3A    -11.246839  
       4A     -1.328122     5A     -1.182083     6A     -0.904896  
       7A     -0.691141     8A     -0.672905     9A     -0.613646  
      10A     -0.565782    11A     -0.562867    12A     -0.524953  
      13A     -0.488281    14A     -0.408339  

    Virtual:                                                              

      15A      0.025630    16A      0.038641    17A      0.042694  
      18A      0.044172    19A      0.058078    20A      0.068835  
      21A      0.095237    22A      0.098414    23A      0.121455  
      24A      0.133463    25A      0.138237    26A      0.146662  
      27A      0.156060    28A      0.158595    29A      0.176218  
      30A      0.188603    31A      0.197272    32A      0.208237  
      33A      0.221040    34A      0.237905    35A      0.254904  
      36A      0.268080    37A      0.273308    38A      0.279606  
      39A      0.280752    40A      0.285532    41A      0.313527  
      42A      0.329444    43A      0.334477    44A      0.345038  
      45A      0.350875    46A      0.362366    47A      0.367714  
      48A      0.384146    49A      0.391419    50A      0.393102  
      51A      0.401003    52A      0.405095    53A      0.422031  
      54A      0.423678    55A      0.441242    56A      0.449785  
      57A      0.455896    58A      0.463465    59A      0.478086  
      60A      0.482200    61A      0.496484    62A      0.498783  
      63A      0.511594    64A      0.514197    65A      0.536478  
      66A      0.555265    67A      0.598118    68A      0.603301  
      69A      0.609911    70A      0.628909    71A      0.643953  
      72A      0.704774    73A      0.727822    74A      0.743870  
      75A      0.756666    76A      0.773894    77A      0.783867  
      78A      0.798712    79A      0.798871    80A      0.815516  
      81A      0.830018    82A      0.836358    83A      0.862562  
      84A      0.882145    85A      0.895476    86A      0.908448  
      87A      0.913140    88A      0.915157    89A      0.934137  
      90A      0.936419    91A      0.942585    92A      0.952158  
      93A      0.967184    94A      0.967903    95A      0.975023  
      96A      0.984875    97A      0.990314    98A      1.004723  
      99A      1.025733   100A      1.031700   101A      1.043293  
     102A      1.051123   103A      1.071750   104A      1.080285  
     105A      1.081001   106A      1.093894   107A      1.101057  
     108A      1.107650   109A      1.126149   110A      1.132337  
     111A      1.152180   112A      1.162012   113A      1.176511  
     114A      1.191070   115A      1.210123   116A      1.222533  
     117A      1.249494   118A      1.256511   119A      1.271574  
     120A      1.286906   121A      1.303746   122A      1.324674  
     123A      1.330058   124A      1.340314   125A      1.387593  
     126A      1.417164   127A      1.420196   128A      1.444306  
     129A      1.454064   130A      1.477895   131A      1.511413  
     132A      1.536253   133A      1.568085   134A      1.576395  
     135A      1.594072   136A      1.632958   137A      1.637996  
     138A      1.649754   139A      1.656347   140A      1.671704  
     141A      1.687372   142A      1.690542   143A      1.710036  
     144A      1.733294   145A      1.796510   146A      1.807214  
     147A      1.846831   148A      1.853051   149A      1.870879  
     150A      1.971767   151A      1.982736   152A      1.998342  
     153A      2.009623   154A      2.017036   155A      2.021850  
     156A      2.046190   157A      2.084103   158A      2.092409  
     159A      2.109376   160A      2.125282   161A      2.207578  
     162A      2.222668   163A      2.226986   164A      2.250577  
     165A      2.301316   166A      2.315173   167A      2.318384  
     168A      2.399981   169A      2.404115   170A      2.444425  
     171A      2.465930   172A      2.481985   173A      2.499154  
     174A      2.506308   175A      2.516344   176A      2.543754  
     177A      2.555637   178A      2.564033   179A      2.602058  
     180A      2.617844   181A      2.694000   182A      2.724048  
     183A      2.766983   184A      2.775882   185A      2.882220  
     186A      2.935495   187A      2.983339   188A      3.001194  
     189A      3.224722   190A      3.374454   191A      3.414482  
     192A      3.463677   193A      3.599501   194A      3.605447  
     195A      3.615759   196A      3.644366   197A      3.674645  
     198A      3.725591   199A      3.744570   200A      3.774317  
     201A      3.862540   202A      3.879261   203A      3.889797  
     204A      3.932102   205A      3.959074   206A      3.986999  
     207A      4.055032   208A      4.088016   209A      4.091396  
     210A      4.110831   211A      4.134554   212A      4.148503  
     213A      4.169194   214A      4.204803   215A      4.220662  
     216A      4.244366   217A      4.265656   218A      4.303142  
     219A      4.304946   220A      4.333056   221A      4.345496  
     222A      4.382811   223A      4.401614   224A      4.423201  
     225A      4.432079   226A      4.459791   227A      4.475398  
     228A      4.485769   229A      4.540711   230A      4.596584  
     231A      4.603925   232A      4.644338   233A      4.697431  
     234A      4.722455   235A      4.742642   236A      4.776453  
     237A      4.798497   238A      4.803631   239A      4.827450  
     240A      4.891222   241A      4.940944   242A      4.976543  
     243A      4.988694   244A      5.012280   245A      5.048642  
     246A      5.055514   247A      5.098793   248A      5.137600  
     249A      5.164858   250A      5.169254   251A      5.192167  
     252A      5.235268   253A      5.241225   254A      5.291793  
     255A      5.340275   256A      5.364329   257A      5.441305  
     258A      5.527005   259A      5.533713   260A      5.542056  
     261A      5.578366   262A      5.598648   263A      5.738828  
     264A      5.792354   265A      5.796011   266A      5.852463  
     267A      5.916690   268A      5.993189   269A      6.008740  
     270A      6.104389   271A      6.130230   272A      6.180782  
     273A      6.243581   274A      6.279002   275A      6.423714  
     276A      6.542278   277A      6.578120   278A      6.600501  
     279A      6.742388   280A      6.747005   281A      6.779508  
     282A      6.809229   283A      6.979633   284A      7.031815  
     285A      7.155000   286A      7.159842   287A      7.303447  
     288A      7.340097   289A      7.345553   290A      7.412882  
     291A      7.460383   292A      7.708819   293A      7.803076  
     294A      7.979289   295A      7.997198   296A      8.836272  
     297A     16.146606   298A     16.913019   299A     18.163157  

    Final Occupation by Irrep:
              A 
    DOCC [    14 ]

  @DF-RHF Final Energy:  -171.32141353677582

   => Energetics <=

    Nuclear Repulsion Energy =             76.8041758838227935
    One-Electron Energy =                -385.6731687867568326
    Two-Electron Energy =                 137.5475793661582316
    Total Energy =                       -171.3214135367758217

Computation Completed


Properties will be evaluated at   0.000000,   0.000000,   0.000000 [a0]

Properties computed using the SCF density matrix

  Nuclear Dipole Moment: [e a0]
     X:    -3.0745      Y:    -0.7710      Z:     0.3639

  Electronic Dipole Moment: [e a0]
     X:     2.2324      Y:     0.1123      Z:    -0.7996

  Dipole Moment: [e a0]
     X:    -0.8420      Y:    -0.6586      Z:    -0.4357     Total:     1.1544

  Dipole Moment: [D]
     X:    -2.1403      Y:    -1.6741      Z:    -1.1073     Total:     2.9342


*** tstop() called on node43.bme.utexas.edu at Thu Apr 23 22:13:36 2020
Module time:
	user time   =      36.10 seconds =       0.60 minutes
	system time =       1.44 seconds =       0.02 minutes
	total time  =          6 seconds =       0.10 minutes
Total time:
	user time   =      36.10 seconds =       0.60 minutes
	system time =       1.44 seconds =       0.02 minutes
	total time  =          6 seconds =       0.10 minutes

  //>>>>>>>>>>>>>>>>>>>>>>>>>>>>>>>>>>>//
  //            Monomer A HF           //
  //<<<<<<<<<<<<<<<<<<<<<<<<<<<<<<<<<<<//


*** tstart() called on node43.bme.utexas.edu
*** at Thu Apr 23 22:13:36 2020

   => Loading Basis Set <=

    Name: AUG-CC-PVTZ
    Role: ORBITAL
    Keyword: BASIS
    atoms 1              entry N          line   285 file /home/liuchw/anaconda3/envs/psi4env/share/psi4/basis/aug-cc-pvtz.gbs 
    atoms 2-3, 5-7, 9-10 entry H          line    40 file /home/liuchw/anaconda3/envs/psi4env/share/psi4/basis/aug-cc-pvtz.gbs 
    atoms 4              entry C          line   239 file /home/liuchw/anaconda3/envs/psi4env/share/psi4/basis/aug-cc-pvtz.gbs 
    atoms 8              entry O          line   331 file /home/liuchw/anaconda3/envs/psi4env/share/psi4/basis/aug-cc-pvtz.gbs 


         ---------------------------------------------------------
                                   SCF
               by Justin Turney, Rob Parrish, Andy Simmonett
                          and Daniel G. A. Smith
                              RHF Reference
                        8 Threads,  47683 MiB Core
         ---------------------------------------------------------

  ==> Geometry <==

    Molecular point group: c1
    Full point group: C1

    Geometry (in Angstrom), charge = 0, multiplicity = 1:

       Center              X                  Y                   Z               Mass       
    ------------   -----------------  -----------------  -----------------  -----------------
         N           -1.007612590852    -0.770903129454    -0.349598601368    14.003074004430
         H           -1.103302590852    -1.739733129454    -0.073748601368     1.007825032230
         H           -1.596752590852    -0.657473129454    -1.164358601368     1.007825032230
         C           -1.491062590852     0.097176870546     0.730771398632    12.000000000000
         H           -1.386912590852     1.134236870546     0.422921398632     1.007825032230
         H           -2.528892590852    -0.076233129454     1.021901398632     1.007825032230
         H           -0.859172590852    -0.042513129454     1.604011398632     1.007825032230
      Gh(O)           2.208337409148     0.654176870546    -0.266668601368    15.994914619570
      Gh(H)           1.390827409148     0.157906870546    -0.439818601368     1.007825032230
      Gh(H)           2.790237409148     0.395676870546    -0.982408601368     1.007825032230

  Running in c1 symmetry.

  Rotational constants: A =      0.73692  B =      0.10704  C =      0.09654 [cm^-1]
  Rotational constants: A =  22092.40060  B =   3208.93872  C =   2894.09608 [MHz]
  Nuclear repulsion =   42.043437963381770

  Charge       = 0
  Multiplicity = 1
  Electrons    = 18
  Nalpha       = 9
  Nbeta        = 9

  ==> Algorithm <==

  SCF Algorithm Type is DF.
  DIIS enabled.
  MOM disabled.
  Fractional occupation disabled.
  Guess Type is SAD.
  Energy threshold   = 1.00e-08
  Density threshold  = 1.00e-08
  Integral threshold = 0.00e+00

  ==> Primary Basis <==

  Basis Set: AUG-CC-PVTZ
    Blend: AUG-CC-PVTZ
    Number of shells: 105
    Number of basis function: 299
    Number of Cartesian functions: 340
    Spherical Harmonics?: true
    Max angular momentum: 3

   => Loading Basis Set <=

    Name: (AUG-CC-PVTZ AUX)
    Role: JKFIT
    Keyword: DF_BASIS_SCF
    atoms 1              entry N          line   224 file /home/liuchw/anaconda3/envs/psi4env/share/psi4/basis/aug-cc-pvtz-jkfit.gbs 
    atoms 2-3, 5-7, 9-10 entry H          line    70 file /home/liuchw/anaconda3/envs/psi4env/share/psi4/basis/aug-cc-pvtz-jkfit.gbs 
    atoms 4              entry C          line   162 file /home/liuchw/anaconda3/envs/psi4env/share/psi4/basis/aug-cc-pvtz-jkfit.gbs 
    atoms 8              entry O          line   286 file /home/liuchw/anaconda3/envs/psi4env/share/psi4/basis/aug-cc-pvtz-jkfit.gbs 

  ==> Pre-Iterations <==

   -------------------------------------------------------
    Irrep   Nso     Nmo     Nalpha   Nbeta   Ndocc  Nsocc
   -------------------------------------------------------
     A        299     299       0       0       0       0
   -------------------------------------------------------
    Total     299     299       9       9       9       0
   -------------------------------------------------------

  ==> Integral Setup <==

  ==> DiskDFJK: Density-Fitted J/K Matrices <==

    J tasked:                  Yes
    K tasked:                  Yes
    wK tasked:                  No
    OpenMP threads:              8
    Integrals threads:           8
    Memory [MiB]:            35762
    Algorithm:                Core
    Integral Cache:           LOAD
    Schwarz Cutoff:          1E-12
    Fitting Condition:       1E-10

   => Auxiliary Basis Set <=

  Basis Set: (AUG-CC-PVTZ AUX)
    Blend: AUG-CC-PVTZ-JKFIT
    Number of shells: 188
    Number of basis function: 634
    Number of Cartesian functions: 778
    Spherical Harmonics?: true
    Max angular momentum: 4

  Minimum eigenvalue in the overlap matrix is 3.1120264770E-05.
  Using Symmetric Orthogonalization.

  SCF Guess: Superposition of Atomic Densities via on-the-fly atomic UHF.

  ==> Iterations <==

                           Total Energy        Delta E     RMS |[F,P]|

   @DF-RHF iter SAD:   -94.61820538191635   -9.46182e+01   0.00000e+00 
   @DF-RHF iter   1:   -95.13921652325782   -5.21011e-01   1.57312e-03 DIIS
   @DF-RHF iter   2:   -95.22702562173041   -8.78091e-02   8.52117e-04 DIIS
   @DF-RHF iter   3:   -95.25419565709348   -2.71700e-02   1.21130e-04 DIIS
   @DF-RHF iter   4:   -95.25538948630118   -1.19383e-03   3.56100e-05 DIIS
   @DF-RHF iter   5:   -95.25546880838689   -7.93221e-05   8.53705e-06 DIIS
   @DF-RHF iter   6:   -95.25547493761243   -6.12923e-06   1.71980e-06 DIIS
   @DF-RHF iter   7:   -95.25547533428784   -3.96675e-07   3.91261e-07 DIIS
   @DF-RHF iter   8:   -95.25547535735372   -2.30659e-08   9.39349e-08 DIIS
   @DF-RHF iter   9:   -95.25547535893249   -1.57877e-09   2.26113e-08 DIIS
   @DF-RHF iter  10:   -95.25547535902381   -9.13190e-11   5.65933e-09 DIIS
  Energy and wave function converged.


  ==> Post-Iterations <==

    Orbital Energies [Eh]
    ---------------------

    Doubly Occupied:                                                      

       1A    -15.539839     2A    -11.240300     3A     -1.169706  
       4A     -0.896712     5A     -0.661339     6A     -0.603922  
       7A     -0.555673     8A     -0.517240     9A     -0.393609  

    Virtual:                                                              

      10A      0.027960    11A      0.039368    12A      0.042554  
      13A      0.043620    14A      0.058546    15A      0.068039  
      16A      0.089363    17A      0.100833    18A      0.119721  
      19A      0.126362    20A      0.136821    21A      0.148446  
      22A      0.150766    23A      0.151391    24A      0.165608  
      25A      0.175645    26A      0.184772    27A      0.211031  
      28A      0.217567    29A      0.224753    30A      0.258855  
      31A      0.270593    32A      0.280298    33A      0.280931  
      34A      0.287534    35A      0.298413    36A      0.323454  
      37A      0.327418    38A      0.335292    39A      0.344212  
      40A      0.353894    41A      0.370820    42A      0.373006  
      43A      0.384661    44A      0.388102    45A      0.391775  
      46A      0.397501    47A      0.404289    48A      0.407255  
      49A      0.423890    50A      0.437303    51A      0.450720  
      52A      0.453121    53A      0.471612    54A      0.478019  
      55A      0.480427    56A      0.494490    57A      0.501908  
      58A      0.509789    59A      0.524402    60A      0.529635  
      61A      0.551024    62A      0.594381    63A      0.607607  
      64A      0.623763    65A      0.640004    66A      0.671194  
      67A      0.690152    68A      0.713377    69A      0.723277  
      70A      0.787447    71A      0.794650    72A      0.798638  
      73A      0.814906    74A      0.822163    75A      0.834752  
      76A      0.842933    77A      0.849254    78A      0.859553  
      79A      0.874146    80A      0.887008    81A      0.890401  
      82A      0.908355    83A      0.915814    84A      0.931722  
      85A      0.940393    86A      0.943722    87A      0.949864  
      88A      0.954285    89A      0.972404    90A      0.979236  
      91A      0.986012    92A      0.992946    93A      1.001495  
      94A      1.016108    95A      1.035179    96A      1.049360  
      97A      1.057770    98A      1.060743    99A      1.077271  
     100A      1.091857   101A      1.103219   102A      1.109664  
     103A      1.117245   104A      1.131372   105A      1.147917  
     106A      1.157215   107A      1.164584   108A      1.195439  
     109A      1.211527   110A      1.226141   111A      1.237762  
     112A      1.258541   113A      1.261309   114A      1.292900  
     115A      1.295270   116A      1.321818   117A      1.336027  
     118A      1.349279   119A      1.365756   120A      1.387961  
     121A      1.412303   122A      1.430832   123A      1.444888  
     124A      1.491460   125A      1.511469   126A      1.521791  
     127A      1.542798   128A      1.564852   129A      1.605098  
     130A      1.635817   131A      1.650435   132A      1.656583  
     133A      1.666905   134A      1.684883   135A      1.690554  
     136A      1.730097   137A      1.743746   138A      1.755655  
     139A      1.766894   140A      1.780643   141A      1.837925  
     142A      1.850001   143A      1.867824   144A      1.868790  
     145A      1.900427   146A      1.945366   147A      1.994755  
     148A      2.009324   149A      2.016799   150A      2.030881  
     151A      2.049927   152A      2.057362   153A      2.072397  
     154A      2.100721   155A      2.135836   156A      2.220701  
     157A      2.231432   158A      2.240423   159A      2.248673  
     160A      2.274316   161A      2.313846   162A      2.397992  
     163A      2.439895   164A      2.462978   165A      2.468863  
     166A      2.506461   167A      2.511606   168A      2.517939  
     169A      2.557898   170A      2.563466   171A      2.595502  
     172A      2.608253   173A      2.622411   174A      2.641555  
     175A      2.670035   176A      2.675903   177A      2.713737  
     178A      2.781916   179A      2.929241   180A      3.022297  
     181A      3.195961   182A      3.202178   183A      3.213505  
     184A      3.328912   185A      3.377166   186A      3.415774  
     187A      3.423530   188A      3.451308   189A      3.515832  
     190A      3.584661   191A      3.608118   192A      3.624213  
     193A      3.636930   194A      3.653802   195A      3.702142  
     196A      3.740389   197A      3.785488   198A      3.827874  
     199A      3.875127   200A      3.901931   201A      3.945744  
     202A      3.969587   203A      3.970692   204A      4.092435  
     205A      4.097829   206A      4.118882   207A      4.121062  
     208A      4.162959   209A      4.176656   210A      4.220173  
     211A      4.267691   212A      4.320084   213A      4.335171  
     214A      4.346490   215A      4.401909   216A      4.433698  
     217A      4.453449   218A      4.468545   219A      4.487627  
     220A      4.549189   221A      4.569599   222A      4.602632  
     223A      4.627207   224A      4.630223   225A      4.660499  
     226A      4.716365   227A      4.730566   228A      4.754142  
     229A      4.787433   230A      4.808360   231A      4.826890  
     232A      4.862398   233A      4.883589   234A      4.909346  
     235A      4.936447   236A      4.948397   237A      4.999612  
     238A      5.009860   239A      5.016606   240A      5.062096  
     241A      5.063328   242A      5.111690   243A      5.153359  
     244A      5.191242   245A      5.201148   246A      5.251949  
     247A      5.315358   248A      5.355773   249A      5.387409  
     250A      5.528562   251A      5.542881   252A      5.577966  
     253A      5.588915   254A      5.604569   255A      5.637109  
     256A      5.663489   257A      5.787038   258A      5.805790  
     259A      5.865049   260A      5.902910   261A      5.942424  
     262A      6.003883   263A      6.027861   264A      6.111441  
     265A      6.140221   266A      6.159803   267A      6.194463  
     268A      6.257644   269A      6.429763   270A      6.472422  
     271A      6.552356   272A      6.611616   273A      6.688258  
     274A      6.754795   275A      6.755356   276A      6.824833  
     277A      7.044236   278A      7.093548   279A      7.175686  
     280A      7.713233   281A      7.815579   282A      7.861815  
     283A      8.060272   284A      8.191785   285A      8.302121  
     286A      8.814274   287A      8.953636   288A      9.669719  
     289A      9.864577   290A     10.065448   291A     10.315897  
     292A     11.232533   293A     11.683646   294A     12.119734  
     295A     13.605409   296A     13.969792   297A     16.925540  
     298A     18.168394   299A     65.459848  

    Final Occupation by Irrep:
              A 
    DOCC [     9 ]

  @DF-RHF Final Energy:   -95.25547535902381

   => Energetics <=

    Nuclear Repulsion Energy =             42.0434379633817699
    One-Electron Energy =                -211.4411454179777650
    Two-Electron Energy =                  74.1422320955721972
    Total Energy =                        -95.2554753590238050

Computation Completed


Properties will be evaluated at   0.000000,   0.000000,   0.000000 [a0]

Properties computed using the SCF density matrix

  Nuclear Dipole Moment: [e a0]
     X:   -44.3607      Y:   -11.7068      Z:     7.0830

  Electronic Dipole Moment: [e a0]
     X:    43.8190      Y:    11.5745      Z:    -6.9690

  Dipole Moment: [e a0]
     X:    -0.5417      Y:    -0.1323      Z:     0.1141     Total:     0.5692

  Dipole Moment: [D]
     X:    -1.3770      Y:    -0.3362      Z:     0.2899     Total:     1.4468


*** tstop() called on node43.bme.utexas.edu at Thu Apr 23 22:13:39 2020
Module time:
	user time   =      20.92 seconds =       0.35 minutes
	system time =       0.83 seconds =       0.01 minutes
	total time  =          3 seconds =       0.05 minutes
Total time:
	user time   =      57.08 seconds =       0.95 minutes
	system time =       2.28 seconds =       0.04 minutes
	total time  =          9 seconds =       0.15 minutes

  //>>>>>>>>>>>>>>>>>>>>>>>>>>>>>>>>>>>//
  //            Monomer B HF           //
  //<<<<<<<<<<<<<<<<<<<<<<<<<<<<<<<<<<<//


*** tstart() called on node43.bme.utexas.edu
*** at Thu Apr 23 22:13:39 2020

   => Loading Basis Set <=

    Name: AUG-CC-PVTZ
    Role: ORBITAL
    Keyword: BASIS
    atoms 1              entry N          line   285 file /home/liuchw/anaconda3/envs/psi4env/share/psi4/basis/aug-cc-pvtz.gbs 
    atoms 2-3, 5-7, 9-10 entry H          line    40 file /home/liuchw/anaconda3/envs/psi4env/share/psi4/basis/aug-cc-pvtz.gbs 
    atoms 4              entry C          line   239 file /home/liuchw/anaconda3/envs/psi4env/share/psi4/basis/aug-cc-pvtz.gbs 
    atoms 8              entry O          line   331 file /home/liuchw/anaconda3/envs/psi4env/share/psi4/basis/aug-cc-pvtz.gbs 


         ---------------------------------------------------------
                                   SCF
               by Justin Turney, Rob Parrish, Andy Simmonett
                          and Daniel G. A. Smith
                              RHF Reference
                        8 Threads,  47683 MiB Core
         ---------------------------------------------------------

  ==> Geometry <==

    Molecular point group: c1
    Full point group: C1

    Geometry (in Angstrom), charge = 0, multiplicity = 1:

       Center              X                  Y                   Z               Mass       
    ------------   -----------------  -----------------  -----------------  -----------------
      Gh(N)          -1.007612590852    -0.770903129454    -0.349598601368    14.003074004430
      Gh(H)          -1.103302590852    -1.739733129454    -0.073748601368     1.007825032230
      Gh(H)          -1.596752590852    -0.657473129454    -1.164358601368     1.007825032230
      Gh(C)          -1.491062590852     0.097176870546     0.730771398632    12.000000000000
      Gh(H)          -1.386912590852     1.134236870546     0.422921398632     1.007825032230
      Gh(H)          -2.528892590852    -0.076233129454     1.021901398632     1.007825032230
      Gh(H)          -0.859172590852    -0.042513129454     1.604011398632     1.007825032230
         O            2.208337409148     0.654176870546    -0.266668601368    15.994914619570
         H            1.390827409148     0.157906870546    -0.439818601368     1.007825032230
         H            2.790237409148     0.395676870546    -0.982408601368     1.007825032230

  Running in c1 symmetry.

  Rotational constants: A =      0.73692  B =      0.10704  C =      0.09654 [cm^-1]
  Rotational constants: A =  22092.40060  B =   3208.93872  C =   2894.09608 [MHz]
  Nuclear repulsion =    9.123185630435612

  Charge       = 0
  Multiplicity = 1
  Electrons    = 10
  Nalpha       = 5
  Nbeta        = 5

  ==> Algorithm <==

  SCF Algorithm Type is DF.
  DIIS enabled.
  MOM disabled.
  Fractional occupation disabled.
  Guess Type is SAD.
  Energy threshold   = 1.00e-08
  Density threshold  = 1.00e-08
  Integral threshold = 0.00e+00

  ==> Primary Basis <==

  Basis Set: AUG-CC-PVTZ
    Blend: AUG-CC-PVTZ
    Number of shells: 105
    Number of basis function: 299
    Number of Cartesian functions: 340
    Spherical Harmonics?: true
    Max angular momentum: 3

   => Loading Basis Set <=

    Name: (AUG-CC-PVTZ AUX)
    Role: JKFIT
    Keyword: DF_BASIS_SCF
    atoms 1              entry N          line   224 file /home/liuchw/anaconda3/envs/psi4env/share/psi4/basis/aug-cc-pvtz-jkfit.gbs 
    atoms 2-3, 5-7, 9-10 entry H          line    70 file /home/liuchw/anaconda3/envs/psi4env/share/psi4/basis/aug-cc-pvtz-jkfit.gbs 
    atoms 4              entry C          line   162 file /home/liuchw/anaconda3/envs/psi4env/share/psi4/basis/aug-cc-pvtz-jkfit.gbs 
    atoms 8              entry O          line   286 file /home/liuchw/anaconda3/envs/psi4env/share/psi4/basis/aug-cc-pvtz-jkfit.gbs 

  ==> Pre-Iterations <==

   -------------------------------------------------------
    Irrep   Nso     Nmo     Nalpha   Nbeta   Ndocc  Nsocc
   -------------------------------------------------------
     A        299     299       0       0       0       0
   -------------------------------------------------------
    Total     299     299       5       5       5       0
   -------------------------------------------------------

  ==> Integral Setup <==

  ==> DiskDFJK: Density-Fitted J/K Matrices <==

    J tasked:                  Yes
    K tasked:                  Yes
    wK tasked:                  No
    OpenMP threads:              8
    Integrals threads:           8
    Memory [MiB]:            35762
    Algorithm:                Core
    Integral Cache:           LOAD
    Schwarz Cutoff:          1E-12
    Fitting Condition:       1E-10

   => Auxiliary Basis Set <=

  Basis Set: (AUG-CC-PVTZ AUX)
    Blend: AUG-CC-PVTZ-JKFIT
    Number of shells: 188
    Number of basis function: 634
    Number of Cartesian functions: 778
    Spherical Harmonics?: true
    Max angular momentum: 4

  Minimum eigenvalue in the overlap matrix is 3.1120264770E-05.
  Using Symmetric Orthogonalization.

  SCF Guess: Superposition of Atomic Densities via on-the-fly atomic UHF.

  ==> Iterations <==

                           Total Energy        Delta E     RMS |[F,P]|

   @DF-RHF iter SAD:   -75.46976152579532   -7.54698e+01   0.00000e+00 
   @DF-RHF iter   1:   -75.97522503404294   -5.05464e-01   1.56545e-03 DIIS
   @DF-RHF iter   2:   -76.02756678395204   -5.23417e-02   1.07433e-03 DIIS
   @DF-RHF iter   3:   -76.05946741385357   -3.19006e-02   7.30548e-05 DIIS
   @DF-RHF iter   4:   -76.05986395309787   -3.96539e-04   1.77098e-05 DIIS
   @DF-RHF iter   5:   -76.05988948351273   -2.55304e-05   4.04799e-06 DIIS
   @DF-RHF iter   6:   -76.05989159506549   -2.11155e-06   8.87828e-07 DIIS
   @DF-RHF iter   7:   -76.05989170642154   -1.11356e-07   1.58893e-07 DIIS
   @DF-RHF iter   8:   -76.05989170954082   -3.11928e-09   2.67623e-08 DIIS
   @DF-RHF iter   9:   -76.05989170961057   -6.97469e-11   6.63804e-09 DIIS
  Energy and wave function converged.


  ==> Post-Iterations <==

    Orbital Energies [Eh]
    ---------------------

    Doubly Occupied:                                                      

       1A    -20.568822     2A     -1.350130     3A     -0.712441  
       4A     -0.584649     5A     -0.509912  

    Virtual:                                                              

       6A      0.018198     7A      0.034954     8A      0.042267  
       9A      0.043072    10A      0.055187    11A      0.070075  
      12A      0.081208    13A      0.095913    14A      0.106761  
      15A      0.120141    16A      0.129188    17A      0.134607  
      18A      0.139514    19A      0.142644    20A      0.166958  
      21A      0.181197    22A      0.190689    23A      0.194495  
      24A      0.224099    25A      0.238663    26A      0.257305  
      27A      0.268063    28A      0.276147    29A      0.281707  
      30A      0.286990    31A      0.291450    32A      0.302376  
      33A      0.307838    34A      0.310804    35A      0.318744  
      36A      0.330339    37A      0.342327    38A      0.350289  
      39A      0.362744    40A      0.368249    41A      0.376991  
      42A      0.405663    43A      0.411368    44A      0.416770  
      45A      0.426306    46A      0.442067    47A      0.444204  
      48A      0.454380    49A      0.470946    50A      0.482827  
      51A      0.491314    52A      0.493040    53A      0.519333  
      54A      0.526445    55A      0.566124    56A      0.578017  
      57A      0.581379    58A      0.589469    59A      0.629926  
      60A      0.641252    61A      0.659862    62A      0.678343  
      63A      0.693455    64A      0.702803    65A      0.719434  
      66A      0.729042    67A      0.734879    68A      0.755692  
      69A      0.757619    70A      0.766393    71A      0.792266  
      72A      0.808379    73A      0.825860    74A      0.870089  
      75A      0.882224    76A      0.895091    77A      0.918186  
      78A      0.927986    79A      0.933822    80A      0.950976  
      81A      0.958391    82A      0.977576    83A      0.990095  
      84A      0.995916    85A      1.000947    86A      1.006973  
      87A      1.012719    88A      1.033939    89A      1.039460  
      90A      1.059457    91A      1.060870    92A      1.082878  
      93A      1.087724    94A      1.102651    95A      1.104237  
      96A      1.126216    97A      1.129209    98A      1.144565  
      99A      1.151013   100A      1.161950   101A      1.173584  
     102A      1.184529   103A      1.186417   104A      1.206503  
     105A      1.222936   106A      1.254720   107A      1.268611  
     108A      1.278852   109A      1.290819   110A      1.299170  
     111A      1.307998   112A      1.340776   113A      1.344968  
     114A      1.379475   115A      1.386934   116A      1.395091  
     117A      1.402681   118A      1.461366   119A      1.471860  
     120A      1.496554   121A      1.504706   122A      1.541256  
     123A      1.544290   124A      1.556056   125A      1.591263  
     126A      1.598429   127A      1.605988   128A      1.627402  
     129A      1.657702   130A      1.662222   131A      1.681704  
     132A      1.736804   133A      1.739816   134A      1.762374  
     135A      1.785931   136A      1.794951   137A      1.829740  
     138A      1.838455   139A      1.881332   140A      1.902665  
     141A      1.969724   142A      2.006855   143A      2.029232  
     144A      2.036382   145A      2.083916   146A      2.127689  
     147A      2.134048   148A      2.166930   149A      2.181725  
     150A      2.198012   151A      2.226798   152A      2.247891  
     153A      2.294089   154A      2.303177   155A      2.337422  
     156A      2.346768   157A      2.366097   158A      2.410231  
     159A      2.416255   160A      2.428950   161A      2.438471  
     162A      2.472639   163A      2.494053   164A      2.498578  
     165A      2.503106   166A      2.556830   167A      2.572392  
     168A      2.609462   169A      2.693732   170A      2.741447  
     171A      2.752186   172A      2.757396   173A      2.774947  
     174A      2.814939   175A      2.833464   176A      2.868639  
     177A      2.893316   178A      2.927950   179A      2.967748  
     180A      3.021012   181A      3.051598   182A      3.055788  
     183A      3.111423   184A      3.272877   185A      3.302108  
     186A      3.414986   187A      3.733644   188A      3.873233  
     189A      3.958650   190A      4.040855   191A      4.108914  
     192A      4.142918   193A      4.144615   194A      4.156889  
     195A      4.168162   196A      4.184406   197A      4.227862  
     198A      4.290393   199A      4.309943   200A      4.339859  
     201A      4.388252   202A      4.393544   203A      4.411095  
     204A      4.424189   205A      4.436102   206A      4.453503  
     207A      4.476524   208A      4.506915   209A      4.523446  
     210A      4.570711   211A      4.613574   212A      4.628707  
     213A      4.704730   214A      4.724619   215A      4.760319  
     216A      4.765905   217A      4.769546   218A      4.821305  
     219A      4.850974   220A      4.903650   221A      4.909864  
     222A      4.936017   223A      4.986331   224A      4.990225  
     225A      5.007611   226A      5.033608   227A      5.068303  
     228A      5.087592   229A      5.144473   230A      5.186180  
     231A      5.216631   232A      5.244869   233A      5.301071  
     234A      5.305407   235A      5.329807   236A      5.339052  
     237A      5.369258   238A      5.422772   239A      5.443608  
     240A      5.465666   241A      5.480319   242A      5.507494  
     243A      5.510514   244A      5.524567   245A      5.624132  
     246A      5.679330   247A      5.736311   248A      5.775791  
     249A      5.780862   250A      5.841850   251A      5.941933  
     252A      5.962900   253A      5.987392   254A      6.158820  
     255A      6.172074   256A      6.240705   257A      6.292194  
     258A      6.415315   259A      6.486729   260A      6.557210  
     261A      6.640617   262A      6.713157   263A      6.754104  
     264A      6.906041   265A      6.946719   266A      6.965195  
     267A      7.136769   268A      7.163550   269A      7.164230  
     270A      7.244767   271A      7.283337   272A      7.316048  
     273A      7.323098   274A      7.389012   275A      7.439100  
     276A      7.536772   277A      7.564982   278A      7.599982  
     279A      7.698433   280A      7.823235   281A      7.861136  
     282A      7.862576   283A      7.956424   284A      7.968807  
     285A      7.995330   286A      8.059482   287A      8.205819  
     288A      8.239755   289A      8.686895   290A      8.813012  
     291A      9.347647   292A      9.917918   293A     10.513227  
     294A     11.002966   295A     11.243854   296A     11.979320  
     297A     16.130147   298A     53.117480   299A     58.923047  

    Final Occupation by Irrep:
              A 
    DOCC [     5 ]

  @DF-RHF Final Energy:   -76.05989170961057

   => Energetics <=

    Nuclear Repulsion Energy =              9.1231856304356125
    One-Electron Energy =                -122.9142442378629880
    Two-Electron Energy =                  37.7311668978168058
    Total Energy =                        -76.0598917096105680

Computation Completed


Properties will be evaluated at   0.000000,   0.000000,   0.000000 [a0]

Properties computed using the SCF density matrix

  Nuclear Dipole Moment: [e a0]
     X:    41.2863      Y:    10.9358      Z:    -6.7191

  Electronic Dipole Moment: [e a0]
     X:   -41.4399      Y:   -11.4347      Z:     6.1303

  Dipole Moment: [e a0]
     X:    -0.1537      Y:    -0.4989      Z:    -0.5888     Total:     0.7868

  Dipole Moment: [D]
     X:    -0.3905      Y:    -1.2680      Z:    -1.4965     Total:     1.9999


*** tstop() called on node43.bme.utexas.edu at Thu Apr 23 22:13:42 2020
Module time:
	user time   =      17.70 seconds =       0.29 minutes
	system time =       0.76 seconds =       0.01 minutes
	total time  =          3 seconds =       0.05 minutes
Total time:
	user time   =      74.85 seconds =       1.25 minutes
	system time =       3.05 seconds =       0.05 minutes
	total time  =         12 seconds =       0.20 minutes
  Constructing Basis Sets for SAPT...

   => Loading Basis Set <=

    Name: (AUG-CC-PVTZ AUX)
    Role: RIFIT
    Keyword: DF_BASIS_SAPT
    atoms 1              entry N          line   206 file /home/liuchw/anaconda3/envs/psi4env/share/psi4/basis/aug-cc-pvtz-ri.gbs 
    atoms 2-3, 5-7, 9-10 entry H          line    30 file /home/liuchw/anaconda3/envs/psi4env/share/psi4/basis/aug-cc-pvtz-ri.gbs 
    atoms 4              entry C          line   148 file /home/liuchw/anaconda3/envs/psi4env/share/psi4/basis/aug-cc-pvtz-ri.gbs 
    atoms 8              entry O          line   264 file /home/liuchw/anaconda3/envs/psi4env/share/psi4/basis/aug-cc-pvtz-ri.gbs 


  //>>>>>>>>>>>>>>>>>>>>>>>>>>>>>>>>>>>//
  //               SAPT2+              //
  //<<<<<<<<<<<<<<<<<<<<<<<<<<<<<<<<<<<//


*** tstart() called on node43.bme.utexas.edu
*** at Thu Apr 23 22:13:42 2020

        SAPT2+  
    Ed Hohenstein
     6 June 2009

      Orbital Information
  --------------------------
    NSO        =       299
    NMO        =       299
    NRI        =       640
    NOCC A     =         9
    NOCC B     =         5
    FOCC A     =         2
    FOCC B     =         1
    NVIR A     =       290
    NVIR B     =       294

    Estimated memory usage: 610.6 MB

    Natural Orbital Cutoff:   1.000E-06
    Disp(T3) Truncation:            Yes
    CCD (vv|vv) Truncation:         Yes
    MBPT T2 Truncation:             Yes

    Monomer A: 117 virtual orbitals dropped
    Monomer B: 216 virtual orbitals dropped

    Elst10,r            =    -0.007154092577 [Eh]
    Exch10 (S^2)        =     0.002334525255 [Eh]
    Exch10              =     0.002339151709 [Eh]
    Ind20,r (A<-B)      =    -0.001141442993 [Eh]
    Ind20,r (B<-A)      =    -0.000344235726 [Eh]
    Ind20,r             =    -0.001485678719 [Eh]
    Exch-Ind20,r (A<-B) =     0.000552288062 [Eh]
    Exch-Ind20,r (B<-A) =     0.000053826431 [Eh]
    Exch-Ind20,r        =     0.000606114492 [Eh]
    Disp20              =    -0.002003403314 [Eh]
    Disp20 (NO)         =    -0.001750529271 [Eh]
    Exch-Disp20         =     0.000212728083 [Eh]
    Elst12,r            =     0.000038510499 [Eh]
    Exch11              =     0.000053289343 [Eh]
    Exch12              =     0.000380037370 [Eh]
    Ind22               =    -0.000172144170 [Eh]
    Disp21              =     0.000050061546 [Eh]
    Disp22 (SDQ)        =     0.000000879337 [Eh]

    (i =   1 of   4)          2 seconds
    (i =   2 of   4)          5 seconds
    (i =   3 of   4)          8 seconds
    (i =   4 of   4)         11 seconds

    Disp220 (T)         =    -0.000140759049 [Eh]

    (i =   1 of   7)          1 seconds
    (i =   2 of   7)          1 seconds
    (i =   3 of   7)          2 seconds
    (i =   4 of   7)          3 seconds
    (i =   5 of   7)          3 seconds
    (i =   6 of   7)          4 seconds
    (i =   7 of   7)          4 seconds

    Disp202 (T)         =    -0.000168162824 [Eh]

    Disp22 (T)          =    -0.000308921873 [Eh]

    Est. Disp220 (T)    =    -0.000161092505 [Eh]
    Est. Disp202 (T)    =    -0.000192454914 [Eh]

    Est. Disp22 (T)     =    -0.000353547418 [Eh]

    SAPT Results 
  --------------------------------------------------------------------------------------------------------
    Electrostatics                 -7.11558208 [mEh]      -4.46509517 [kcal/mol]     -18.68195817 [kJ/mol]
      Elst10,r                     -7.15409258 [mEh]      -4.48926087 [kcal/mol]     -18.78306747 [kJ/mol]
      Elst12,r                      0.03851050 [mEh]       0.02416570 [kcal/mol]       0.10110930 [kJ/mol]

    Exchange                        2.77247842 [mEh]       1.73975648 [kcal/mol]       7.27914109 [kJ/mol]
      Exch10                        2.33915171 [mEh]       1.46783986 [kcal/mol]       6.14144196 [kJ/mol]
      Exch10(S^2)                   2.33452526 [mEh]       1.46493671 [kcal/mol]       6.12929521 [kJ/mol]
      Exch11(S^2)                   0.05328934 [mEh]       0.03343957 [kcal/mol]       0.13991115 [kJ/mol]
      Exch12(S^2)                   0.38003737 [mEh]       0.23847705 [kcal/mol]       0.99778798 [kJ/mol]

    Induction                      -1.33344154 [mEh]      -0.83674720 [kcal/mol]      -3.50095027 [kJ/mol]
      Ind20,r                      -1.48567872 [mEh]      -0.93227747 [kcal/mol]      -3.90064894 [kJ/mol]
      Ind22                        -0.17214417 [mEh]      -0.10802210 [kcal/mol]      -0.45196446 [kJ/mol]
      Exch-Ind20,r                  0.60611449 [mEh]       0.38034259 [kcal/mol]       1.59135338 [kJ/mol]
      Exch-Ind22                    0.07022991 [mEh]       0.04406993 [kcal/mol]       0.18438859 [kJ/mol]
      delta HF,r (2)               -0.35196305 [mEh]      -0.22086015 [kcal/mol]      -0.92407885 [kJ/mol]

    Dispersion                     -2.09328177 [mEh]      -1.31355414 [kcal/mol]      -5.49591052 [kJ/mol]
      Disp20                       -2.00340331 [mEh]      -1.25715456 [kcal/mol]      -5.25993468 [kJ/mol]
      Disp21                        0.05006155 [mEh]       0.03141409 [kcal/mol]       0.13143657 [kJ/mol]
      Disp22 (SDQ)                  0.00087934 [mEh]       0.00055179 [kcal/mol]       0.00230870 [kJ/mol]
      Disp22 (T)                   -0.30892187 [mEh]      -0.19385140 [kcal/mol]      -0.81107427 [kJ/mol]
      Est. Disp22 (T)              -0.35354742 [mEh]      -0.22185435 [kcal/mol]      -0.92823862 [kJ/mol]
      Exch-Disp20                   0.21272808 [mEh]       0.13348889 [kcal/mol]       0.55851751 [kJ/mol]

  Total HF                         -6.04646814 [mEh]      -3.79421604 [kcal/mol]     -15.87499992 [kJ/mol]
  Total SAPT0                      -7.83714337 [mEh]      -4.91788171 [kcal/mol]     -20.57641709 [kJ/mol]
  Total SAPT2                      -7.46722042 [mEh]      -4.68575156 [kcal/mol]     -19.60518452 [kJ/mol]
  Total SAPT2+                     -7.76982696 [mEh]      -4.87564003 [kcal/mol]     -20.39967787 [kJ/mol]

  Special recipe for scaled SAPT0 (see Manual):
    Electrostatics sSAPT0          -7.15409258 [mEh]      -4.48926087 [kcal/mol]     -18.78306747 [kJ/mol]
    Exchange sSAPT0                 2.33915171 [mEh]       1.46783986 [kcal/mol]       6.14144196 [kJ/mol]
    Induction sSAPT0               -1.22791662 [mEh]      -0.77052931 [kcal/mol]      -3.22389464 [kJ/mol]
    Dispersion sSAPT0              -1.78940800 [mEh]      -1.12287047 [kcal/mol]      -4.69809005 [kJ/mol]
  Total sSAPT0                     -7.83226549 [mEh]      -4.91482079 [kcal/mol]     -20.56361020 [kJ/mol]
  --------------------------------------------------------------------------------------------------------

*** tstop() called on node43.bme.utexas.edu at Thu Apr 23 22:14:40 2020
Module time:
	user time   =     414.34 seconds =       6.91 minutes
	system time =      21.02 seconds =       0.35 minutes
	total time  =         58 seconds =       0.97 minutes
Total time:
	user time   =     489.95 seconds =       8.17 minutes
	system time =      24.11 seconds =       0.40 minutes
	total time  =         70 seconds =       1.17 minutes

    Psi4 stopped on: Thursday, 23 April 2020 10:14PM
    Psi4 wall time for execution: 0:01:10.55

*** Psi4 exiting successfully. Buy a developer a beer!
