
    -----------------------------------------------------------------------
          Psi4: An Open-Source Ab Initio Electronic Structure Package
                               Psi4 1.4a2.dev224 

                         Git: Rev {master} e453b16 


    R. M. Parrish, L. A. Burns, D. G. A. Smith, A. C. Simmonett,
    A. E. DePrince III, E. G. Hohenstein, U. Bozkaya, A. Yu. Sokolov,
    R. Di Remigio, R. M. Richard, J. F. Gonthier, A. M. James,
    H. R. McAlexander, A. Kumar, M. Saitow, X. Wang, B. P. Pritchard,
    P. Verma, H. F. Schaefer III, K. Patkowski, R. A. King, E. F. Valeev,
    F. A. Evangelista, J. M. Turney, T. D. Crawford, and C. D. Sherrill,
    J. Chem. Theory Comput. 13(7) pp 3185--3197 (2017).
    (doi: 10.1021/acs.jctc.7b00174)


                         Additional Contributions by
    P. Kraus, H. Kruse, M. H. Lechner, M. C. Schieber, R. A. Shaw,
    A. Alenaizan, R. Galvelis, Z. L. Glick, S. Lehtola, and J. P. Misiewicz

    -----------------------------------------------------------------------


    Psi4 started on: Thursday, 23 April 2020 10:15PM

    Process ID: 67698
    Host:       node43.bme.utexas.edu
    PSIDATADIR: /home/liuchw/anaconda3/envs/psi4env/share/psi4
    Memory:     500.0 MiB
    Threads:    8
    
  ==> Input File <==

--------------------------------------------------------------------------
#Generated by lconvert.py for sapt job

memory 50 GB

molecule  {
0 1
  N      -0.533460   -0.279590    0.107000
  H      -0.629150   -1.248420    0.382850
  H      -1.122600   -0.166160   -0.707760
  C      -1.016910    0.588490    1.187370
  H      -0.912760    1.625550    0.879520
  H      -2.054740    0.415080    1.478500
  H      -0.385020    0.448800    2.060610
--
0 1
  O       3.789420    1.574160    0.148290
  H       2.971910    1.077880   -0.024860
  H       4.371320    1.315660   -0.567450
units angstrom
no_reorient
symmetry c1
}

set {
scf_type DF
basis aug-cc-pvtz
freeze_core True
guess SAD
}
energy('sapt2+')
--------------------------------------------------------------------------

  Memory set to  46.566 GiB by Python driver.

Scratch directory: /scratch/liuchw/

  //>>>>>>>>>>>>>>>>>>>>>>>>>>>>>>>>>>>//
  //              Dimer HF             //
  //<<<<<<<<<<<<<<<<<<<<<<<<<<<<<<<<<<<//


*** tstart() called on node43.bme.utexas.edu
*** at Thu Apr 23 22:15:11 2020

   => Loading Basis Set <=

    Name: AUG-CC-PVTZ
    Role: ORBITAL
    Keyword: BASIS
    atoms 1              entry N          line   285 file /home/liuchw/anaconda3/envs/psi4env/share/psi4/basis/aug-cc-pvtz.gbs 
    atoms 2-3, 5-7, 9-10 entry H          line    40 file /home/liuchw/anaconda3/envs/psi4env/share/psi4/basis/aug-cc-pvtz.gbs 
    atoms 4              entry C          line   239 file /home/liuchw/anaconda3/envs/psi4env/share/psi4/basis/aug-cc-pvtz.gbs 
    atoms 8              entry O          line   331 file /home/liuchw/anaconda3/envs/psi4env/share/psi4/basis/aug-cc-pvtz.gbs 


         ---------------------------------------------------------
                                   SCF
               by Justin Turney, Rob Parrish, Andy Simmonett
                          and Daniel G. A. Smith
                              RHF Reference
                        8 Threads,  47683 MiB Core
         ---------------------------------------------------------

  ==> Geometry <==

    Molecular point group: c1
    Full point group: C1

    Geometry (in Angstrom), charge = 0, multiplicity = 1:

       Center              X                  Y                   Z               Mass       
    ------------   -----------------  -----------------  -----------------  -----------------
         N           -1.414040950869    -0.928296476515    -0.334309760239    14.003074004430
         H           -1.509730950869    -1.897126476515    -0.058459760239     1.007825032230
         H           -2.003180950869    -0.814866476515    -1.149069760239     1.007825032230
         C           -1.897490950869    -0.060216476515     0.746060239761    12.000000000000
         H           -1.793340950869     0.976843523485     0.438210239761     1.007825032230
         H           -2.935320950869    -0.233626476515     1.037190239761     1.007825032230
         H           -1.265600950869    -0.199906476515     1.619300239761     1.007825032230
         O            2.908839049131     0.925453523485    -0.293019760239    15.994914619570
         H            2.091329049131     0.429173523485    -0.466169760239     1.007825032230
         H            3.490739049131     0.666953523485    -1.008759760239     1.007825032230

  Running in c1 symmetry.

  Rotational constants: A =      0.72749  B =      0.06227  C =      0.05850 [cm^-1]
  Rotational constants: A =  21809.71348  B =   1866.76224  C =   1753.84682 [MHz]
  Nuclear repulsion =   70.692152057146359

  Charge       = 0
  Multiplicity = 1
  Electrons    = 28
  Nalpha       = 14
  Nbeta        = 14

  ==> Algorithm <==

  SCF Algorithm Type is DF.
  DIIS enabled.
  MOM disabled.
  Fractional occupation disabled.
  Guess Type is SAD.
  Energy threshold   = 1.00e-08
  Density threshold  = 1.00e-08
  Integral threshold = 0.00e+00

  ==> Primary Basis <==

  Basis Set: AUG-CC-PVTZ
    Blend: AUG-CC-PVTZ
    Number of shells: 105
    Number of basis function: 299
    Number of Cartesian functions: 340
    Spherical Harmonics?: true
    Max angular momentum: 3

   => Loading Basis Set <=

    Name: (AUG-CC-PVTZ AUX)
    Role: JKFIT
    Keyword: DF_BASIS_SCF
    atoms 1              entry N          line   224 file /home/liuchw/anaconda3/envs/psi4env/share/psi4/basis/aug-cc-pvtz-jkfit.gbs 
    atoms 2-3, 5-7, 9-10 entry H          line    70 file /home/liuchw/anaconda3/envs/psi4env/share/psi4/basis/aug-cc-pvtz-jkfit.gbs 
    atoms 4              entry C          line   162 file /home/liuchw/anaconda3/envs/psi4env/share/psi4/basis/aug-cc-pvtz-jkfit.gbs 
    atoms 8              entry O          line   286 file /home/liuchw/anaconda3/envs/psi4env/share/psi4/basis/aug-cc-pvtz-jkfit.gbs 

  ==> Pre-Iterations <==

   -------------------------------------------------------
    Irrep   Nso     Nmo     Nalpha   Nbeta   Ndocc  Nsocc
   -------------------------------------------------------
     A        299     299       0       0       0       0
   -------------------------------------------------------
    Total     299     299      14      14      14       0
   -------------------------------------------------------

  ==> Integral Setup <==

  ==> DiskDFJK: Density-Fitted J/K Matrices <==

    J tasked:                  Yes
    K tasked:                  Yes
    wK tasked:                  No
    OpenMP threads:              8
    Integrals threads:           8
    Memory [MiB]:            35762
    Algorithm:                Core
    Integral Cache:           SAVE
    Schwarz Cutoff:          1E-12
    Fitting Condition:       1E-10

   => Auxiliary Basis Set <=

  Basis Set: (AUG-CC-PVTZ AUX)
    Blend: AUG-CC-PVTZ-JKFIT
    Number of shells: 188
    Number of basis function: 634
    Number of Cartesian functions: 778
    Spherical Harmonics?: true
    Max angular momentum: 4

  Minimum eigenvalue in the overlap matrix is 3.7663834692E-05.
  Using Symmetric Orthogonalization.

  SCF Guess: Superposition of Atomic Densities via on-the-fly atomic UHF.

  ==> Iterations <==

                           Total Energy        Delta E     RMS |[F,P]|

   @DF-RHF iter SAD:  -170.09193321595484   -1.70092e+02   0.00000e+00 
   @DF-RHF iter   1:  -171.11857105566776   -1.02664e+00   2.20951e-03 DIIS
   @DF-RHF iter   2:  -171.25769905273725   -1.39128e-01   1.36020e-03 DIIS
   @DF-RHF iter   3:  -171.31563683284014   -5.79378e-02   1.46456e-04 DIIS
   @DF-RHF iter   4:  -171.31726060209920   -1.62377e-03   4.90276e-05 DIIS
   @DF-RHF iter   5:  -171.31740195040021   -1.41348e-04   1.28451e-05 DIIS
   @DF-RHF iter   6:  -171.31741346718354   -1.15168e-05   3.29032e-06 DIIS
   @DF-RHF iter   7:  -171.31741444366941   -9.76486e-07   1.17049e-06 DIIS
   @DF-RHF iter   8:  -171.31741455120050   -1.07531e-07   3.18052e-07 DIIS
   @DF-RHF iter   9:  -171.31741456384478   -1.26443e-08   6.70869e-08 DIIS
   @DF-RHF iter  10:  -171.31741456454884   -7.04063e-10   1.22207e-08 DIIS
   @DF-RHF iter  11:  -171.31741456457257   -2.37321e-11   3.57721e-09 DIIS
  Energy and wave function converged.


  ==> Post-Iterations <==

    Orbital Energies [Eh]
    ---------------------

    Doubly Occupied:                                                      

       1A    -20.558421     2A    -15.546335     3A    -11.244095  
       4A     -1.339928     5A     -1.175565     6A     -0.901092  
       7A     -0.702109     8A     -0.666994     9A     -0.608830  
      10A     -0.574872    11A     -0.560405    12A     -0.521515  
      13A     -0.499900    14A     -0.400182  

    Virtual:                                                              

      15A      0.026257    16A      0.037524    17A      0.042595  
      18A      0.042980    19A      0.054480    20A      0.068840  
      21A      0.085793    22A      0.099390    23A      0.122375  
      24A      0.130117    25A      0.135200    26A      0.146220  
      27A      0.150861    28A      0.157536    29A      0.164709  
      30A      0.183891    31A      0.185446    32A      0.210768  
      33A      0.215538    34A      0.218107    35A      0.248793  
      36A      0.251530    37A      0.254318    38A      0.277600  
      39A      0.280202    40A      0.285057    41A      0.292622  
      42A      0.312197    43A      0.319569    44A      0.321759  
      45A      0.334914    46A      0.341545    47A      0.368232  
      48A      0.378565    49A      0.380034    50A      0.383547  
      51A      0.388493    52A      0.394837    53A      0.407097  
      54A      0.409028    55A      0.421268    56A      0.446297  
      57A      0.449105    58A      0.459916    59A      0.471953  
      60A      0.474603    61A      0.478985    62A      0.493792  
      63A      0.504082    64A      0.508772    65A      0.517481  
      66A      0.535086    67A      0.569854    68A      0.577207  
      69A      0.606667    70A      0.635767    71A      0.636045  
      72A      0.652854    73A      0.668922    74A      0.726147  
      75A      0.743145    76A      0.761782    77A      0.766850  
      78A      0.773611    79A      0.799757    80A      0.809503  
      81A      0.815705    82A      0.830194    83A      0.846087  
      84A      0.849415    85A      0.884488    86A      0.889572  
      87A      0.905810    88A      0.913415    89A      0.914481  
      90A      0.917430    91A      0.927681    92A      0.938697  
      93A      0.944049    94A      0.945774    95A      0.960451  
      96A      0.963425    97A      0.971476    98A      0.973991  
      99A      0.977873   100A      0.984768   101A      0.998393  
     102A      0.999832   103A      1.036484   104A      1.052625  
     105A      1.062283   106A      1.073022   107A      1.076920  
     108A      1.087286   109A      1.089459   110A      1.105889  
     111A      1.117337   112A      1.129214   113A      1.135981  
     114A      1.157647   115A      1.173014   116A      1.184333  
     117A      1.191074   118A      1.208614   119A      1.215380  
     120A      1.225716   121A      1.251568   122A      1.284611  
     123A      1.288634   124A      1.301779   125A      1.305204  
     126A      1.332293   127A      1.339278   128A      1.381575  
     129A      1.409864   130A      1.445464   131A      1.456824  
     132A      1.465722   133A      1.468297   134A      1.530382  
     135A      1.534855   136A      1.594190   137A      1.608485  
     138A      1.614146   139A      1.628202   140A      1.651725  
     141A      1.665647   142A      1.678924   143A      1.687383  
     144A      1.721660   145A      1.745067   146A      1.777519  
     147A      1.836193   148A      1.847056   149A      1.847970  
     150A      1.862814   151A      1.936641   152A      1.960608  
     153A      2.000474   154A      2.003310   155A      2.012998  
     156A      2.015119   157A      2.043252   158A      2.053803  
     159A      2.079374   160A      2.093821   161A      2.173697  
     162A      2.206392   163A      2.219470   164A      2.222980  
     165A      2.240125   166A      2.281877   167A      2.306015  
     168A      2.331854   169A      2.339768   170A      2.370462  
     171A      2.415451   172A      2.438214   173A      2.440967  
     174A      2.454826   175A      2.464723   176A      2.484884  
     177A      2.495361   178A      2.549179   179A      2.553665  
     180A      2.557143   181A      2.625932   182A      2.690683  
     183A      2.725097   184A      2.734797   185A      2.814090  
     186A      2.856572   187A      2.908443   188A      2.929320  
     189A      3.124278   190A      3.365807   191A      3.411586  
     192A      3.413573   193A      3.582089   194A      3.599077  
     195A      3.608652   196A      3.627674   197A      3.642164  
     198A      3.680297   199A      3.706814   200A      3.751737  
     201A      3.808322   202A      3.844238   203A      3.872073  
     204A      3.899735   205A      3.917561   206A      3.954633  
     207A      4.010985   208A      4.034303   209A      4.080564  
     210A      4.082901   211A      4.097058   212A      4.120453  
     213A      4.123778   214A      4.149988   215A      4.204331  
     216A      4.209523   217A      4.221334   218A      4.268185  
     219A      4.297604   220A      4.304127   221A      4.306031  
     222A      4.323683   223A      4.364610   224A      4.389564  
     225A      4.404714   226A      4.415203   227A      4.418345  
     228A      4.449988   229A      4.508375   230A      4.540292  
     231A      4.585610   232A      4.601348   233A      4.631915  
     234A      4.691105   235A      4.719685   236A      4.763085  
     237A      4.775067   238A      4.794082   239A      4.809205  
     240A      4.873809   241A      4.886243   242A      4.927126  
     243A      4.986327   244A      4.995349   245A      5.039880  
     246A      5.049683   247A      5.099904   248A      5.117135  
     249A      5.149993   250A      5.153650   251A      5.173978  
     252A      5.193676   253A      5.232668   254A      5.239740  
     255A      5.281455   256A      5.350194   257A      5.364799  
     258A      5.502179   259A      5.523650   260A      5.538249  
     261A      5.568487   262A      5.588111   263A      5.681191  
     264A      5.773789   265A      5.795783   266A      5.852957  
     267A      5.915794   268A      5.982234   269A      5.992282  
     270A      6.103644   271A      6.123078   272A      6.172859  
     273A      6.208688   274A      6.243688   275A      6.414919  
     276A      6.540669   277A      6.545457   278A      6.563898  
     279A      6.721983   280A      6.734113   281A      6.745599  
     282A      6.803583   283A      6.919452   284A      7.020535  
     285A      7.076753   286A      7.143577   287A      7.268783  
     288A      7.309080   289A      7.327149   290A      7.359969  
     291A      7.377854   292A      7.568350   293A      7.792243  
     294A      7.924130   295A      7.943760   296A      8.808135  
     297A     15.729175   298A     16.858206   299A     18.110350  

    Final Occupation by Irrep:
              A 
    DOCC [    14 ]

  @DF-RHF Final Energy:  -171.31741456457257

   => Energetics <=

    Nuclear Repulsion Energy =             70.6921520571463589
    One-Electron Energy =                -373.4186428928579176
    Two-Electron Energy =                 131.4090762711389857
    Total Energy =                       -171.3174145645725730

Computation Completed


Properties will be evaluated at   0.000000,   0.000000,   0.000000 [a0]

Properties computed using the SCF density matrix

  Nuclear Dipole Moment: [e a0]
     X:    -3.6616      Y:    -0.9983      Z:     0.3860

  Electronic Dipole Moment: [e a0]
     X:     2.9117      Y:     0.3604      Z:    -0.8420

  Dipole Moment: [e a0]
     X:    -0.7499      Y:    -0.6380      Z:    -0.4560     Total:     1.0850

  Dipole Moment: [D]
     X:    -1.9061      Y:    -1.6216      Z:    -1.1590     Total:     2.7579


*** tstop() called on node43.bme.utexas.edu at Thu Apr 23 22:15:16 2020
Module time:
	user time   =      35.56 seconds =       0.59 minutes
	system time =       1.46 seconds =       0.02 minutes
	total time  =          5 seconds =       0.08 minutes
Total time:
	user time   =      35.56 seconds =       0.59 minutes
	system time =       1.46 seconds =       0.02 minutes
	total time  =          5 seconds =       0.08 minutes

  //>>>>>>>>>>>>>>>>>>>>>>>>>>>>>>>>>>>//
  //            Monomer A HF           //
  //<<<<<<<<<<<<<<<<<<<<<<<<<<<<<<<<<<<//


*** tstart() called on node43.bme.utexas.edu
*** at Thu Apr 23 22:15:16 2020

   => Loading Basis Set <=

    Name: AUG-CC-PVTZ
    Role: ORBITAL
    Keyword: BASIS
    atoms 1              entry N          line   285 file /home/liuchw/anaconda3/envs/psi4env/share/psi4/basis/aug-cc-pvtz.gbs 
    atoms 2-3, 5-7, 9-10 entry H          line    40 file /home/liuchw/anaconda3/envs/psi4env/share/psi4/basis/aug-cc-pvtz.gbs 
    atoms 4              entry C          line   239 file /home/liuchw/anaconda3/envs/psi4env/share/psi4/basis/aug-cc-pvtz.gbs 
    atoms 8              entry O          line   331 file /home/liuchw/anaconda3/envs/psi4env/share/psi4/basis/aug-cc-pvtz.gbs 


         ---------------------------------------------------------
                                   SCF
               by Justin Turney, Rob Parrish, Andy Simmonett
                          and Daniel G. A. Smith
                              RHF Reference
                        8 Threads,  47683 MiB Core
         ---------------------------------------------------------

  ==> Geometry <==

    Molecular point group: c1
    Full point group: C1

    Geometry (in Angstrom), charge = 0, multiplicity = 1:

       Center              X                  Y                   Z               Mass       
    ------------   -----------------  -----------------  -----------------  -----------------
         N           -1.414040950869    -0.928296476515    -0.334309760239    14.003074004430
         H           -1.509730950869    -1.897126476515    -0.058459760239     1.007825032230
         H           -2.003180950869    -0.814866476515    -1.149069760239     1.007825032230
         C           -1.897490950869    -0.060216476515     0.746060239761    12.000000000000
         H           -1.793340950869     0.976843523485     0.438210239761     1.007825032230
         H           -2.935320950869    -0.233626476515     1.037190239761     1.007825032230
         H           -1.265600950869    -0.199906476515     1.619300239761     1.007825032230
      Gh(O)           2.908839049131     0.925453523485    -0.293019760239    15.994914619570
      Gh(H)           2.091329049131     0.429173523485    -0.466169760239     1.007825032230
      Gh(H)           3.490739049131     0.666953523485    -1.008759760239     1.007825032230

  Running in c1 symmetry.

  Rotational constants: A =      0.72749  B =      0.06227  C =      0.05850 [cm^-1]
  Rotational constants: A =  21809.71348  B =   1866.76224  C =   1753.84682 [MHz]
  Nuclear repulsion =   42.043437963381770

  Charge       = 0
  Multiplicity = 1
  Electrons    = 18
  Nalpha       = 9
  Nbeta        = 9

  ==> Algorithm <==

  SCF Algorithm Type is DF.
  DIIS enabled.
  MOM disabled.
  Fractional occupation disabled.
  Guess Type is SAD.
  Energy threshold   = 1.00e-08
  Density threshold  = 1.00e-08
  Integral threshold = 0.00e+00

  ==> Primary Basis <==

  Basis Set: AUG-CC-PVTZ
    Blend: AUG-CC-PVTZ
    Number of shells: 105
    Number of basis function: 299
    Number of Cartesian functions: 340
    Spherical Harmonics?: true
    Max angular momentum: 3

   => Loading Basis Set <=

    Name: (AUG-CC-PVTZ AUX)
    Role: JKFIT
    Keyword: DF_BASIS_SCF
    atoms 1              entry N          line   224 file /home/liuchw/anaconda3/envs/psi4env/share/psi4/basis/aug-cc-pvtz-jkfit.gbs 
    atoms 2-3, 5-7, 9-10 entry H          line    70 file /home/liuchw/anaconda3/envs/psi4env/share/psi4/basis/aug-cc-pvtz-jkfit.gbs 
    atoms 4              entry C          line   162 file /home/liuchw/anaconda3/envs/psi4env/share/psi4/basis/aug-cc-pvtz-jkfit.gbs 
    atoms 8              entry O          line   286 file /home/liuchw/anaconda3/envs/psi4env/share/psi4/basis/aug-cc-pvtz-jkfit.gbs 

  ==> Pre-Iterations <==

   -------------------------------------------------------
    Irrep   Nso     Nmo     Nalpha   Nbeta   Ndocc  Nsocc
   -------------------------------------------------------
     A        299     299       0       0       0       0
   -------------------------------------------------------
    Total     299     299       9       9       9       0
   -------------------------------------------------------

  ==> Integral Setup <==

  ==> DiskDFJK: Density-Fitted J/K Matrices <==

    J tasked:                  Yes
    K tasked:                  Yes
    wK tasked:                  No
    OpenMP threads:              8
    Integrals threads:           8
    Memory [MiB]:            35762
    Algorithm:                Core
    Integral Cache:           LOAD
    Schwarz Cutoff:          1E-12
    Fitting Condition:       1E-10

   => Auxiliary Basis Set <=

  Basis Set: (AUG-CC-PVTZ AUX)
    Blend: AUG-CC-PVTZ-JKFIT
    Number of shells: 188
    Number of basis function: 634
    Number of Cartesian functions: 778
    Spherical Harmonics?: true
    Max angular momentum: 4

  Minimum eigenvalue in the overlap matrix is 3.7663834692E-05.
  Using Symmetric Orthogonalization.

  SCF Guess: Superposition of Atomic Densities via on-the-fly atomic UHF.

  ==> Iterations <==

                           Total Energy        Delta E     RMS |[F,P]|

   @DF-RHF iter SAD:   -94.61820529326172   -9.46182e+01   0.00000e+00 
   @DF-RHF iter   1:   -95.13920666957222   -5.21001e-01   1.57307e-03 DIIS
   @DF-RHF iter   2:   -95.22700920679368   -8.78025e-02   8.52072e-04 DIIS
   @DF-RHF iter   3:   -95.25417625811069   -2.71671e-02   1.21119e-04 DIIS
   @DF-RHF iter   4:   -95.25536997610557   -1.19372e-03   3.56094e-05 DIIS
   @DF-RHF iter   5:   -95.25544927025322   -7.92941e-05   8.53365e-06 DIIS
   @DF-RHF iter   6:   -95.25545539507877   -6.12483e-06   1.71853e-06 DIIS
   @DF-RHF iter   7:   -95.25545579117401   -3.96095e-07   3.90956e-07 DIIS
   @DF-RHF iter   8:   -95.25545581420133   -2.30273e-08   9.38555e-08 DIIS
   @DF-RHF iter   9:   -95.25545581577829   -1.57696e-09   2.25992e-08 DIIS
   @DF-RHF iter  10:   -95.25545581586924   -9.09495e-11   5.65309e-09 DIIS
  Energy and wave function converged.


  ==> Post-Iterations <==

    Orbital Energies [Eh]
    ---------------------

    Doubly Occupied:                                                      

       1A    -15.539849     2A    -11.240295     3A     -1.169705  
       4A     -0.896714     5A     -0.661342     6A     -0.603923  
       7A     -0.555676     8A     -0.517243     9A     -0.393608  

    Virtual:                                                              

      10A      0.027843    11A      0.037139    12A      0.042765  
      13A      0.043852    14A      0.055063    15A      0.068531  
      16A      0.082184    17A      0.101199    18A      0.119695  
      19A      0.121668    20A      0.136240    21A      0.144746  
      22A      0.147486    23A      0.151808    24A      0.155963  
      25A      0.165611    26A      0.173488    27A      0.199175  
      28A      0.218712    29A      0.221433    30A      0.252999  
      31A      0.257510    32A      0.270657    33A      0.282738  
      34A      0.284574    35A      0.290275    36A      0.303978  
      37A      0.311923    38A      0.322383    39A      0.325622  
      40A      0.336849    41A      0.344595    42A      0.372489  
      43A      0.378844    44A      0.380694    45A      0.384578  
      46A      0.386437    47A      0.397194    48A      0.400148  
      49A      0.408984    50A      0.414229    51A      0.425641  
      52A      0.447936    53A      0.458299    54A      0.468913  
      55A      0.474888    56A      0.481374    57A      0.497831  
      58A      0.505613    59A      0.507088    60A      0.520286  
      61A      0.538657    62A      0.558908    63A      0.580122  
      64A      0.610133    65A      0.637365    66A      0.640579  
      67A      0.668469    68A      0.673477    69A      0.684649  
      70A      0.763511    71A      0.776062    72A      0.799712  
      73A      0.801546    74A      0.811476    75A      0.819901  
      76A      0.830712    77A      0.836256    78A      0.852091  
      79A      0.855525    80A      0.859666    81A      0.871955  
      82A      0.885138    83A      0.902982    84A      0.911873  
      85A      0.923816    86A      0.930224    87A      0.935491  
      88A      0.940332    89A      0.952661    90A      0.968538  
      91A      0.975223    92A      0.978615    93A      0.987080  
      94A      0.996357    95A      0.999480    96A      1.004035  
      97A      1.019448    98A      1.035101    99A      1.055477  
     100A      1.063555   101A      1.078543   102A      1.079883  
     103A      1.091396   104A      1.094756   105A      1.100756  
     106A      1.110619   107A      1.115068   108A      1.141199  
     109A      1.158675   110A      1.161058   111A      1.199764  
     112A      1.209505   113A      1.218803   114A      1.225347  
     115A      1.256168   116A      1.262888   117A      1.289996  
     118A      1.295614   119A      1.313712   120A      1.325716  
     121A      1.343956   122A      1.357393   123A      1.398930  
     124A      1.410790   125A      1.450819   126A      1.457657  
     127A      1.469750   128A      1.498779   129A      1.510184  
     130A      1.585922   131A      1.609071   132A      1.633871  
     133A      1.654358   134A      1.666559   135A      1.679273  
     136A      1.689374   137A      1.713826   138A      1.718943  
     139A      1.738393   140A      1.747711   141A      1.769139  
     142A      1.785282   143A      1.847494   144A      1.851333  
     145A      1.859797   146A      1.886505   147A      1.940712  
     148A      1.966115   149A      2.004898   150A      2.016629  
     151A      2.018513   152A      2.032471   153A      2.047439  
     154A      2.085932   155A      2.095526   156A      2.137251  
     157A      2.213143   158A      2.216320   159A      2.227759  
     160A      2.245954   161A      2.312100   162A      2.323700  
     163A      2.401801   164A      2.409552   165A      2.423190  
     166A      2.449014   167A      2.470696   168A      2.491565  
     169A      2.533976   170A      2.542688   171A      2.551289  
     172A      2.558804   173A      2.564255   174A      2.589199  
     175A      2.597141   176A      2.620267   177A      2.652584  
     178A      2.698560   179A      2.892286   180A      2.952941  
     181A      3.124007   182A      3.163433   183A      3.174961  
     184A      3.202757   185A      3.318522   186A      3.356156  
     187A      3.369766   188A      3.417726   189A      3.426182  
     190A      3.552040   191A      3.589578   192A      3.603247  
     193A      3.613277   194A      3.635431   195A      3.646979  
     196A      3.702887   197A      3.725659   198A      3.757924  
     199A      3.848214   200A      3.878419   201A      3.900989  
     202A      3.922504   203A      3.959173   204A      4.017499  
     205A      4.083999   206A      4.089974   207A      4.112370  
     208A      4.130875   209A      4.153669   210A      4.211319  
     211A      4.230211   212A      4.307245   213A      4.310423  
     214A      4.327665   215A      4.359718   216A      4.381135  
     217A      4.421708   218A      4.438122   219A      4.457094  
     220A      4.479401   221A      4.521084   222A      4.590581  
     223A      4.603223   224A      4.605641   225A      4.636395  
     226A      4.670900   227A      4.692625   228A      4.701005  
     229A      4.724532   230A      4.772738   231A      4.797828  
     232A      4.815893   233A      4.873298   234A      4.890730  
     235A      4.897557   236A      4.900016   237A      4.925604  
     238A      4.991323   239A      5.002298   240A      5.044861  
     241A      5.053804   242A      5.104263   243A      5.122315  
     244A      5.159480   245A      5.198626   246A      5.214213  
     247A      5.245020   248A      5.263363   249A      5.367117  
     250A      5.502523   251A      5.542509   252A      5.546985  
     253A      5.571857   254A      5.588555   255A      5.601583  
     256A      5.651840   257A      5.779525   258A      5.800719  
     259A      5.858433   260A      5.858960   261A      5.922517  
     262A      5.987260   263A      5.998982   264A      6.107596  
     265A      6.123263   266A      6.129056   267A      6.179282  
     268A      6.250022   269A      6.388910   270A      6.427253  
     271A      6.545865   272A      6.568771   273A      6.622358  
     274A      6.735891   275A      6.744992   276A      6.809330  
     277A      7.027163   278A      7.055720   279A      7.085545  
     280A      7.675252   281A      7.797054   282A      7.823692  
     283A      8.045714   284A      8.154212   285A      8.286166  
     286A      8.734112   287A      8.829090   288A      9.633075  
     289A      9.836702   290A     10.000479   291A     10.242426  
     292A     11.212847   293A     11.612536   294A     12.059494  
     295A     13.523685   296A     13.839608   297A     16.863712  
     298A     18.114280   299A     64.439842  

    Final Occupation by Irrep:
              A 
    DOCC [     9 ]

  @DF-RHF Final Energy:   -95.25545581586924

   => Energetics <=

    Nuclear Repulsion Energy =             42.0434379633817699
    One-Electron Energy =                -211.4410753020858351
    Two-Electron Energy =                  74.1421815228348322
    Total Energy =                        -95.2554558158692402

Computation Completed


Properties will be evaluated at   0.000000,   0.000000,   0.000000 [a0]

Properties computed using the SCF density matrix

  Nuclear Dipole Moment: [e a0]
     X:   -58.1854      Y:   -17.0606      Z:     7.6031

  Electronic Dipole Moment: [e a0]
     X:    57.6438      Y:    16.9283      Z:    -7.4891

  Dipole Moment: [e a0]
     X:    -0.5417      Y:    -0.1323      Z:     0.1140     Total:     0.5691

  Dipole Moment: [D]
     X:    -1.3768      Y:    -0.3363      Z:     0.2897     Total:     1.4466


*** tstop() called on node43.bme.utexas.edu at Thu Apr 23 22:15:20 2020
Module time:
	user time   =      20.39 seconds =       0.34 minutes
	system time =       0.86 seconds =       0.01 minutes
	total time  =          4 seconds =       0.07 minutes
Total time:
	user time   =      56.00 seconds =       0.93 minutes
	system time =       2.32 seconds =       0.04 minutes
	total time  =          9 seconds =       0.15 minutes

  //>>>>>>>>>>>>>>>>>>>>>>>>>>>>>>>>>>>//
  //            Monomer B HF           //
  //<<<<<<<<<<<<<<<<<<<<<<<<<<<<<<<<<<<//


*** tstart() called on node43.bme.utexas.edu
*** at Thu Apr 23 22:15:20 2020

   => Loading Basis Set <=

    Name: AUG-CC-PVTZ
    Role: ORBITAL
    Keyword: BASIS
    atoms 1              entry N          line   285 file /home/liuchw/anaconda3/envs/psi4env/share/psi4/basis/aug-cc-pvtz.gbs 
    atoms 2-3, 5-7, 9-10 entry H          line    40 file /home/liuchw/anaconda3/envs/psi4env/share/psi4/basis/aug-cc-pvtz.gbs 
    atoms 4              entry C          line   239 file /home/liuchw/anaconda3/envs/psi4env/share/psi4/basis/aug-cc-pvtz.gbs 
    atoms 8              entry O          line   331 file /home/liuchw/anaconda3/envs/psi4env/share/psi4/basis/aug-cc-pvtz.gbs 


         ---------------------------------------------------------
                                   SCF
               by Justin Turney, Rob Parrish, Andy Simmonett
                          and Daniel G. A. Smith
                              RHF Reference
                        8 Threads,  47683 MiB Core
         ---------------------------------------------------------

  ==> Geometry <==

    Molecular point group: c1
    Full point group: C1

    Geometry (in Angstrom), charge = 0, multiplicity = 1:

       Center              X                  Y                   Z               Mass       
    ------------   -----------------  -----------------  -----------------  -----------------
      Gh(N)          -1.414040950869    -0.928296476515    -0.334309760239    14.003074004430
      Gh(H)          -1.509730950869    -1.897126476515    -0.058459760239     1.007825032230
      Gh(H)          -2.003180950869    -0.814866476515    -1.149069760239     1.007825032230
      Gh(C)          -1.897490950869    -0.060216476515     0.746060239761    12.000000000000
      Gh(H)          -1.793340950869     0.976843523485     0.438210239761     1.007825032230
      Gh(H)          -2.935320950869    -0.233626476515     1.037190239761     1.007825032230
      Gh(H)          -1.265600950869    -0.199906476515     1.619300239761     1.007825032230
         O            2.908839049131     0.925453523485    -0.293019760239    15.994914619570
         H            2.091329049131     0.429173523485    -0.466169760239     1.007825032230
         H            3.490739049131     0.666953523485    -1.008759760239     1.007825032230

  Running in c1 symmetry.

  Rotational constants: A =      0.72749  B =      0.06227  C =      0.05850 [cm^-1]
  Rotational constants: A =  21809.71348  B =   1866.76224  C =   1753.84682 [MHz]
  Nuclear repulsion =    9.123162387099896

  Charge       = 0
  Multiplicity = 1
  Electrons    = 10
  Nalpha       = 5
  Nbeta        = 5

  ==> Algorithm <==

  SCF Algorithm Type is DF.
  DIIS enabled.
  MOM disabled.
  Fractional occupation disabled.
  Guess Type is SAD.
  Energy threshold   = 1.00e-08
  Density threshold  = 1.00e-08
  Integral threshold = 0.00e+00

  ==> Primary Basis <==

  Basis Set: AUG-CC-PVTZ
    Blend: AUG-CC-PVTZ
    Number of shells: 105
    Number of basis function: 299
    Number of Cartesian functions: 340
    Spherical Harmonics?: true
    Max angular momentum: 3

   => Loading Basis Set <=

    Name: (AUG-CC-PVTZ AUX)
    Role: JKFIT
    Keyword: DF_BASIS_SCF
    atoms 1              entry N          line   224 file /home/liuchw/anaconda3/envs/psi4env/share/psi4/basis/aug-cc-pvtz-jkfit.gbs 
    atoms 2-3, 5-7, 9-10 entry H          line    70 file /home/liuchw/anaconda3/envs/psi4env/share/psi4/basis/aug-cc-pvtz-jkfit.gbs 
    atoms 4              entry C          line   162 file /home/liuchw/anaconda3/envs/psi4env/share/psi4/basis/aug-cc-pvtz-jkfit.gbs 
    atoms 8              entry O          line   286 file /home/liuchw/anaconda3/envs/psi4env/share/psi4/basis/aug-cc-pvtz-jkfit.gbs 

  ==> Pre-Iterations <==

   -------------------------------------------------------
    Irrep   Nso     Nmo     Nalpha   Nbeta   Ndocc  Nsocc
   -------------------------------------------------------
     A        299     299       0       0       0       0
   -------------------------------------------------------
    Total     299     299       5       5       5       0
   -------------------------------------------------------

  ==> Integral Setup <==

  ==> DiskDFJK: Density-Fitted J/K Matrices <==

    J tasked:                  Yes
    K tasked:                  Yes
    wK tasked:                  No
    OpenMP threads:              8
    Integrals threads:           8
    Memory [MiB]:            35762
    Algorithm:                Core
    Integral Cache:           LOAD
    Schwarz Cutoff:          1E-12
    Fitting Condition:       1E-10

   => Auxiliary Basis Set <=

  Basis Set: (AUG-CC-PVTZ AUX)
    Blend: AUG-CC-PVTZ-JKFIT
    Number of shells: 188
    Number of basis function: 634
    Number of Cartesian functions: 778
    Spherical Harmonics?: true
    Max angular momentum: 4

  Minimum eigenvalue in the overlap matrix is 3.7663834692E-05.
  Using Symmetric Orthogonalization.

  SCF Guess: Superposition of Atomic Densities via on-the-fly atomic UHF.

  ==> Iterations <==

                           Total Energy        Delta E     RMS |[F,P]|

   @DF-RHF iter SAD:   -75.46975878044302   -7.54698e+01   0.00000e+00 
   @DF-RHF iter   1:   -75.97520593820671   -5.05447e-01   1.56537e-03 DIIS
   @DF-RHF iter   2:   -76.02754321352023   -5.23373e-02   1.07422e-03 DIIS
   @DF-RHF iter   3:   -76.05944194495017   -3.18987e-02   7.30469e-05 DIIS
   @DF-RHF iter   4:   -76.05983842111323   -3.96476e-04   1.77046e-05 DIIS
   @DF-RHF iter   5:   -76.05986393293105   -2.55118e-05   4.04588e-06 DIIS
   @DF-RHF iter   6:   -76.05986604180174   -2.10887e-06   8.86858e-07 DIIS
   @DF-RHF iter   7:   -76.05986615280284   -1.11001e-07   1.58502e-07 DIIS
   @DF-RHF iter   8:   -76.05986615590557   -3.10273e-09   2.67315e-08 DIIS
   @DF-RHF iter   9:   -76.05986615597450   -6.89369e-11   6.62686e-09 DIIS
  Energy and wave function converged.


  ==> Post-Iterations <==

    Orbital Energies [Eh]
    ---------------------

    Doubly Occupied:                                                      

       1A    -20.568839     2A     -1.350155     3A     -0.712462  
       4A     -0.584675     5A     -0.509920  

    Virtual:                                                              

       6A      0.017899     7A      0.033878     8A      0.041703  
       9A      0.042045    10A      0.050825    11A      0.069941  
      12A      0.078070    13A      0.091611    14A      0.106745  
      15A      0.120145    16A      0.124134    17A      0.128384  
      18A      0.136863    19A      0.140930    20A      0.157606  
      21A      0.178383    22A      0.181968    23A      0.198520  
      24A      0.204404    25A      0.231819    26A      0.249993  
      27A      0.253921    28A      0.265053    29A      0.269846  
      30A      0.282657    31A      0.285684    32A      0.299051  
      33A      0.301042    34A      0.306585    35A      0.313124  
      36A      0.321327    37A      0.322556    38A      0.332199  
      39A      0.338175    40A      0.357719    41A      0.371509  
      42A      0.380932    43A      0.390763    44A      0.411001  
      45A      0.411611    46A      0.412621    47A      0.436640  
      48A      0.451828    49A      0.453703    50A      0.457164  
      51A      0.482143    52A      0.487788    53A      0.492668  
      54A      0.496902    55A      0.554807    56A      0.564069  
      57A      0.573426    58A      0.595145    59A      0.606713  
      60A      0.636421    61A      0.649534    62A      0.658278  
      63A      0.687562    64A      0.693339    65A      0.703070  
      66A      0.719736    67A      0.736047    68A      0.739093  
      69A      0.743064    70A      0.747885    71A      0.763770  
      72A      0.767588    73A      0.809252    74A      0.829201  
      75A      0.848468    76A      0.869136    77A      0.899710  
      78A      0.914059    79A      0.920852    80A      0.926299  
      81A      0.930776    82A      0.947758    83A      0.961253  
      84A      0.972319    85A      0.979963    86A      0.986387  
      87A      0.990595    88A      1.005481    89A      1.020065  
      90A      1.037696    91A      1.042003    92A      1.057415  
      93A      1.072386    94A      1.076252    95A      1.084215  
      96A      1.096853    97A      1.106570    98A      1.108746  
      99A      1.126025   100A      1.127370   101A      1.132472  
     102A      1.150777   103A      1.163752   104A      1.164953  
     105A      1.195107   106A      1.205086   107A      1.222654  
     108A      1.223811   109A      1.225694   110A      1.246703  
     111A      1.269485   112A      1.285712   113A      1.291983  
     114A      1.298438   115A      1.345426   116A      1.347284  
     117A      1.385630   118A      1.390087   119A      1.407691  
     120A      1.418459   121A      1.475784   122A      1.482213  
     123A      1.503600   124A      1.528804   125A      1.533590  
     126A      1.564418   127A      1.577076   128A      1.592067  
     129A      1.603445   130A      1.630640   131A      1.644265  
     132A      1.689678   133A      1.691382   134A      1.713704  
     135A      1.759187   136A      1.776563   137A      1.825012  
     138A      1.828931   139A      1.835131   140A      1.864370  
     141A      1.882687   142A      1.995310   143A      2.023254  
     144A      2.028009   145A      2.028404   146A      2.075781  
     147A      2.124254   148A      2.126533   149A      2.170374  
     150A      2.182588   151A      2.190252   152A      2.218637  
     153A      2.221607   154A      2.247464   155A      2.275193  
     156A      2.323715   157A      2.339122   158A      2.356692  
     159A      2.368627   160A      2.398006   161A      2.409967  
     162A      2.417288   163A      2.429696   164A      2.443546  
     165A      2.474913   166A      2.483231   167A      2.525889  
     168A      2.563693   169A      2.689186   170A      2.714786  
     171A      2.719342   172A      2.737827   173A      2.756131  
     174A      2.770073   175A      2.802960   176A      2.830574  
     177A      2.835771   178A      2.868352   179A      2.901951  
     180A      2.969202   181A      2.995376   182A      3.053940  
     183A      3.072752   184A      3.234090   185A      3.254886  
     186A      3.409659   187A      3.669849   188A      3.800424  
     189A      3.894011   190A      4.023683   191A      4.092373  
     192A      4.097079   193A      4.130304   194A      4.136211  
     195A      4.161933   196A      4.161964   197A      4.189505  
     198A      4.259084   199A      4.287192   200A      4.306220  
     201A      4.376291   202A      4.386297   203A      4.391076  
     204A      4.402837   205A      4.420566   206A      4.425271  
     207A      4.442728   208A      4.487489   209A      4.492819  
     210A      4.540244   211A      4.548179   212A      4.585105  
     213A      4.607902   214A      4.689156   215A      4.724567  
     216A      4.739784   217A      4.757310   218A      4.768737  
     219A      4.788663   220A      4.806594   221A      4.858961  
     222A      4.867351   223A      4.969474   224A      4.980926  
     225A      4.990722   226A      5.008457   227A      5.020429  
     228A      5.062066   229A      5.139065   230A      5.162771  
     231A      5.195029   232A      5.244763   233A      5.267410  
     234A      5.295089   235A      5.306216   236A      5.334355  
     237A      5.336443   238A      5.367412   239A      5.436573  
     240A      5.466151   241A      5.471768   242A      5.477137  
     243A      5.505544   244A      5.513390   245A      5.593736  
     246A      5.662410   247A      5.670891   248A      5.757799  
     249A      5.773990   250A      5.825591   251A      5.934612  
     252A      5.945141   253A      5.987862   254A      6.149747  
     255A      6.158349   256A      6.197721   257A      6.264992  
     258A      6.412986   259A      6.479100   260A      6.536314  
     261A      6.628915   262A      6.713262   263A      6.720351  
     264A      6.907607   265A      6.909329   266A      6.940674  
     267A      7.085758   268A      7.133396   269A      7.159763  
     270A      7.186435   271A      7.259026   272A      7.298079  
     273A      7.317070   274A      7.349137   275A      7.367891  
     276A      7.502703   277A      7.558683   278A      7.566933  
     279A      7.597066   280A      7.815767   281A      7.860569  
     282A      7.861147   283A      7.912602   284A      7.934187  
     285A      7.986139   286A      8.055863   287A      8.181297  
     288A      8.227757   289A      8.669790   290A      8.797532  
     291A      9.352476   292A      9.803888   293A     10.484620  
     294A     10.972022   295A     11.220586   296A     11.975165  
     297A     15.720172   298A     53.034756   299A     58.764954  

    Final Occupation by Irrep:
              A 
    DOCC [     5 ]

  @DF-RHF Final Energy:   -76.05986615597450

   => Energetics <=

    Nuclear Repulsion Energy =              9.1231623870998959
    One-Electron Energy =                -122.9139494488816098
    Two-Electron Energy =                  37.7309209058072099
    Total Energy =                        -76.0598661559745040

Computation Completed


Properties will be evaluated at   0.000000,   0.000000,   0.000000 [a0]

Properties computed using the SCF density matrix

  Nuclear Dipole Moment: [e a0]
     X:    54.5239      Y:    16.0622      Z:    -7.2170

  Electronic Dipole Moment: [e a0]
     X:   -54.6774      Y:   -16.5610      Z:     6.6283

  Dipole Moment: [e a0]
     X:    -0.1536      Y:    -0.4988      Z:    -0.5888     Total:     0.7868

  Dipole Moment: [D]
     X:    -0.3903      Y:    -1.2678      Z:    -1.4965     Total:     1.9997


*** tstop() called on node43.bme.utexas.edu at Thu Apr 23 22:15:23 2020
Module time:
	user time   =      17.53 seconds =       0.29 minutes
	system time =       0.70 seconds =       0.01 minutes
	total time  =          3 seconds =       0.05 minutes
Total time:
	user time   =      73.60 seconds =       1.23 minutes
	system time =       3.03 seconds =       0.05 minutes
	total time  =         12 seconds =       0.20 minutes
  Constructing Basis Sets for SAPT...

   => Loading Basis Set <=

    Name: (AUG-CC-PVTZ AUX)
    Role: RIFIT
    Keyword: DF_BASIS_SAPT
    atoms 1              entry N          line   206 file /home/liuchw/anaconda3/envs/psi4env/share/psi4/basis/aug-cc-pvtz-ri.gbs 
    atoms 2-3, 5-7, 9-10 entry H          line    30 file /home/liuchw/anaconda3/envs/psi4env/share/psi4/basis/aug-cc-pvtz-ri.gbs 
    atoms 4              entry C          line   148 file /home/liuchw/anaconda3/envs/psi4env/share/psi4/basis/aug-cc-pvtz-ri.gbs 
    atoms 8              entry O          line   264 file /home/liuchw/anaconda3/envs/psi4env/share/psi4/basis/aug-cc-pvtz-ri.gbs 


  //>>>>>>>>>>>>>>>>>>>>>>>>>>>>>>>>>>>//
  //               SAPT2+              //
  //<<<<<<<<<<<<<<<<<<<<<<<<<<<<<<<<<<<//


*** tstart() called on node43.bme.utexas.edu
*** at Thu Apr 23 22:15:23 2020

        SAPT2+  
    Ed Hohenstein
     6 June 2009

      Orbital Information
  --------------------------
    NSO        =       299
    NMO        =       299
    NRI        =       640
    NOCC A     =         9
    NOCC B     =         5
    FOCC A     =         2
    FOCC B     =         1
    NVIR A     =       290
    NVIR B     =       294

    Estimated memory usage: 610.6 MB

    Natural Orbital Cutoff:   1.000E-06
    Disp(T3) Truncation:            Yes
    CCD (vv|vv) Truncation:         Yes
    MBPT T2 Truncation:             Yes

    Monomer A: 119 virtual orbitals dropped
    Monomer B: 217 virtual orbitals dropped

    Elst10,r            =    -0.002030756138 [Eh]
    Exch10 (S^2)        =     0.000041981167 [Eh]
    Exch10              =     0.000041983396 [Eh]
    Ind20,r (A<-B)      =    -0.000065513440 [Eh]
    Ind20,r (B<-A)      =    -0.000039723707 [Eh]
    Ind20,r             =    -0.000105237146 [Eh]
    Exch-Ind20,r (A<-B) =     0.000009483278 [Eh]
    Exch-Ind20,r (B<-A) =     0.000000430902 [Eh]
    Exch-Ind20,r        =     0.000009914180 [Eh]
    Disp20              =    -0.000276284742 [Eh]
    Disp20 (NO)         =    -0.000254540729 [Eh]
    Exch-Disp20         =     0.000005122033 [Eh]
    Elst12,r            =     0.000062088087 [Eh]
    Exch11              =     0.000000761976 [Eh]
    Exch12              =     0.000013349997 [Eh]
    Ind22               =    -0.000007406234 [Eh]
    Disp21              =     0.000013050312 [Eh]
    Disp22 (SDQ)        =     0.000000996728 [Eh]

    (i =   1 of   4)          2 seconds
    (i =   2 of   4)          5 seconds
    (i =   3 of   4)          8 seconds
    (i =   4 of   4)         11 seconds

    Disp220 (T)         =    -0.000021083494 [Eh]

    (i =   1 of   7)          0 seconds
    (i =   2 of   7)          1 seconds
    (i =   3 of   7)          2 seconds
    (i =   4 of   7)          2 seconds
    (i =   5 of   7)          3 seconds
    (i =   6 of   7)          3 seconds
    (i =   7 of   7)          4 seconds

    Disp202 (T)         =    -0.000025767601 [Eh]

    Disp22 (T)          =    -0.000046851094 [Eh]

    Est. Disp220 (T)    =    -0.000022884540 [Eh]
    Est. Disp202 (T)    =    -0.000027968785 [Eh]

    Est. Disp22 (T)     =    -0.000050853325 [Eh]

    SAPT Results 
  --------------------------------------------------------------------------------------------------------
    Electrostatics                 -1.96866805 [mEh]      -1.23535785 [kcal/mol]      -5.16873726 [kJ/mol]
      Elst10,r                     -2.03075614 [mEh]      -1.27431872 [kcal/mol]      -5.33174950 [kJ/mol]
      Elst12,r                      0.06208809 [mEh]       0.03896086 [kcal/mol]       0.16301225 [kJ/mol]

    Exchange                        0.05609537 [mEh]       0.03520038 [kcal/mol]       0.14727837 [kJ/mol]
      Exch10                        0.04198340 [mEh]       0.02634498 [kcal/mol]       0.11022739 [kJ/mol]
      Exch10(S^2)                   0.04198117 [mEh]       0.02634358 [kcal/mol]       0.11022154 [kJ/mol]
      Exch11(S^2)                   0.00076198 [mEh]       0.00047815 [kcal/mol]       0.00200057 [kJ/mol]
      Exch12(S^2)                   0.01335000 [mEh]       0.00837725 [kcal/mol]       0.03505041 [kJ/mol]

    Induction                      -0.11052850 [mEh]      -0.06935768 [kcal/mol]      -0.29019252 [kJ/mol]
      Ind20,r                      -0.10523715 [mEh]      -0.06603731 [kcal/mol]      -0.27630009 [kJ/mol]
      Ind22                        -0.00740623 [mEh]      -0.00464748 [kcal/mol]      -0.01944507 [kJ/mol]
      Exch-Ind20,r                  0.00991418 [mEh]       0.00622124 [kcal/mol]       0.02602968 [kJ/mol]
      Exch-Ind22                    0.00069773 [mEh]       0.00043783 [kcal/mol]       0.00183188 [kJ/mol]
      delta HF,r (2)               -0.00849702 [mEh]      -0.00533196 [kcal/mol]      -0.02230893 [kJ/mol]

    Dispersion                     -0.30796899 [mEh]      -0.19325346 [kcal/mol]      -0.80857248 [kJ/mol]
      Disp20                       -0.27628474 [mEh]      -0.17337129 [kcal/mol]      -0.72538549 [kJ/mol]
      Disp21                        0.01305031 [mEh]       0.00818919 [kcal/mol]       0.03426359 [kJ/mol]
      Disp22 (SDQ)                  0.00099673 [mEh]       0.00062546 [kcal/mol]       0.00261691 [kJ/mol]
      Disp22 (T)                   -0.04685109 [mEh]      -0.02939951 [kcal/mol]      -0.12300753 [kJ/mol]
      Est. Disp22 (T)              -0.05085333 [mEh]      -0.03191094 [kcal/mol]      -0.13351539 [kJ/mol]
      Exch-Disp20                   0.00512203 [mEh]       0.00321412 [kcal/mol]       0.01344790 [kJ/mol]

  Total HF                         -2.09259273 [mEh]      -1.31312176 [kcal/mol]      -5.49410145 [kJ/mol]
  Total SAPT0                      -2.36375544 [mEh]      -1.48327893 [kcal/mol]      -6.20603905 [kJ/mol]
  Total SAPT2                      -2.29426389 [mEh]      -1.43967232 [kcal/mol]      -6.02358900 [kJ/mol]
  Total SAPT2+                     -2.33107017 [mEh]      -1.46276862 [kcal/mol]      -6.12022389 [kJ/mol]

  Special recipe for scaled SAPT0 (see Manual):
    Electrostatics sSAPT0          -2.03075614 [mEh]      -1.27431872 [kcal/mol]      -5.33174950 [kJ/mol]
    Exchange sSAPT0                 0.04198340 [mEh]       0.02634498 [kcal/mol]       0.11022739 [kJ/mol]
    Induction sSAPT0               -0.10381841 [mEh]      -0.06514703 [kcal/mol]      -0.27257519 [kJ/mol]
    Dispersion sSAPT0              -0.27116189 [mEh]      -0.17015666 [kcal/mol]      -0.71193545 [kJ/mol]
  Total sSAPT0                     -2.36375304 [mEh]      -1.48327743 [kcal/mol]      -6.20603276 [kJ/mol]
  --------------------------------------------------------------------------------------------------------

*** tstop() called on node43.bme.utexas.edu at Thu Apr 23 22:16:20 2020
Module time:
	user time   =     410.52 seconds =       6.84 minutes
	system time =      20.75 seconds =       0.35 minutes
	total time  =         57 seconds =       0.95 minutes
Total time:
	user time   =     484.91 seconds =       8.08 minutes
	system time =      23.84 seconds =       0.40 minutes
	total time  =         69 seconds =       1.15 minutes

    Psi4 stopped on: Thursday, 23 April 2020 10:16PM
    Psi4 wall time for execution: 0:01:09.44

*** Psi4 exiting successfully. Buy a developer a beer!
