
    -----------------------------------------------------------------------
          Psi4: An Open-Source Ab Initio Electronic Structure Package
                               Psi4 1.4a2.dev224 

                         Git: Rev {master} e453b16 


    R. M. Parrish, L. A. Burns, D. G. A. Smith, A. C. Simmonett,
    A. E. DePrince III, E. G. Hohenstein, U. Bozkaya, A. Yu. Sokolov,
    R. Di Remigio, R. M. Richard, J. F. Gonthier, A. M. James,
    H. R. McAlexander, A. Kumar, M. Saitow, X. Wang, B. P. Pritchard,
    P. Verma, H. F. Schaefer III, K. Patkowski, R. A. King, E. F. Valeev,
    F. A. Evangelista, J. M. Turney, T. D. Crawford, and C. D. Sherrill,
    J. Chem. Theory Comput. 13(7) pp 3185--3197 (2017).
    (doi: 10.1021/acs.jctc.7b00174)


                         Additional Contributions by
    P. Kraus, H. Kruse, M. H. Lechner, M. C. Schieber, R. A. Shaw,
    A. Alenaizan, R. Galvelis, Z. L. Glick, S. Lehtola, and J. P. Misiewicz

    -----------------------------------------------------------------------


    Psi4 started on: Friday, 24 April 2020 11:21AM

    Process ID: 63605
    Host:       genome.bme.utexas.edu
    PSIDATADIR: /home/liuchw/anaconda3/envs/psi4env/share/psi4
    Memory:     500.0 MiB
    Threads:    8
    
  ==> Input File <==

--------------------------------------------------------------------------
#Generated by lconvert.py for sapt job

memory 80 GB

molecule  {
0 1
  N      -0.730000    0.022770    0.000920
  H       0.298420    0.074000    0.001620
  C      -1.296820   -1.240430    0.001500
  O      -0.594100   -2.253520    0.002630
  C      -2.743620   -1.262330    0.000480
  H      -3.249590   -2.211840    0.000830
  C      -3.422020   -0.095910   -0.000920
  H      -4.500900   -0.049220   -0.001750
  N      -2.774840    1.105410   -0.001420
  H      -3.283840    1.973880   -0.002490
  C      -1.391480    1.237020   -0.000520
  O      -0.839840    2.317040   -0.001000
--
0 1
  N       5.749530   -1.162470   -0.000340
  H       6.196770   -0.255900    0.000050
  C       6.605580   -2.277090   -0.001840
  O       7.815030   -2.125390   -0.002590
  C       5.891360   -3.539260   -0.002340
  H       6.457940   -4.454290   -0.003480
  C       4.541190   -3.543080   -0.001380
  H       3.964230   -4.456050   -0.001700
  N       3.803200   -2.392200    0.000070
  H       2.776860   -2.413640    0.000740
  C       4.375970   -1.147530    0.000620
  O       3.725650   -0.106320    0.001850
units angstrom
no_reorient
symmetry c1
}

set {
scf_type DF
basis aug-cc-pvtz
freeze_core True
guess SAD
}
energy('sapt2+')
--------------------------------------------------------------------------

  Memory set to  74.506 GiB by Python driver.

Scratch directory: /scratch/liuchw/

  //>>>>>>>>>>>>>>>>>>>>>>>>>>>>>>>>>>>//
  //              Dimer HF             //
  //<<<<<<<<<<<<<<<<<<<<<<<<<<<<<<<<<<<//


*** tstart() called on genome.bme.utexas.edu
*** at Fri Apr 24 11:21:50 2020

   => Loading Basis Set <=

    Name: AUG-CC-PVTZ
    Role: ORBITAL
    Keyword: BASIS
    atoms 1, 9, 13, 21                entry N          line   285 file /home/liuchw/anaconda3/envs/psi4env/share/psi4/basis/aug-cc-pvtz.gbs 
    atoms 2, 6, 8, 10, 14, 18, 20, 22 entry H          line    40 file /home/liuchw/anaconda3/envs/psi4env/share/psi4/basis/aug-cc-pvtz.gbs 
    atoms 3, 5, 7, 11, 15, 17, 19, 23 entry C          line   239 file /home/liuchw/anaconda3/envs/psi4env/share/psi4/basis/aug-cc-pvtz.gbs 
    atoms 4, 12, 16, 24               entry O          line   331 file /home/liuchw/anaconda3/envs/psi4env/share/psi4/basis/aug-cc-pvtz.gbs 


         ---------------------------------------------------------
                                   SCF
               by Justin Turney, Rob Parrish, Andy Simmonett
                          and Daniel G. A. Smith
                              RHF Reference
                        8 Threads,  76293 MiB Core
         ---------------------------------------------------------

  ==> Geometry <==

    Molecular point group: c1
    Full point group: C1

    Geometry (in Angstrom), charge = 0, multiplicity = 1:

       Center              X                  Y                   Z               Mass       
    ------------   -----------------  -----------------  -----------------  -----------------
         N           -2.541144026896     1.017916000444     0.001168043392    14.003074004430
         H           -1.512724026896     1.069146000444     0.001868043392     1.007825032230
         C           -3.107964026896    -0.245283999556     0.001748043392    12.000000000000
         O           -2.405244026896    -1.258373999556     0.002878043392    15.994914619570
         C           -4.554764026896    -0.267183999556     0.000728043392    12.000000000000
         H           -5.060734026896    -1.216693999556     0.001078043392     1.007825032230
         C           -5.233164026896     0.899236000444    -0.000671956608    12.000000000000
         H           -6.312044026896     0.945926000444    -0.001501956608     1.007825032230
         N           -4.585984026896     2.100556000444    -0.001171956608    14.003074004430
         H           -5.094984026896     2.969026000444    -0.002241956608     1.007825032230
         C           -3.202624026896     2.232166000444    -0.000271956608    12.000000000000
         O           -2.650984026896     3.312186000444    -0.000751956608    15.994914619570
         N            3.938385973104    -0.167323999556    -0.000091956608    14.003074004430
         H            4.385625973104     0.739246000444     0.000298043392     1.007825032230
         C            4.794435973104    -1.281943999556    -0.001591956608    12.000000000000
         O            6.003885973104    -1.130243999556    -0.002341956608    15.994914619570
         C            4.080215973104    -2.544113999556    -0.002091956608    12.000000000000
         H            4.646795973104    -3.459143999556    -0.003231956608     1.007825032230
         C            2.730045973104    -2.547933999556    -0.001131956608    12.000000000000
         H            2.153085973104    -3.460903999556    -0.001451956608     1.007825032230
         N            1.992055973104    -1.397053999556     0.000318043392    14.003074004430
         H            0.965715973104    -1.418493999556     0.000988043392     1.007825032230
         C            2.564825973104    -0.152383999556     0.000868043392    12.000000000000
         O            1.914505973104     0.888826000444     0.002098043392    15.994914619570

  Running in c1 symmetry.

  Rotational constants: A =      0.04584  B =      0.00502  C =      0.00453 [cm^-1]
  Rotational constants: A =   1374.27795  B =    150.61113  C =    135.73551 [MHz]
  Nuclear repulsion =  965.512397727717371

  Charge       = 0
  Multiplicity = 1
  Electrons    = 116
  Nalpha       = 58
  Nbeta        = 58

  ==> Algorithm <==

  SCF Algorithm Type is DF.
  DIIS enabled.
  MOM disabled.
  Fractional occupation disabled.
  Guess Type is SAD.
  Energy threshold   = 1.00e-08
  Density threshold  = 1.00e-08
  Integral threshold = 0.00e+00

  ==> Primary Basis <==

  Basis Set: AUG-CC-PVTZ
    Blend: AUG-CC-PVTZ
    Number of shells: 296
    Number of basis function: 920
    Number of Cartesian functions: 1080
    Spherical Harmonics?: true
    Max angular momentum: 3

   => Loading Basis Set <=

    Name: (AUG-CC-PVTZ AUX)
    Role: JKFIT
    Keyword: DF_BASIS_SCF
    atoms 1, 9, 13, 21                entry N          line   224 file /home/liuchw/anaconda3/envs/psi4env/share/psi4/basis/aug-cc-pvtz-jkfit.gbs 
    atoms 2, 6, 8, 10, 14, 18, 20, 22 entry H          line    70 file /home/liuchw/anaconda3/envs/psi4env/share/psi4/basis/aug-cc-pvtz-jkfit.gbs 
    atoms 3, 5, 7, 11, 15, 17, 19, 23 entry C          line   162 file /home/liuchw/anaconda3/envs/psi4env/share/psi4/basis/aug-cc-pvtz-jkfit.gbs 
    atoms 4, 12, 16, 24               entry O          line   286 file /home/liuchw/anaconda3/envs/psi4env/share/psi4/basis/aug-cc-pvtz-jkfit.gbs 

  ==> Pre-Iterations <==

   -------------------------------------------------------
    Irrep   Nso     Nmo     Nalpha   Nbeta   Ndocc  Nsocc
   -------------------------------------------------------
     A        920     920       0       0       0       0
   -------------------------------------------------------
    Total     920     920      58      58      58       0
   -------------------------------------------------------

  ==> Integral Setup <==

  ==> DiskDFJK: Density-Fitted J/K Matrices <==

    J tasked:                  Yes
    K tasked:                  Yes
    wK tasked:                  No
    OpenMP threads:              8
    Integrals threads:           8
    Memory [MiB]:            57220
    Algorithm:                Core
    Integral Cache:           SAVE
    Schwarz Cutoff:          1E-12
    Fitting Condition:       1E-10

   => Auxiliary Basis Set <=

  Basis Set: (AUG-CC-PVTZ AUX)
    Blend: AUG-CC-PVTZ-JKFIT
    Number of shells: 592
    Number of basis function: 2032
    Number of Cartesian functions: 2536
    Spherical Harmonics?: true
    Max angular momentum: 4

  Minimum eigenvalue in the overlap matrix is 2.6899064497E-06.
  Using Symmetric Orthogonalization.

  SCF Guess: Superposition of Atomic Densities via on-the-fly atomic UHF.

  ==> Iterations <==

                           Total Energy        Delta E     RMS |[F,P]|

   @DF-RHF iter SAD:  -823.94677074202639   -8.23947e+02   0.00000e+00 
   @DF-RHF iter   1:  -824.76235350056322   -8.15583e-01   1.14353e-03 DIIS
   @DF-RHF iter   2:  -825.08652846315522   -3.24175e-01   7.54261e-04 DIIS
   @DF-RHF iter   3:  -825.24141286957320   -1.54884e-01   1.36241e-04 DIIS
   @DF-RHF iter   4:  -825.24974499300720   -8.33212e-03   5.58970e-05 DIIS
   @DF-RHF iter   5:  -825.25147324152374   -1.72825e-03   1.12887e-05 DIIS
   @DF-RHF iter   6:  -825.25167673718602   -2.03496e-04   5.57910e-06 DIIS
   @DF-RHF iter   7:  -825.25171212859675   -3.53914e-05   2.28956e-06 DIIS
   @DF-RHF iter   8:  -825.25171839290795   -6.26431e-06   7.61961e-07 DIIS
   @DF-RHF iter   9:  -825.25171886897260   -4.76065e-07   3.26754e-07 DIIS
   @DF-RHF iter  10:  -825.25171898625297   -1.17280e-07   1.10246e-07 DIIS
   @DF-RHF iter  11:  -825.25171900166492   -1.54120e-08   3.73205e-08 DIIS
   @DF-RHF iter  12:  -825.25171900291957   -1.25465e-09   1.32598e-08 DIIS
   @DF-RHF iter  13:  -825.25171900307555   -1.55978e-10   5.24393e-09 DIIS
  Energy and wave function converged.


  ==> Post-Iterations <==

    Orbital Energies [Eh]
    ---------------------

    Doubly Occupied:                                                      

       1A    -20.550388     2A    -20.544187     3A    -20.538800  
       4A    -20.537592     5A    -15.648097     6A    -15.641535  
       7A    -15.635356     8A    -15.622889     9A    -11.422616  
      10A    -11.412609    11A    -11.385405    12A    -11.376308  
      13A    -11.344323    14A    -11.335866    15A    -11.257655  
      16A    -11.251008    17A     -1.440118    18A     -1.427826  
      19A     -1.396512    20A     -1.392299    21A     -1.317200  
      22A     -1.307486    23A     -1.251633    24A     -1.241208  
      25A     -1.091247    26A     -1.083632    27A     -0.936852  
      28A     -0.930749    29A     -0.906986    30A     -0.895394  
      31A     -0.810322    32A     -0.800545    33A     -0.769819  
      34A     -0.761353    35A     -0.718943    36A     -0.708835  
      37A     -0.681292    38A     -0.673052    39A     -0.671521  
      40A     -0.664690    41A     -0.655469    42A     -0.645135  
      43A     -0.616158    44A     -0.609448    45A     -0.605181  
      46A     -0.596462    47A     -0.573924    48A     -0.565971  
      49A     -0.530030    50A     -0.518535    51A     -0.485933  
      52A     -0.477295    53A     -0.454336    54A     -0.444303  
      55A     -0.440718    56A     -0.431495    57A     -0.371337  
      58A     -0.364356  

    Virtual:                                                              

      59A      0.012429    60A      0.024023    61A      0.031754  
      62A      0.039616    63A      0.043950    64A      0.049964  
      65A      0.053362    66A      0.057274    67A      0.063973  
      68A      0.066303    69A      0.075817    70A      0.082948  
      71A      0.082979    72A      0.089137    73A      0.091123  
      74A      0.097343    75A      0.097448    76A      0.099204  
      77A      0.101141    78A      0.105570    79A      0.113443  
      80A      0.114462    81A      0.119700    82A      0.120843  
      83A      0.123013    84A      0.125286    85A      0.130569  
      86A      0.134082    87A      0.134592    88A      0.143513  
      89A      0.143868    90A      0.147196    91A      0.149195  
      92A      0.153632    93A      0.156489    94A      0.158506  
      95A      0.161936    96A      0.164841    97A      0.173320  
      98A      0.173830    99A      0.175247   100A      0.180451  
     101A      0.182813   102A      0.199719   103A      0.201595  
     104A      0.206609   105A      0.207147   106A      0.211495  
     107A      0.216208   108A      0.219987   109A      0.222373  
     110A      0.229342   111A      0.236079   112A      0.236458  
     113A      0.240603   114A      0.243967   115A      0.257231  
     116A      0.262308   117A      0.262843   118A      0.265787  
     119A      0.267806   120A      0.270153   121A      0.273043  
     122A      0.277274   123A      0.279158   124A      0.282322  
     125A      0.284554   126A      0.287866   127A      0.288188  
     128A      0.291829   129A      0.295553   130A      0.297381  
     131A      0.305808   132A      0.312111   133A      0.313912  
     134A      0.318026   135A      0.321241   136A      0.326009  
     137A      0.328567   138A      0.328911   139A      0.336820  
     140A      0.339123   141A      0.341589   142A      0.344899  
     143A      0.349902   144A      0.350856   145A      0.354144  
     146A      0.361297   147A      0.363686   148A      0.369848  
     149A      0.370104   150A      0.377622   151A      0.379079  
     152A      0.379207   153A      0.383725   154A      0.388027  
     155A      0.388588   156A      0.396943   157A      0.397919  
     158A      0.401846   159A      0.408480   160A      0.417143  
     161A      0.418559   162A      0.421661   163A      0.426318  
     164A      0.428908   165A      0.432470   166A      0.435306  
     167A      0.437958   168A      0.443994   169A      0.451583  
     170A      0.453209   171A      0.456021   172A      0.458075  
     173A      0.464124   174A      0.465499   175A      0.471212  
     176A      0.472780   177A      0.474799   178A      0.477842  
     179A      0.481315   180A      0.485149   181A      0.491282  
     182A      0.497152   183A      0.497185   184A      0.498791  
     185A      0.502368   186A      0.508835   187A      0.514866  
     188A      0.517748   189A      0.523599   190A      0.526585  
     191A      0.532210   192A      0.533088   193A      0.535915  
     194A      0.538314   195A      0.541681   196A      0.545187  
     197A      0.563304   198A      0.568620   199A      0.580653  
     200A      0.586010   201A      0.592014   202A      0.598538  
     203A      0.608796   204A      0.611162   205A      0.611190  
     206A      0.620643   207A      0.621646   208A      0.624070  
     209A      0.625930   210A      0.635009   211A      0.640219  
     212A      0.643897   213A      0.643996   214A      0.644767  
     215A      0.649911   216A      0.654759   217A      0.659916  
     218A      0.663586   219A      0.671968   220A      0.673619  
     221A      0.676684   222A      0.679988   223A      0.685293  
     224A      0.689466   225A      0.693198   226A      0.698540  
     227A      0.713675   228A      0.726062   229A      0.730144  
     230A      0.735132   231A      0.735472   232A      0.742102  
     233A      0.744941   234A      0.746430   235A      0.749402  
     236A      0.749716   237A      0.757541   238A      0.762441  
     239A      0.764805   240A      0.773750   241A      0.775264  
     242A      0.776673   243A      0.782185   244A      0.789263  
     245A      0.792464   246A      0.803534   247A      0.805704  
     248A      0.815191   249A      0.819291   250A      0.834059  
     251A      0.840233   252A      0.842500   253A      0.846136  
     254A      0.847815   255A      0.853419   256A      0.859660  
     257A      0.862430   258A      0.864071   259A      0.867668  
     260A      0.882224   261A      0.883398   262A      0.886090  
     263A      0.889289   264A      0.893383   265A      0.895692  
     266A      0.903546   267A      0.904437   268A      0.909385  
     269A      0.913645   270A      0.917099   271A      0.917645  
     272A      0.928463   273A      0.931144   274A      0.932507  
     275A      0.934599   276A      0.938529   277A      0.941668  
     278A      0.943314   279A      0.955062   280A      0.956078  
     281A      0.956431   282A      0.961146   283A      0.968472  
     284A      0.974284   285A      0.979073   286A      0.984235  
     287A      0.987469   288A      0.988026   289A      0.990970  
     290A      0.991100   291A      0.994674   292A      1.001641  
     293A      1.010346   294A      1.015352   295A      1.016408  
     296A      1.020701   297A      1.036857   298A      1.043652  
     299A      1.053281   300A      1.060578   301A      1.061405  
     302A      1.069865   303A      1.073358   304A      1.075920  
     305A      1.083337   306A      1.088909   307A      1.094326  
     308A      1.096930   309A      1.097509   310A      1.106863  
     311A      1.107324   312A      1.108919   313A      1.116426  
     314A      1.116519   315A      1.122933   316A      1.127145  
     317A      1.134485   318A      1.142404   319A      1.145502  
     320A      1.148854   321A      1.151737   322A      1.154988  
     323A      1.158990   324A      1.162008   325A      1.165108  
     326A      1.175673   327A      1.178308   328A      1.183997  
     329A      1.187489   330A      1.187709   331A      1.194499  
     332A      1.195419   333A      1.202755   334A      1.212623  
     335A      1.214205   336A      1.218091   337A      1.220225  
     338A      1.227576   339A      1.233971   340A      1.235670  
     341A      1.241197   342A      1.241326   343A      1.250714  
     344A      1.257897   345A      1.269913   346A      1.274979  
     347A      1.280962   348A      1.288909   349A      1.291244  
     350A      1.297547   351A      1.299138   352A      1.305871  
     353A      1.310193   354A      1.311988   355A      1.317478  
     356A      1.324385   357A      1.336579   358A      1.345176  
     359A      1.351732   360A      1.361663   361A      1.375936  
     362A      1.378856   363A      1.383223   364A      1.383255  
     365A      1.391903   366A      1.396710   367A      1.403022  
     368A      1.403824   369A      1.410721   370A      1.415244  
     371A      1.422544   372A      1.431926   373A      1.435518  
     374A      1.436143   375A      1.447481   376A      1.452249  
     377A      1.453236   378A      1.470687   379A      1.471130  
     380A      1.477351   381A      1.478007   382A      1.482177  
     383A      1.486091   384A      1.488525   385A      1.499099  
     386A      1.504284   387A      1.510430   388A      1.511232  
     389A      1.516941   390A      1.517487   391A      1.526689  
     392A      1.530757   393A      1.544461   394A      1.549137  
     395A      1.556450   396A      1.562882   397A      1.570632  
     398A      1.573109   399A      1.577623   400A      1.597195  
     401A      1.597344   402A      1.607465   403A      1.610749  
     404A      1.615567   405A      1.616709   406A      1.629810  
     407A      1.636772   408A      1.650056   409A      1.656556  
     410A      1.657877   411A      1.658850   412A      1.671985  
     413A      1.677153   414A      1.682177   415A      1.689045  
     416A      1.689473   417A      1.701884   418A      1.707752  
     419A      1.717075   420A      1.718787   421A      1.729440  
     422A      1.734536   423A      1.744047   424A      1.744982  
     425A      1.761051   426A      1.769860   427A      1.784814  
     428A      1.811132   429A      1.818307   430A      1.832155  
     431A      1.833491   432A      1.843417   433A      1.846231  
     434A      1.848128   435A      1.872853   436A      1.876913  
     437A      1.881956   438A      1.883936   439A      1.887011  
     440A      1.894341   441A      1.897602   442A      1.900924  
     443A      1.922507   444A      1.925037   445A      1.930844  
     446A      1.939198   447A      1.946001   448A      1.946552  
     449A      1.950757   450A      1.961121   451A      2.002541  
     452A      2.006338   453A      2.008086   454A      2.017865  
     455A      2.029356   456A      2.040041   457A      2.044997  
     458A      2.090455   459A      2.095443   460A      2.108630  
     461A      2.108825   462A      2.111994   463A      2.119819  
     464A      2.127037   465A      2.132178   466A      2.142709  
     467A      2.145690   468A      2.149078   469A      2.151138  
     470A      2.158099   471A      2.161021   472A      2.174624  
     473A      2.179021   474A      2.188743   475A      2.208638  
     476A      2.211024   477A      2.230194   478A      2.234545  
     479A      2.243290   480A      2.253715   481A      2.262740  
     482A      2.275975   483A      2.280189   484A      2.288677  
     485A      2.294529   486A      2.295163   487A      2.302096  
     488A      2.304215   489A      2.312327   490A      2.320471  
     491A      2.348313   492A      2.362078   493A      2.365651  
     494A      2.370362   495A      2.380132   496A      2.383178  
     497A      2.407046   498A      2.416166   499A      2.417962  
     500A      2.427809   501A      2.443312   502A      2.456876  
     503A      2.462000   504A      2.467984   505A      2.470512  
     506A      2.474343   507A      2.478439   508A      2.485135  
     509A      2.495827   510A      2.500620   511A      2.505660  
     512A      2.510364   513A      2.513565   514A      2.523016  
     515A      2.529741   516A      2.538793   517A      2.538863  
     518A      2.545346   519A      2.554897   520A      2.561634  
     521A      2.572383   522A      2.572609   523A      2.583652  
     524A      2.589181   525A      2.590967   526A      2.597376  
     527A      2.603480   528A      2.607871   529A      2.609279  
     530A      2.626784   531A      2.628845   532A      2.638326  
     533A      2.642649   534A      2.665212   535A      2.684381  
     536A      2.689932   537A      2.698496   538A      2.698910  
     539A      2.707438   540A      2.711473   541A      2.716491  
     542A      2.735271   543A      2.769135   544A      2.769291  
     545A      2.776181   546A      2.776312   547A      2.786257  
     548A      2.791207   549A      2.807028   550A      2.829344  
     551A      2.833514   552A      2.842522   553A      2.855528  
     554A      2.856054   555A      2.863174   556A      2.880570  
     557A      2.893376   558A      2.895503   559A      2.930135  
     560A      2.934249   561A      2.943973   562A      2.964360  
     563A      2.969120   564A      2.972025   565A      2.990285  
     566A      2.994008   567A      3.013363   568A      3.016416  
     569A      3.024707   570A      3.032020   571A      3.039001  
     572A      3.041647   573A      3.054895   574A      3.061744  
     575A      3.123858   576A      3.130339   577A      3.146648  
     578A      3.154127   579A      3.179269   580A      3.203139  
     581A      3.208878   582A      3.210910   583A      3.237288  
     584A      3.237577   585A      3.255007   586A      3.255173  
     587A      3.263743   588A      3.275714   589A      3.285003  
     590A      3.291585   591A      3.291743   592A      3.305848  
     593A      3.317211   594A      3.325606   595A      3.353001  
     596A      3.367357   597A      3.370741   598A      3.371348  
     599A      3.427380   600A      3.433212   601A      3.435222  
     602A      3.447259   603A      3.457113   604A      3.463919  
     605A      3.476439   606A      3.486320   607A      3.488486  
     608A      3.502144   609A      3.532358   610A      3.533044  
     611A      3.539284   612A      3.540035   613A      3.552402  
     614A      3.568472   615A      3.602752   616A      3.607457  
     617A      3.610079   618A      3.617665   619A      3.635046  
     620A      3.642583   621A      3.642819   622A      3.649523  
     623A      3.655603   624A      3.676931   625A      3.692438  
     626A      3.692563   627A      3.700845   628A      3.704417  
     629A      3.724731   630A      3.741300   631A      3.744098  
     632A      3.756865   633A      3.758629   634A      3.763876  
     635A      3.767619   636A      3.781483   637A      3.786523  
     638A      3.802398   639A      3.824365   640A      3.829551  
     641A      3.831845   642A      3.840883   643A      3.854432  
     644A      3.862898   645A      3.890214   646A      3.899958  
     647A      3.900929   648A      3.907307   649A      3.927027  
     650A      3.937349   651A      3.948367   652A      3.954731  
     653A      3.963085   654A      3.979458   655A      3.988883  
     656A      3.993153   657A      4.009484   658A      4.017665  
     659A      4.064130   660A      4.080478   661A      4.082081  
     662A      4.084881   663A      4.091137   664A      4.092019  
     665A      4.116998   666A      4.125355   667A      4.129666  
     668A      4.136891   669A      4.145419   670A      4.158825  
     671A      4.178263   672A      4.187119   673A      4.206617  
     674A      4.213549   675A      4.218837   676A      4.220422  
     677A      4.222881   678A      4.232173   679A      4.256466  
     680A      4.256859   681A      4.257844   682A      4.260937  
     683A      4.284095   684A      4.285096   685A      4.293944  
     686A      4.303310   687A      4.311394   688A      4.331592  
     689A      4.344020   690A      4.347891   691A      4.353078  
     692A      4.356270   693A      4.360176   694A      4.374649  
     695A      4.385244   696A      4.396241   697A      4.419087  
     698A      4.430148   699A      4.432205   700A      4.433955  
     701A      4.444325   702A      4.445561   703A      4.449001  
     704A      4.461211   705A      4.469801   706A      4.470894  
     707A      4.515219   708A      4.533689   709A      4.571465  
     710A      4.580264   711A      4.604171   712A      4.611683  
     713A      4.625093   714A      4.625677   715A      4.637940  
     716A      4.642719   717A      4.679532   718A      4.686833  
     719A      4.695954   720A      4.699576   721A      4.702984  
     722A      4.719002   723A      4.742451   724A      4.752028  
     725A      4.755107   726A      4.766413   727A      4.769989  
     728A      4.770131   729A      4.809786   730A      4.814339  
     731A      4.851122   732A      4.865743   733A      4.870904  
     734A      4.889378   735A      4.905165   736A      4.905386  
     737A      4.912322   738A      4.915067   739A      4.929955  
     740A      4.936096   741A      4.939030   742A      4.958573  
     743A      5.011703   744A      5.014486   745A      5.021245  
     746A      5.044615   747A      5.057038   748A      5.064452  
     749A      5.071980   750A      5.078823   751A      5.090475  
     752A      5.104503   753A      5.114310   754A      5.115604  
     755A      5.122321   756A      5.127091   757A      5.128342  
     758A      5.128997   759A      5.158589   760A      5.176590  
     761A      5.202399   762A      5.237604   763A      5.240783  
     764A      5.245438   765A      5.287865   766A      5.298205  
     767A      5.305953   768A      5.319031   769A      5.367621  
     770A      5.380112   771A      5.412390   772A      5.422793  
     773A      5.435242   774A      5.442422   775A      5.487418  
     776A      5.488010   777A      5.500374   778A      5.504068  
     779A      5.508820   780A      5.519411   781A      5.520976  
     782A      5.528649   783A      5.544576   784A      5.552778  
     785A      5.558975   786A      5.569224   787A      5.595223  
     788A      5.603310   789A      5.623067   790A      5.642576  
     791A      5.673344   792A      5.678544   793A      5.706923  
     794A      5.711582   795A      5.761823   796A      5.768678  
     797A      5.770123   798A      5.790765   799A      5.791213  
     800A      5.799094   801A      5.807214   802A      5.814657  
     803A      5.816771   804A      5.827082   805A      5.868936  
     806A      5.881856   807A      5.910273   808A      5.917199  
     809A      5.980751   810A      5.998541   811A      6.001484  
     812A      6.012362   813A      6.025127   814A      6.031954  
     815A      6.042679   816A      6.055441   817A      6.060506  
     818A      6.076247   819A      6.114162   820A      6.123821  
     821A      6.157991   822A      6.161133   823A      6.201877  
     824A      6.217082   825A      6.263654   826A      6.272558  
     827A      6.278727   828A      6.297971   829A      6.492963  
     830A      6.505642   831A      6.555856   832A      6.562057  
     833A      6.597213   834A      6.613040   835A      6.638932  
     836A      6.652243   837A      6.654453   838A      6.657514  
     839A      6.670479   840A      6.674093   841A      6.704418  
     842A      6.724547   843A      6.736400   844A      6.742464  
     845A      6.753993   846A      6.775725   847A      6.795244  
     848A      6.818601   849A      6.833096   850A      6.843229  
     851A      6.847161   852A      6.857009   853A      6.879746  
     854A      6.888903   855A      6.934128   856A      6.944608  
     857A      6.950766   858A      6.963358   859A      6.997652  
     860A      6.998614   861A      7.009394   862A      7.029148  
     863A      7.110924   864A      7.123390   865A      7.126508  
     866A      7.137393   867A      7.192008   868A      7.211475  
     869A      7.249509   870A      7.255977   871A      7.349284  
     872A      7.358077   873A      7.373491   874A      7.374622  
     875A      7.377561   876A      7.379425   877A      7.385694  
     878A      7.394261   879A      7.396802   880A      7.407828  
     881A      7.462904   882A      7.474663   883A      7.632491  
     884A      7.643257   885A      7.649129   886A      7.665924  
     887A      7.679569   888A      7.687198   889A      7.721915  
     890A      7.732263   891A      7.819109   892A      7.827122  
     893A      7.861065   894A      7.864496   895A      7.903254  
     896A      7.933769   897A      7.945859   898A      7.952711  
     899A      7.992646   900A      7.999263   901A      8.031405  
     902A      8.041726   903A      8.120281   904A      8.137865  
     905A     15.875804   906A     16.028781   907A     16.082710  
     908A     16.157310   909A     16.297231   910A     16.432855  
     911A     16.913118   912A     17.002193   913A     18.360702  
     914A     18.423788   915A     19.531353   916A     19.604575  
     917A     19.839283   918A     20.028929   919A     20.669982  
     920A     20.718902  

    Final Occupation by Irrep:
              A 
    DOCC [    58 ]

  @DF-RHF Final Energy:  -825.25171900307555

   => Energetics <=

    Nuclear Repulsion Energy =            965.5123977277173708
    One-Electron Energy =               -3043.9877559447431850
    Two-Electron Energy =                1253.2236392139504915
    Total Energy =                       -825.2517190030755501

Computation Completed


Properties will be evaluated at   0.000000,   0.000000,   0.000000 [a0]

Properties computed using the SCF density matrix

  Nuclear Dipole Moment: [e a0]
     X:    -5.4475      Y:    -3.5881      Z:    -0.0039

  Electronic Dipole Moment: [e a0]
     X:     2.1590      Y:     2.6640      Z:     0.0021

  Dipole Moment: [e a0]
     X:    -3.2885      Y:    -0.9241      Z:    -0.0019     Total:     3.4159

  Dipole Moment: [D]
     X:    -8.3585      Y:    -2.3489      Z:    -0.0048     Total:     8.6823


*** tstop() called on genome.bme.utexas.edu at Fri Apr 24 11:26:02 2020
Module time:
	user time   =    1551.79 seconds =      25.86 minutes
	system time =      26.77 seconds =       0.45 minutes
	total time  =        252 seconds =       4.20 minutes
Total time:
	user time   =    1551.79 seconds =      25.86 minutes
	system time =      26.77 seconds =       0.45 minutes
	total time  =        252 seconds =       4.20 minutes

  //>>>>>>>>>>>>>>>>>>>>>>>>>>>>>>>>>>>//
  //            Monomer A HF           //
  //<<<<<<<<<<<<<<<<<<<<<<<<<<<<<<<<<<<//


*** tstart() called on genome.bme.utexas.edu
*** at Fri Apr 24 11:26:03 2020

   => Loading Basis Set <=

    Name: AUG-CC-PVTZ
    Role: ORBITAL
    Keyword: BASIS
    atoms 1, 9, 13, 21                entry N          line   285 file /home/liuchw/anaconda3/envs/psi4env/share/psi4/basis/aug-cc-pvtz.gbs 
    atoms 2, 6, 8, 10, 14, 18, 20, 22 entry H          line    40 file /home/liuchw/anaconda3/envs/psi4env/share/psi4/basis/aug-cc-pvtz.gbs 
    atoms 3, 5, 7, 11, 15, 17, 19, 23 entry C          line   239 file /home/liuchw/anaconda3/envs/psi4env/share/psi4/basis/aug-cc-pvtz.gbs 
    atoms 4, 12, 16, 24               entry O          line   331 file /home/liuchw/anaconda3/envs/psi4env/share/psi4/basis/aug-cc-pvtz.gbs 


         ---------------------------------------------------------
                                   SCF
               by Justin Turney, Rob Parrish, Andy Simmonett
                          and Daniel G. A. Smith
                              RHF Reference
                        8 Threads,  76293 MiB Core
         ---------------------------------------------------------

  ==> Geometry <==

    Molecular point group: c1
    Full point group: C1

    Geometry (in Angstrom), charge = 0, multiplicity = 1:

       Center              X                  Y                   Z               Mass       
    ------------   -----------------  -----------------  -----------------  -----------------
         N           -2.541144026896     1.017916000444     0.001168043392    14.003074004430
         H           -1.512724026896     1.069146000444     0.001868043392     1.007825032230
         C           -3.107964026896    -0.245283999556     0.001748043392    12.000000000000
         O           -2.405244026896    -1.258373999556     0.002878043392    15.994914619570
         C           -4.554764026896    -0.267183999556     0.000728043392    12.000000000000
         H           -5.060734026896    -1.216693999556     0.001078043392     1.007825032230
         C           -5.233164026896     0.899236000444    -0.000671956608    12.000000000000
         H           -6.312044026896     0.945926000444    -0.001501956608     1.007825032230
         N           -4.585984026896     2.100556000444    -0.001171956608    14.003074004430
         H           -5.094984026896     2.969026000444    -0.002241956608     1.007825032230
         C           -3.202624026896     2.232166000444    -0.000271956608    12.000000000000
         O           -2.650984026896     3.312186000444    -0.000751956608    15.994914619570
      Gh(N)           3.938385973104    -0.167323999556    -0.000091956608    14.003074004430
      Gh(H)           4.385625973104     0.739246000444     0.000298043392     1.007825032230
      Gh(C)           4.794435973104    -1.281943999556    -0.001591956608    12.000000000000
      Gh(O)           6.003885973104    -1.130243999556    -0.002341956608    15.994914619570
      Gh(C)           4.080215973104    -2.544113999556    -0.002091956608    12.000000000000
      Gh(H)           4.646795973104    -3.459143999556    -0.003231956608     1.007825032230
      Gh(C)           2.730045973104    -2.547933999556    -0.001131956608    12.000000000000
      Gh(H)           2.153085973104    -3.460903999556    -0.001451956608     1.007825032230
      Gh(N)           1.992055973104    -1.397053999556     0.000318043392    14.003074004430
      Gh(H)           0.965715973104    -1.418493999556     0.000988043392     1.007825032230
      Gh(C)           2.564825973104    -0.152383999556     0.000868043392    12.000000000000
      Gh(O)           1.914505973104     0.888826000444     0.002098043392    15.994914619570

  Running in c1 symmetry.

  Rotational constants: A =      0.04584  B =      0.00502  C =      0.00453 [cm^-1]
  Rotational constants: A =   1374.27795  B =    150.61113  C =    135.73551 [MHz]
  Nuclear repulsion =  357.252331250054681

  Charge       = 0
  Multiplicity = 1
  Electrons    = 58
  Nalpha       = 29
  Nbeta        = 29

  ==> Algorithm <==

  SCF Algorithm Type is DF.
  DIIS enabled.
  MOM disabled.
  Fractional occupation disabled.
  Guess Type is SAD.
  Energy threshold   = 1.00e-08
  Density threshold  = 1.00e-08
  Integral threshold = 0.00e+00

  ==> Primary Basis <==

  Basis Set: AUG-CC-PVTZ
    Blend: AUG-CC-PVTZ
    Number of shells: 296
    Number of basis function: 920
    Number of Cartesian functions: 1080
    Spherical Harmonics?: true
    Max angular momentum: 3

   => Loading Basis Set <=

    Name: (AUG-CC-PVTZ AUX)
    Role: JKFIT
    Keyword: DF_BASIS_SCF
    atoms 1, 9, 13, 21                entry N          line   224 file /home/liuchw/anaconda3/envs/psi4env/share/psi4/basis/aug-cc-pvtz-jkfit.gbs 
    atoms 2, 6, 8, 10, 14, 18, 20, 22 entry H          line    70 file /home/liuchw/anaconda3/envs/psi4env/share/psi4/basis/aug-cc-pvtz-jkfit.gbs 
    atoms 3, 5, 7, 11, 15, 17, 19, 23 entry C          line   162 file /home/liuchw/anaconda3/envs/psi4env/share/psi4/basis/aug-cc-pvtz-jkfit.gbs 
    atoms 4, 12, 16, 24               entry O          line   286 file /home/liuchw/anaconda3/envs/psi4env/share/psi4/basis/aug-cc-pvtz-jkfit.gbs 

  ==> Pre-Iterations <==

   -------------------------------------------------------
    Irrep   Nso     Nmo     Nalpha   Nbeta   Ndocc  Nsocc
   -------------------------------------------------------
     A        920     920       0       0       0       0
   -------------------------------------------------------
    Total     920     920      29      29      29       0
   -------------------------------------------------------

  ==> Integral Setup <==

  ==> DiskDFJK: Density-Fitted J/K Matrices <==

    J tasked:                  Yes
    K tasked:                  Yes
    wK tasked:                  No
    OpenMP threads:              8
    Integrals threads:           8
    Memory [MiB]:            57220
    Algorithm:                Core
    Integral Cache:           LOAD
    Schwarz Cutoff:          1E-12
    Fitting Condition:       1E-10

   => Auxiliary Basis Set <=

  Basis Set: (AUG-CC-PVTZ AUX)
    Blend: AUG-CC-PVTZ-JKFIT
    Number of shells: 592
    Number of basis function: 2032
    Number of Cartesian functions: 2536
    Spherical Harmonics?: true
    Max angular momentum: 4

  Minimum eigenvalue in the overlap matrix is 2.6899064497E-06.
  Using Symmetric Orthogonalization.

  SCF Guess: Superposition of Atomic Densities via on-the-fly atomic UHF.

  ==> Iterations <==

                           Total Energy        Delta E     RMS |[F,P]|

   @DF-RHF iter SAD:  -411.96788466445207   -4.11968e+02   0.00000e+00 
   @DF-RHF iter   1:  -412.37349841925783   -4.05614e-01   8.13718e-04 DIIS
   @DF-RHF iter   2:  -412.53675336075213   -1.63255e-01   5.42700e-04 DIIS
   @DF-RHF iter   3:  -412.61735992804006   -8.06066e-02   9.76760e-05 DIIS
   @DF-RHF iter   4:  -412.62165258691607   -4.29266e-03   4.01054e-05 DIIS
   @DF-RHF iter   5:  -412.62254760009006   -8.95013e-04   8.21168e-06 DIIS
   @DF-RHF iter   6:  -412.62265263673578   -1.05037e-04   4.15170e-06 DIIS
   @DF-RHF iter   7:  -412.62267174619518   -1.91095e-05   1.72560e-06 DIIS
   @DF-RHF iter   8:  -412.62267516689326   -3.42070e-06   5.89959e-07 DIIS
   @DF-RHF iter   9:  -412.62267544150325   -2.74610e-07   2.38758e-07 DIIS
   @DF-RHF iter  10:  -412.62267550806882   -6.65656e-08   7.85983e-08 DIIS
   @DF-RHF iter  11:  -412.62267551609978   -8.03095e-09   2.51109e-08 DIIS
   @DF-RHF iter  12:  -412.62267551670368   -6.03904e-10   8.98579e-09 DIIS
  Energy and wave function converged.


  ==> Post-Iterations <==

    Orbital Energies [Eh]
    ---------------------

    Doubly Occupied:                                                      

       1A    -20.550859     2A    -20.536993     3A    -15.645990  
       4A    -15.634026     5A    -11.422339     6A    -11.379153  
       7A    -11.340311     8A    -11.254374     9A     -1.439693  
      10A     -1.390197    11A     -1.315274    12A     -1.249325  
      13A     -1.087883    14A     -0.934227    15A     -0.904352  
      16A     -0.808215    17A     -0.766759    18A     -0.716986  
      19A     -0.677170    20A     -0.671525    21A     -0.653831  
      22A     -0.610708    23A     -0.601499    24A     -0.568876  
      25A     -0.528925    26A     -0.485307    27A     -0.447803  
      28A     -0.437374    29A     -0.367636  

    Virtual:                                                              

      30A      0.013923    31A      0.023317    32A      0.033085  
      33A      0.036866    34A      0.041233    35A      0.050579  
      36A      0.053942    37A      0.055813    38A      0.063468  
      39A      0.066772    40A      0.073075    41A      0.078586  
      42A      0.085283    43A      0.087744    44A      0.091041  
      45A      0.095017    46A      0.096180    47A      0.101847  
      48A      0.102081    49A      0.104897    50A      0.107427  
      51A      0.114767    52A      0.117533    53A      0.117934  
      54A      0.119026    55A      0.128316    56A      0.129840  
      57A      0.131505    58A      0.141933    59A      0.144250  
      60A      0.144433    61A      0.147888    62A      0.153194  
      63A      0.155369    64A      0.158539    65A      0.159885  
      66A      0.168300    67A      0.174828    68A      0.177636  
      69A      0.179145    70A      0.180995    71A      0.185383  
      72A      0.192201    73A      0.195606    74A      0.199614  
      75A      0.201899    76A      0.205404    77A      0.213368  
      78A      0.218075    79A      0.219518    80A      0.223903  
      81A      0.224293    82A      0.231136    83A      0.238187  
      84A      0.241892    85A      0.245386    86A      0.250547  
      87A      0.252526    88A      0.257932    89A      0.262399  
      90A      0.263767    91A      0.266090    92A      0.274098  
      93A      0.276099    94A      0.280663    95A      0.284717  
      96A      0.284963    97A      0.288215    98A      0.292216  
      99A      0.296107   100A      0.303051   101A      0.304294  
     102A      0.311821   103A      0.314000   104A      0.316366  
     105A      0.321724   106A      0.329352   107A      0.329465  
     108A      0.341717   109A      0.342443   110A      0.343269  
     111A      0.350161   112A      0.352807   113A      0.358606  
     114A      0.361478   115A      0.362240   116A      0.365055  
     117A      0.368646   118A      0.373562   119A      0.376132  
     120A      0.379881   121A      0.382297   122A      0.384894  
     123A      0.391984   124A      0.393149   125A      0.396221  
     126A      0.403194   127A      0.406573   128A      0.408541  
     129A      0.411692   130A      0.412810   131A      0.413476  
     132A      0.421890   133A      0.422841   134A      0.425939  
     135A      0.426048   136A      0.427990   137A      0.435239  
     138A      0.446292   139A      0.447150   140A      0.450554  
     141A      0.460403   142A      0.460853   143A      0.463763  
     144A      0.471369   145A      0.472859   146A      0.474376  
     147A      0.482085   148A      0.482945   149A      0.489570  
     150A      0.490471   151A      0.495823   152A      0.497609  
     153A      0.504764   154A      0.505932   155A      0.509852  
     156A      0.510085   157A      0.513958   158A      0.527004  
     159A      0.532526   160A      0.534631   161A      0.539167  
     162A      0.543391   163A      0.553590   164A      0.561127  
     165A      0.561661   166A      0.569248   167A      0.572704  
     168A      0.584337   169A      0.594463   170A      0.604956  
     171A      0.605925   172A      0.607801   173A      0.611120  
     174A      0.613659   175A      0.620760   176A      0.625381  
     177A      0.630182   178A      0.635895   179A      0.641590  
     180A      0.644802   181A      0.649327   182A      0.650542  
     183A      0.653346   184A      0.661527   185A      0.665115  
     186A      0.678528   187A      0.679134   188A      0.683194  
     189A      0.685998   190A      0.689762   191A      0.698583  
     192A      0.702997   193A      0.703878   194A      0.716202  
     195A      0.719781   196A      0.727182   197A      0.738006  
     198A      0.740505   199A      0.755558   200A      0.756865  
     201A      0.760011   202A      0.761690   203A      0.765346  
     204A      0.769480   205A      0.773857   206A      0.780090  
     207A      0.781052   208A      0.782677   209A      0.801654  
     210A      0.801895   211A      0.807167   212A      0.815055  
     213A      0.821978   214A      0.822605   215A      0.827229  
     216A      0.830514   217A      0.841824   218A      0.843543  
     219A      0.845387   220A      0.849537   221A      0.856747  
     222A      0.857606   223A      0.861929   224A      0.862619  
     225A      0.872357   226A      0.875839   227A      0.885233  
     228A      0.885261   229A      0.889297   230A      0.891622  
     231A      0.896478   232A      0.897758   233A      0.905962  
     234A      0.906852   235A      0.911938   236A      0.918472  
     237A      0.919003   238A      0.931385   239A      0.933365  
     240A      0.936220   241A      0.939911   242A      0.940361  
     243A      0.944416   244A      0.944682   245A      0.952930  
     246A      0.958672   247A      0.965142   248A      0.965524  
     249A      0.971424   250A      0.973163   251A      0.978170  
     252A      0.986561   253A      0.987368   254A      0.988971  
     255A      0.993006   256A      0.995989   257A      1.003217  
     258A      1.014375   259A      1.015554   260A      1.022035  
     261A      1.024193   262A      1.030195   263A      1.038678  
     264A      1.045949   265A      1.053216   266A      1.054533  
     267A      1.066649   268A      1.071723   269A      1.073401  
     270A      1.075755   271A      1.076090   272A      1.084962  
     273A      1.097998   274A      1.098198   275A      1.102325  
     276A      1.103730   277A      1.111521   278A      1.115261  
     279A      1.119805   280A      1.123390   281A      1.130943  
     282A      1.134532   283A      1.139722   284A      1.148334  
     285A      1.150202   286A      1.152225   287A      1.153119  
     288A      1.155148   289A      1.165132   290A      1.171332  
     291A      1.176855   292A      1.181916   293A      1.186989  
     294A      1.188019   295A      1.190031   296A      1.195493  
     297A      1.208954   298A      1.211615   299A      1.214989  
     300A      1.220130   301A      1.222632   302A      1.222749  
     303A      1.230760   304A      1.236501   305A      1.238411  
     306A      1.243469   307A      1.253607   308A      1.256666  
     309A      1.262009   310A      1.274666   311A      1.278798  
     312A      1.290569   313A      1.296686   314A      1.300519  
     315A      1.307052   316A      1.307749   317A      1.320403  
     318A      1.322531   319A      1.325503   320A      1.333136  
     321A      1.348467   322A      1.351207   323A      1.351982  
     324A      1.352030   325A      1.363873   326A      1.374431  
     327A      1.378159   328A      1.388941   329A      1.389957  
     330A      1.390607   331A      1.403778   332A      1.404687  
     333A      1.410463   334A      1.416985   335A      1.427923  
     336A      1.435363   337A      1.440778   338A      1.448163  
     339A      1.459764   340A      1.467568   341A      1.469860  
     342A      1.477036   343A      1.489088   344A      1.491324  
     345A      1.495289   346A      1.502467   347A      1.505620  
     348A      1.508780   349A      1.519425   350A      1.529244  
     351A      1.532049   352A      1.533345   353A      1.544262  
     354A      1.544887   355A      1.555318   356A      1.560650  
     357A      1.565716   358A      1.575555   359A      1.584336  
     360A      1.593496   361A      1.596674   362A      1.605707  
     363A      1.609726   364A      1.624173   365A      1.624970  
     366A      1.639272   367A      1.648069   368A      1.651244  
     369A      1.664346   370A      1.673174   371A      1.680945  
     372A      1.681252   373A      1.685710   374A      1.694020  
     375A      1.698889   376A      1.699005   377A      1.710615  
     378A      1.714539   379A      1.717855   380A      1.728814  
     381A      1.739342   382A      1.743132   383A      1.751262  
     384A      1.751778   385A      1.753913   386A      1.773967  
     387A      1.777097   388A      1.778299   389A      1.791660  
     390A      1.793981   391A      1.806512   392A      1.813311  
     393A      1.827277   394A      1.832952   395A      1.840870  
     396A      1.847412   397A      1.851348   398A      1.854536  
     399A      1.872781   400A      1.881297   401A      1.883105  
     402A      1.888039   403A      1.892921   404A      1.895907  
     405A      1.902005   406A      1.902638   407A      1.916644  
     408A      1.932245   409A      1.932378   410A      1.936777  
     411A      1.945272   412A      1.955697   413A      1.961017  
     414A      1.981181   415A      1.993206   416A      2.004190  
     417A      2.010627   418A      2.011240   419A      2.018047  
     420A      2.032261   421A      2.036438   422A      2.043091  
     423A      2.058846   424A      2.077037   425A      2.092677  
     426A      2.100015   427A      2.117783   428A      2.118559  
     429A      2.133815   430A      2.136892   431A      2.141079  
     432A      2.146457   433A      2.150366   434A      2.157646  
     435A      2.165434   436A      2.167207   437A      2.181719  
     438A      2.194052   439A      2.195383   440A      2.224554  
     441A      2.228522   442A      2.235239   443A      2.242226  
     444A      2.247238   445A      2.251171   446A      2.261208  
     447A      2.268224   448A      2.282279   449A      2.287055  
     450A      2.292621   451A      2.297885   452A      2.305524  
     453A      2.313376   454A      2.317804   455A      2.337020  
     456A      2.350964   457A      2.351255   458A      2.365170  
     459A      2.367407   460A      2.374834   461A      2.386325  
     462A      2.393851   463A      2.413582   464A      2.425243  
     465A      2.431524   466A      2.449343   467A      2.460701  
     468A      2.470431   469A      2.473168   470A      2.489094  
     471A      2.493349   472A      2.494822   473A      2.508519  
     474A      2.508603   475A      2.510662   476A      2.517595  
     477A      2.527789   478A      2.539161   479A      2.540387  
     480A      2.559872   481A      2.562286   482A      2.563668  
     483A      2.572835   484A      2.574177   485A      2.588246  
     486A      2.593661   487A      2.597097   488A      2.605186  
     489A      2.613806   490A      2.617433   491A      2.618369  
     492A      2.636861   493A      2.638300   494A      2.645601  
     495A      2.667354   496A      2.686323   497A      2.686865  
     498A      2.689403   499A      2.695025   500A      2.701065  
     501A      2.701654   502A      2.715772   503A      2.742180  
     504A      2.742503   505A      2.752692   506A      2.759693  
     507A      2.765537   508A      2.766548   509A      2.773818  
     510A      2.777128   511A      2.783784   512A      2.792624  
     513A      2.800863   514A      2.807936   515A      2.823558  
     516A      2.826689   517A      2.844937   518A      2.845677  
     519A      2.852143   520A      2.859143   521A      2.869292  
     522A      2.889036   523A      2.890070   524A      2.900974  
     525A      2.936458   526A      2.938032   527A      2.943101  
     528A      2.953555   529A      2.965414   530A      2.976628  
     531A      2.985611   532A      2.998463   533A      3.003711  
     534A      3.014616   535A      3.020238   536A      3.026903  
     537A      3.041593   538A      3.043601   539A      3.056483  
     540A      3.061621   541A      3.074916   542A      3.080346  
     543A      3.130772   544A      3.145313   545A      3.158902  
     546A      3.181226   547A      3.191255   548A      3.204798  
     549A      3.205874   550A      3.213485   551A      3.222297  
     552A      3.224400   553A      3.241537   554A      3.258744  
     555A      3.271649   556A      3.272404   557A      3.283585  
     558A      3.288660   559A      3.302298   560A      3.309670  
     561A      3.317413   562A      3.358393   563A      3.373670  
     564A      3.373879   565A      3.376470   566A      3.425986  
     567A      3.431980   568A      3.446860   569A      3.468213  
     570A      3.474978   571A      3.480225   572A      3.501490  
     573A      3.516223   574A      3.536808   575A      3.537276  
     576A      3.565872   577A      3.580004   578A      3.602382  
     579A      3.608287   580A      3.615467   581A      3.633365  
     582A      3.645545   583A      3.646208   584A      3.658517  
     585A      3.677989   586A      3.682388   587A      3.696125  
     588A      3.703362   589A      3.730370   590A      3.734600  
     591A      3.744152   592A      3.746600   593A      3.767024  
     594A      3.769614   595A      3.780945   596A      3.787526  
     597A      3.803275   598A      3.828851   599A      3.833177  
     600A      3.849468   601A      3.858325   602A      3.893360  
     603A      3.906602   604A      3.930542   605A      3.951054  
     606A      3.964546   607A      3.976622   608A      3.991486  
     609A      3.992217   610A      4.007397   611A      4.015255  
     612A      4.021798   613A      4.057352   614A      4.063137  
     615A      4.070213   616A      4.089542   617A      4.090004  
     618A      4.109362   619A      4.118520   620A      4.126911  
     621A      4.138209   622A      4.143345   623A      4.149242  
     624A      4.180183   625A      4.194012   626A      4.203434  
     627A      4.205147   628A      4.217595   629A      4.219953  
     630A      4.220336   631A      4.249326   632A      4.257419  
     633A      4.257654   634A      4.260903   635A      4.288200  
     636A      4.298193   637A      4.312584   638A      4.326208  
     639A      4.335384   640A      4.336091   641A      4.350039  
     642A      4.351428   643A      4.358515   644A      4.383693  
     645A      4.390274   646A      4.400441   647A      4.406743  
     648A      4.420533   649A      4.434834   650A      4.436325  
     651A      4.449470   652A      4.463009   653A      4.495089  
     654A      4.497160   655A      4.514350   656A      4.526172  
     657A      4.552540   658A      4.580163   659A      4.584244  
     660A      4.605007   661A      4.613576   662A      4.627649  
     663A      4.630947   664A      4.638608   665A      4.661452  
     666A      4.686702   667A      4.695211   668A      4.708215  
     669A      4.717270   670A      4.723620   671A      4.747522  
     672A      4.753460   673A      4.758303   674A      4.771192  
     675A      4.777431   676A      4.811723   677A      4.818476  
     678A      4.832895   679A      4.844812   680A      4.854898  
     681A      4.866194   682A      4.878914   683A      4.884604  
     684A      4.890680   685A      4.908417   686A      4.908980  
     687A      4.923527   688A      4.928201   689A      4.939991  
     690A      4.959259   691A      4.994436   692A      4.999280  
     693A      5.002050   694A      5.011035   695A      5.015358  
     696A      5.020811   697A      5.031684   698A      5.033814  
     699A      5.056426   700A      5.068694   701A      5.075559  
     702A      5.091835   703A      5.108068   704A      5.118546  
     705A      5.127280   706A      5.127754   707A      5.138313  
     708A      5.141094   709A      5.156395   710A      5.176783  
     711A      5.205798   712A      5.216517   713A      5.245010  
     714A      5.253440   715A      5.268727   716A      5.269241  
     717A      5.291581   718A      5.303853   719A      5.309443  
     720A      5.321397   721A      5.370343   722A      5.392357  
     723A      5.397306   724A      5.420573   725A      5.437017  
     726A      5.445137   727A      5.468665   728A      5.482212  
     729A      5.490280   730A      5.501017   731A      5.508896  
     732A      5.521782   733A      5.526027   734A      5.532848  
     735A      5.550011   736A      5.555227   737A      5.573020  
     738A      5.588801   739A      5.600741   740A      5.625256  
     741A      5.649004   742A      5.677692   743A      5.692811  
     744A      5.697150   745A      5.710156   746A      5.752603  
     747A      5.771451   748A      5.771751   749A      5.794721  
     750A      5.800582   751A      5.816646   752A      5.826622  
     753A      5.859210   754A      5.861600   755A      5.876028  
     756A      5.912125   757A      5.922226   758A      5.934968  
     759A      5.965582   760A      5.983981   761A      5.993005  
     762A      6.002877   763A      6.027638   764A      6.044454  
     765A      6.056353   766A      6.079373   767A      6.111695  
     768A      6.121840   769A      6.157238   770A      6.161730  
     771A      6.202902   772A      6.225989   773A      6.239712  
     774A      6.244254   775A      6.267180   776A      6.280883  
     777A      6.334917   778A      6.403267   779A      6.453006  
     780A      6.482831   781A      6.503608   782A      6.503706  
     783A      6.541436   784A      6.569335   785A      6.580060  
     786A      6.599490   787A      6.605974   788A      6.619126  
     789A      6.653358   790A      6.653937   791A      6.664524  
     792A      6.675248   793A      6.709295   794A      6.734536  
     795A      6.739437   796A      6.754426   797A      6.789093  
     798A      6.800235   799A      6.819935   800A      6.835205  
     801A      6.848792   802A      6.849489   803A      6.883093  
     804A      6.886723   805A      6.898647   806A      6.916211  
     807A      6.941531   808A      6.952408   809A      6.959359  
     810A      6.998978   811A      7.002023   812A      7.107633  
     813A      7.111401   814A      7.128424   815A      7.136523  
     816A      7.196482   817A      7.252269   818A      7.286039  
     819A      7.337749   820A      7.350531   821A      7.372879  
     822A      7.372963   823A      7.379759   824A      7.393258  
     825A      7.403379   826A      7.442757   827A      7.468839  
     828A      7.531121   829A      7.553227   830A      7.575155  
     831A      7.579454   832A      7.603665   833A      7.632379  
     834A      7.642787   835A      7.642859   836A      7.657116  
     837A      7.665395   838A      7.680888   839A      7.687297  
     840A      7.726151   841A      7.737013   842A      7.764380  
     843A      7.818549   844A      7.829012   845A      7.834725  
     846A      7.867499   847A      7.871567   848A      7.899274  
     849A      7.908130   850A      7.909474   851A      7.943473  
     852A      7.961082   853A      7.985485   854A      8.001734  
     855A      8.025358   856A      8.030848   857A      8.040516  
     858A      8.122447   859A      8.174295   860A      8.190999  
     861A      8.246144   862A      8.286543   863A      8.345544  
     864A      8.412255   865A      8.597231   866A      8.682239  
     867A      8.744625   868A      8.780583   869A      8.889247  
     870A      9.050147   871A      9.097101   872A      9.217023  
     873A      9.307465   874A      9.469375   875A      9.512667  
     876A      9.551362   877A      9.751546   878A      9.865352  
     879A      9.951902   880A      9.961521   881A     10.053992  
     882A     10.108979   883A     10.154930   884A     10.242542  
     885A     10.396589   886A     10.456510   887A     10.511342  
     888A     10.545143   889A     10.994880   890A     11.266490  
     891A     11.320577   892A     11.565084   893A     11.989852  
     894A     12.038060   895A     12.059756   896A     12.091188  
     897A     12.271726   898A     12.504917   899A     12.702681  
     900A     12.891653   901A     13.348280   902A     13.555293  
     903A     14.178091   904A     14.233201   905A     16.045459  
     906A     16.158020   907A     16.300907   908A     16.918479  
     909A     18.381587   910A     19.538098   911A     20.029706  
     912A     20.670434   913A     51.679177   914A     51.950178  
     915A     54.268397   916A     55.078286   917A     60.359505  
     918A     61.396182   919A     69.206176   920A     69.569719  

    Final Occupation by Irrep:
              A 
    DOCC [    29 ]

  @DF-RHF Final Energy:  -412.62267551670368

   => Energetics <=

    Nuclear Repulsion Energy =            357.2523312500546808
    One-Electron Energy =               -1270.8947786104617990
    Two-Electron Energy =                 501.0197718437034382
    Total Energy =                       -412.6226755167036799

Computation Completed


Properties will be evaluated at   0.000000,   0.000000,   0.000000 [a0]

Properties computed using the SCF density matrix

  Nuclear Dipole Moment: [e a0]
     X:  -387.2262      Y:   109.1143      Z:     0.0480

  Electronic Dipole Moment: [e a0]
     X:   385.3367      Y:  -108.5835      Z:    -0.0496

  Dipole Moment: [e a0]
     X:    -1.8896      Y:     0.5308      Z:    -0.0016     Total:     1.9627

  Dipole Moment: [D]
     X:    -4.8028      Y:     1.3493      Z:    -0.0041     Total:     4.9887


*** tstop() called on genome.bme.utexas.edu at Fri Apr 24 11:28:39 2020
Module time:
	user time   =     928.07 seconds =      15.47 minutes
	system time =      17.31 seconds =       0.29 minutes
	total time  =        156 seconds =       2.60 minutes
Total time:
	user time   =    2480.06 seconds =      41.33 minutes
	system time =      44.09 seconds =       0.73 minutes
	total time  =        409 seconds =       6.82 minutes

  //>>>>>>>>>>>>>>>>>>>>>>>>>>>>>>>>>>>//
  //            Monomer B HF           //
  //<<<<<<<<<<<<<<<<<<<<<<<<<<<<<<<<<<<//


*** tstart() called on genome.bme.utexas.edu
*** at Fri Apr 24 11:28:39 2020

   => Loading Basis Set <=

    Name: AUG-CC-PVTZ
    Role: ORBITAL
    Keyword: BASIS
    atoms 1, 9, 13, 21                entry N          line   285 file /home/liuchw/anaconda3/envs/psi4env/share/psi4/basis/aug-cc-pvtz.gbs 
    atoms 2, 6, 8, 10, 14, 18, 20, 22 entry H          line    40 file /home/liuchw/anaconda3/envs/psi4env/share/psi4/basis/aug-cc-pvtz.gbs 
    atoms 3, 5, 7, 11, 15, 17, 19, 23 entry C          line   239 file /home/liuchw/anaconda3/envs/psi4env/share/psi4/basis/aug-cc-pvtz.gbs 
    atoms 4, 12, 16, 24               entry O          line   331 file /home/liuchw/anaconda3/envs/psi4env/share/psi4/basis/aug-cc-pvtz.gbs 


         ---------------------------------------------------------
                                   SCF
               by Justin Turney, Rob Parrish, Andy Simmonett
                          and Daniel G. A. Smith
                              RHF Reference
                        8 Threads,  76293 MiB Core
         ---------------------------------------------------------

  ==> Geometry <==

    Molecular point group: c1
    Full point group: C1

    Geometry (in Angstrom), charge = 0, multiplicity = 1:

       Center              X                  Y                   Z               Mass       
    ------------   -----------------  -----------------  -----------------  -----------------
      Gh(N)          -2.541144026896     1.017916000444     0.001168043392    14.003074004430
      Gh(H)          -1.512724026896     1.069146000444     0.001868043392     1.007825032230
      Gh(C)          -3.107964026896    -0.245283999556     0.001748043392    12.000000000000
      Gh(O)          -2.405244026896    -1.258373999556     0.002878043392    15.994914619570
      Gh(C)          -4.554764026896    -0.267183999556     0.000728043392    12.000000000000
      Gh(H)          -5.060734026896    -1.216693999556     0.001078043392     1.007825032230
      Gh(C)          -5.233164026896     0.899236000444    -0.000671956608    12.000000000000
      Gh(H)          -6.312044026896     0.945926000444    -0.001501956608     1.007825032230
      Gh(N)          -4.585984026896     2.100556000444    -0.001171956608    14.003074004430
      Gh(H)          -5.094984026896     2.969026000444    -0.002241956608     1.007825032230
      Gh(C)          -3.202624026896     2.232166000444    -0.000271956608    12.000000000000
      Gh(O)          -2.650984026896     3.312186000444    -0.000751956608    15.994914619570
         N            3.938385973104    -0.167323999556    -0.000091956608    14.003074004430
         H            4.385625973104     0.739246000444     0.000298043392     1.007825032230
         C            4.794435973104    -1.281943999556    -0.001591956608    12.000000000000
         O            6.003885973104    -1.130243999556    -0.002341956608    15.994914619570
         C            4.080215973104    -2.544113999556    -0.002091956608    12.000000000000
         H            4.646795973104    -3.459143999556    -0.003231956608     1.007825032230
         C            2.730045973104    -2.547933999556    -0.001131956608    12.000000000000
         H            2.153085973104    -3.460903999556    -0.001451956608     1.007825032230
         N            1.992055973104    -1.397053999556     0.000318043392    14.003074004430
         H            0.965715973104    -1.418493999556     0.000988043392     1.007825032230
         C            2.564825973104    -0.152383999556     0.000868043392    12.000000000000
         O            1.914505973104     0.888826000444     0.002098043392    15.994914619570

  Running in c1 symmetry.

  Rotational constants: A =      0.04584  B =      0.00502  C =      0.00453 [cm^-1]
  Rotational constants: A =   1374.27795  B =    150.61113  C =    135.73551 [MHz]
  Nuclear repulsion =  357.228402513493393

  Charge       = 0
  Multiplicity = 1
  Electrons    = 58
  Nalpha       = 29
  Nbeta        = 29

  ==> Algorithm <==

  SCF Algorithm Type is DF.
  DIIS enabled.
  MOM disabled.
  Fractional occupation disabled.
  Guess Type is SAD.
  Energy threshold   = 1.00e-08
  Density threshold  = 1.00e-08
  Integral threshold = 0.00e+00

  ==> Primary Basis <==

  Basis Set: AUG-CC-PVTZ
    Blend: AUG-CC-PVTZ
    Number of shells: 296
    Number of basis function: 920
    Number of Cartesian functions: 1080
    Spherical Harmonics?: true
    Max angular momentum: 3

   => Loading Basis Set <=

    Name: (AUG-CC-PVTZ AUX)
    Role: JKFIT
    Keyword: DF_BASIS_SCF
    atoms 1, 9, 13, 21                entry N          line   224 file /home/liuchw/anaconda3/envs/psi4env/share/psi4/basis/aug-cc-pvtz-jkfit.gbs 
    atoms 2, 6, 8, 10, 14, 18, 20, 22 entry H          line    70 file /home/liuchw/anaconda3/envs/psi4env/share/psi4/basis/aug-cc-pvtz-jkfit.gbs 
    atoms 3, 5, 7, 11, 15, 17, 19, 23 entry C          line   162 file /home/liuchw/anaconda3/envs/psi4env/share/psi4/basis/aug-cc-pvtz-jkfit.gbs 
    atoms 4, 12, 16, 24               entry O          line   286 file /home/liuchw/anaconda3/envs/psi4env/share/psi4/basis/aug-cc-pvtz-jkfit.gbs 

  ==> Pre-Iterations <==

   -------------------------------------------------------
    Irrep   Nso     Nmo     Nalpha   Nbeta   Ndocc  Nsocc
   -------------------------------------------------------
     A        920     920       0       0       0       0
   -------------------------------------------------------
    Total     920     920      29      29      29       0
   -------------------------------------------------------

  ==> Integral Setup <==

  ==> DiskDFJK: Density-Fitted J/K Matrices <==

    J tasked:                  Yes
    K tasked:                  Yes
    wK tasked:                  No
    OpenMP threads:              8
    Integrals threads:           8
    Memory [MiB]:            57220
    Algorithm:                Core
    Integral Cache:           LOAD
    Schwarz Cutoff:          1E-12
    Fitting Condition:       1E-10

   => Auxiliary Basis Set <=

  Basis Set: (AUG-CC-PVTZ AUX)
    Blend: AUG-CC-PVTZ-JKFIT
    Number of shells: 592
    Number of basis function: 2032
    Number of Cartesian functions: 2536
    Spherical Harmonics?: true
    Max angular momentum: 4

  Minimum eigenvalue in the overlap matrix is 2.6899064497E-06.
  Using Symmetric Orthogonalization.

  SCF Guess: Superposition of Atomic Densities via on-the-fly atomic UHF.

  ==> Iterations <==

                           Total Energy        Delta E     RMS |[F,P]|

   @DF-RHF iter SAD:  -411.97122723337668   -4.11971e+02   0.00000e+00 
   @DF-RHF iter   1:  -412.37587661651219   -4.04649e-01   8.10757e-04 DIIS
   @DF-RHF iter   2:  -412.53881007634590   -1.62933e-01   5.37913e-04 DIIS
   @DF-RHF iter   3:  -412.61769301197177   -7.88829e-02   9.70118e-05 DIIS
   @DF-RHF iter   4:  -412.62193339772620   -4.24039e-03   3.98063e-05 DIIS
   @DF-RHF iter   5:  -412.62281574124552   -8.82344e-04   8.11177e-06 DIIS
   @DF-RHF iter   6:  -412.62291998675624   -1.04246e-04   4.05820e-06 DIIS
   @DF-RHF iter   7:  -412.62293831709621   -1.83303e-05   1.65309e-06 DIIS
   @DF-RHF iter   8:  -412.62294158290604   -3.26581e-06   5.47636e-07 DIIS
   @DF-RHF iter   9:  -412.62294182912194   -2.46216e-07   2.33286e-07 DIIS
   @DF-RHF iter  10:  -412.62294188838968   -5.92677e-08   7.83763e-08 DIIS
   @DF-RHF iter  11:  -412.62294189604421   -7.65453e-09   2.57795e-08 DIIS
   @DF-RHF iter  12:  -412.62294189664232   -5.98106e-10   8.45217e-09 DIIS
  Energy and wave function converged.


  ==> Post-Iterations <==

    Orbital Energies [Eh]
    ---------------------

    Doubly Occupied:                                                      

       1A    -20.543217     2A    -20.542848     3A    -15.649974  
       4A    -15.628053     5A    -11.417660     6A    -11.381931  
       7A    -11.343117     8A    -11.258061     9A     -1.432881  
      10A     -1.397513    11A     -1.313981    12A     -1.247108  
      13A     -1.090459    14A     -0.937731    15A     -0.901525  
      16A     -0.807758    17A     -0.767853    18A     -0.715672  
      19A     -0.677498    20A     -0.670743    21A     -0.649795  
      22A     -0.615723    23A     -0.602581    24A     -0.571660  
      25A     -0.524818    26A     -0.481658    27A     -0.449402  
      28A     -0.435904    29A     -0.371046  

    Virtual:                                                              

      30A      0.009343    31A      0.021380    32A      0.031628  
      33A      0.034877    34A      0.041297    35A      0.048501  
      36A      0.048624    37A      0.052811    38A      0.061042  
      39A      0.062605    40A      0.068417    41A      0.076782  
      42A      0.077117    43A      0.087063    44A      0.088423  
      45A      0.090965    46A      0.096959    47A      0.097429  
      48A      0.099995    49A      0.101644    50A      0.101675  
      51A      0.113308    52A      0.115926    53A      0.116334  
      54A      0.121479    55A      0.125898    56A      0.129742  
      57A      0.131184    58A      0.133325    59A      0.138506  
      60A      0.144937    61A      0.145005    62A      0.147142  
      63A      0.155501    64A      0.156877    65A      0.161008  
      66A      0.164151    67A      0.171056    68A      0.172572  
      69A      0.174705    70A      0.175763    71A      0.177594  
      72A      0.186453    73A      0.193330    74A      0.195041  
      75A      0.198288    76A      0.202137    77A      0.207441  
      78A      0.213327    79A      0.216437    80A      0.221941  
      81A      0.223576    82A      0.232563    83A      0.232801  
      84A      0.233644    85A      0.239354    86A      0.241583  
      87A      0.251234    88A      0.257023    89A      0.260176  
      90A      0.266648    91A      0.268772    92A      0.273734  
      93A      0.274550    94A      0.276870    95A      0.283486  
      96A      0.285130    97A      0.286186    98A      0.294278  
      99A      0.298352   100A      0.298688   101A      0.301720  
     102A      0.307251   103A      0.308376   104A      0.311753  
     105A      0.320084   106A      0.323836   107A      0.325694  
     108A      0.328400   109A      0.333489   110A      0.334671  
     111A      0.336360   112A      0.341507   113A      0.352095  
     114A      0.354508   115A      0.360748   116A      0.363207  
     117A      0.365130   118A      0.371386   119A      0.374448  
     120A      0.379334   121A      0.381626   122A      0.382313  
     123A      0.389906   124A      0.393561   125A      0.396670  
     126A      0.398330   127A      0.401055   128A      0.404601  
     129A      0.406041   130A      0.409202   131A      0.413226  
     132A      0.415849   133A      0.423457   134A      0.424973  
     135A      0.428653   136A      0.428893   137A      0.431077  
     138A      0.435854   139A      0.442733   140A      0.443199  
     141A      0.449502   142A      0.458487   143A      0.458627  
     144A      0.467865   145A      0.469384   146A      0.472699  
     147A      0.477824   148A      0.480136   149A      0.484099  
     150A      0.489578   151A      0.494064   152A      0.497554  
     153A      0.503178   154A      0.506195   155A      0.508384  
     156A      0.511801   157A      0.513173   158A      0.518129  
     159A      0.527624   160A      0.530944   161A      0.532599  
     162A      0.532818   163A      0.545312   164A      0.551770  
     165A      0.565372   166A      0.570948   167A      0.572949  
     168A      0.574320   169A      0.591234   170A      0.596684  
     171A      0.598684   172A      0.604871   173A      0.607011  
     174A      0.614698   175A      0.620321   176A      0.623262  
     177A      0.625367   178A      0.627494   179A      0.633854  
     180A      0.637090   181A      0.640284   182A      0.647587  
     183A      0.647868   184A      0.652947   185A      0.665556  
     186A      0.670828   187A      0.673365   188A      0.675963  
     189A      0.680860   190A      0.695724   191A      0.697091  
     192A      0.697890   193A      0.708099   194A      0.724272  
     195A      0.726673   196A      0.729157   197A      0.733267  
     198A      0.736486   199A      0.743192   200A      0.750628  
     201A      0.758517   202A      0.759850   203A      0.760090  
     204A      0.770745   205A      0.772480   206A      0.779577  
     207A      0.780476   208A      0.782101   209A      0.789785  
     210A      0.801860   211A      0.805026   212A      0.808780  
     213A      0.815254   214A      0.818546   215A      0.819000  
     216A      0.822843   217A      0.823524   218A      0.837557  
     219A      0.839060   220A      0.842300   221A      0.845775  
     222A      0.854280   223A      0.861227   224A      0.862157  
     225A      0.863973   226A      0.870622   227A      0.876701  
     228A      0.883840   229A      0.884862   230A      0.889646  
     231A      0.893578   232A      0.897421   233A      0.903998  
     234A      0.905728   235A      0.907728   236A      0.913256  
     237A      0.917132   238A      0.920876   239A      0.925999  
     240A      0.933653   241A      0.934477   242A      0.938782  
     243A      0.940175   244A      0.943072   245A      0.954132  
     246A      0.955645   247A      0.957488   248A      0.958181  
     249A      0.962597   250A      0.969185   251A      0.972063  
     252A      0.976791   253A      0.980909   254A      0.981326  
     255A      0.985171   256A      0.988677   257A      0.992234  
     258A      0.996553   259A      1.004821   260A      1.014937  
     261A      1.022253   262A      1.034009   263A      1.040763  
     264A      1.043678   265A      1.049081   266A      1.051266  
     267A      1.054494   268A      1.062597   269A      1.067437  
     270A      1.070478   271A      1.076108   272A      1.084991  
     273A      1.090188   274A      1.091772   275A      1.098650  
     276A      1.100572   277A      1.106264   278A      1.108683  
     279A      1.114025   280A      1.119679   281A      1.127341  
     282A      1.134875   283A      1.136002   284A      1.142711  
     285A      1.146241   286A      1.148128   287A      1.152711  
     288A      1.154414   289A      1.161806   290A      1.168329  
     291A      1.177793   292A      1.179379   293A      1.185589  
     294A      1.191751   295A      1.192638   296A      1.193683  
     297A      1.201566   298A      1.206566   299A      1.207927  
     300A      1.214167   301A      1.216141   302A      1.232085  
     303A      1.234318   304A      1.236228   305A      1.238461  
     306A      1.243670   307A      1.252180   308A      1.258447  
     309A      1.270731   310A      1.280835   311A      1.286082  
     312A      1.290266   313A      1.295786   314A      1.301049  
     315A      1.302131   316A      1.307221   317A      1.309486  
     318A      1.326974   319A      1.336083   320A      1.336647  
     321A      1.339631   322A      1.342958   323A      1.353636  
     324A      1.355189   325A      1.360467   326A      1.369825  
     327A      1.372163   328A      1.373758   329A      1.387003  
     330A      1.388786   331A      1.390396   332A      1.402465  
     333A      1.404045   334A      1.412739   335A      1.413617  
     336A      1.418141   337A      1.426464   338A      1.438381  
     339A      1.446297   340A      1.448690   341A      1.465451  
     342A      1.470453   343A      1.475998   344A      1.477156  
     345A      1.490706   346A      1.499470   347A      1.503197  
     348A      1.510717   349A      1.515969   350A      1.516140  
     351A      1.529608   352A      1.536343   353A      1.538361  
     354A      1.542130   355A      1.551247   356A      1.555205  
     357A      1.567029   358A      1.569800   359A      1.584391  
     360A      1.587736   361A      1.597368   362A      1.600962  
     363A      1.603348   364A      1.605409   365A      1.623419  
     366A      1.632250   367A      1.649660   368A      1.649865  
     369A      1.652478   370A      1.667124   371A      1.669525  
     372A      1.672729   373A      1.686688   374A      1.693294  
     375A      1.700262   376A      1.701038   377A      1.704748  
     378A      1.714162   379A      1.717476   380A      1.723106  
     381A      1.735861   382A      1.740796   383A      1.743550  
     384A      1.746836   385A      1.750553   386A      1.762657  
     387A      1.765324   388A      1.767791   389A      1.776399  
     390A      1.789041   391A      1.794241   392A      1.802468  
[...]
     477A      2.527328   478A      2.532578   479A      2.545383  
     480A      2.547597   481A      2.549899   482A      2.570623  
     483A      2.570849   484A      2.572466   485A      2.579821  
     486A      2.593542   487A      2.593869   488A      2.601620  
     489A      2.608598   490A      2.614116   491A      2.618181  
     492A      2.625186   493A      2.637846   494A      2.645810  
     495A      2.653668   496A      2.670415   497A      2.683226  
     498A      2.690483   499A      2.694220   500A      2.701270  
     501A      2.703790   502A      2.721188   503A      2.730447  
     504A      2.731217   505A      2.733400   506A      2.746535  
     507A      2.747203   508A      2.761599   509A      2.766042  
     510A      2.775842   511A      2.776561   512A      2.782460  
     513A      2.794320   514A      2.810675   515A      2.828111  
     516A      2.830102   517A      2.847256   518A      2.848575  
     519A      2.854694   520A      2.865896   521A      2.873031  
     522A      2.882350   523A      2.882922   524A      2.891008  
     525A      2.924344   526A      2.936305   527A      2.942200  
     528A      2.964861   529A      2.968247   530A      2.974311  
     531A      2.985125   532A      2.988006   533A      3.001698  
     534A      3.005112   535A      3.018083   536A      3.026764  
     537A      3.033479   538A      3.037997   539A      3.046370  
     540A      3.069306   541A      3.073684   542A      3.081066  
     543A      3.124306   544A      3.130528   545A      3.146621  
     546A      3.165805   547A      3.177981   548A      3.193539  
     549A      3.201172   550A      3.203054   551A      3.208057  
     552A      3.234209   553A      3.240298   554A      3.249095  
     555A      3.266698   556A      3.267263   557A      3.272053  
     558A      3.284643   559A      3.310975   560A      3.312481  
     561A      3.317279   562A      3.361367   563A      3.363112  
     564A      3.366320   565A      3.368934   566A      3.425437  
     567A      3.428905   568A      3.440719   569A      3.453469  
     570A      3.472052   571A      3.479416   572A      3.485850  
     573A      3.499204   574A      3.532545   575A      3.532896  
     576A      3.546238   577A      3.567269   578A      3.601698  
     579A      3.610176   580A      3.614829   581A      3.632734  
     582A      3.638309   583A      3.640346   584A      3.643190  
     585A      3.658799   586A      3.681660   587A      3.693176  
     588A      3.698270   589A      3.727449   590A      3.732777  
     591A      3.738539   592A      3.750923   593A      3.763733  
     594A      3.767484   595A      3.786119   596A      3.789355  
     597A      3.802276   598A      3.821923   599A      3.833839  
     600A      3.834661   601A      3.859005   602A      3.893899  
     603A      3.900027   604A      3.928828   605A      3.946332  
     606A      3.948524   607A      3.970515   608A      3.976426  
     609A      3.987377   610A      4.007792   611A      4.009650  
     612A      4.022885   613A      4.053588   614A      4.054534  
     615A      4.072549   616A      4.080197   617A      4.081661  
     618A      4.087473   619A      4.116919   620A      4.121101  
     621A      4.124659   622A      4.130538   623A      4.151718  
     624A      4.179613   625A      4.189093   626A      4.191566  
     627A      4.201576   628A      4.208704   629A      4.214277  
     630A      4.225207   631A      4.236759   632A      4.251268  
     633A      4.253708   634A      4.259331   635A      4.277439  
     636A      4.295590   637A      4.318848   638A      4.330019  
     639A      4.332837   640A      4.345950   641A      4.346983  
     642A      4.363778   643A      4.368224   644A      4.383674  
     645A      4.391868   646A      4.393383   647A      4.397595  
     648A      4.425135   649A      4.435817   650A      4.441619  
     651A      4.462805   652A      4.464832   653A      4.489909  
     654A      4.496632   655A      4.497956   656A      4.524909  
     657A      4.542724   658A      4.566199   659A      4.585461  
     660A      4.598839   661A      4.605550   662A      4.620366  
     663A      4.627807   664A      4.636764   665A      4.656514  
     666A      4.678235   667A      4.688590   668A      4.700054  
     669A      4.711953   670A      4.725177   671A      4.735207  
     672A      4.745030   673A      4.759340   674A      4.763156  
     675A      4.771291   676A      4.804658   677A      4.805653  
     678A      4.830810   679A      4.837162   680A      4.854288  
     681A      4.863305   682A      4.869431   683A      4.871542  
     684A      4.893432   685A      4.904909   686A      4.907319  
     687A      4.911804   688A      4.927487   689A      4.951877  
     690A      4.954577   691A      4.972213   692A      4.997025  
     693A      5.000726   694A      5.000851   695A      5.011117  
     696A      5.017932   697A      5.018968   698A      5.038451  
     699A      5.048361   700A      5.060116   701A      5.072183  
     702A      5.107475   703A      5.112978   704A      5.116540  
     705A      5.118862   706A      5.119852   707A      5.130939  
     708A      5.136864   709A      5.154896   710A      5.168238  
     711A      5.217872   712A      5.230670   713A      5.231875  
     714A      5.244908   715A      5.251293   716A      5.270409  
     717A      5.289649   718A      5.297437   719A      5.309852  
     720A      5.312056   721A      5.363517   722A      5.374093  
     723A      5.389155   724A      5.412792   725A      5.415907  
     726A      5.434141   727A      5.469089   728A      5.469417  
     729A      5.493297   730A      5.494233   731A      5.512733  
     732A      5.513482   733A      5.522089   734A      5.542425  
     735A      5.542963   736A      5.562077   737A      5.573984  
     738A      5.578669   739A      5.593544   740A      5.629423  
     741A      5.640227   742A      5.665384   743A      5.675898  
     744A      5.683595   745A      5.703787   746A      5.744218  
     747A      5.760005   748A      5.784384   749A      5.798687  
     750A      5.810518   751A      5.820348   752A      5.824383  
     753A      5.853808   754A      5.861616   755A      5.871626  
     756A      5.908369   757A      5.910576   758A      5.913462  
     759A      5.954990   760A      5.978103   761A      5.991414  
     762A      6.005214   763A      6.023184   764A      6.052613  
     765A      6.065002   766A      6.068473   767A      6.097666  
     768A      6.118441   769A      6.128571   770A      6.152020  
     771A      6.207285   772A      6.214428   773A      6.233290  
     774A      6.243955   775A      6.265692   776A      6.292344  
     777A      6.379681   778A      6.397909   779A      6.430142  
     780A      6.461547   781A      6.493602   782A      6.512333  
     783A      6.518715   784A      6.549725   785A      6.568658  
     786A      6.594226   787A      6.601278   788A      6.606561  
     789A      6.634240   790A      6.652176   791A      6.661555  
     792A      6.666592   793A      6.715850   794A      6.722355  
     795A      6.745127   796A      6.766426   797A      6.771893  
     798A      6.799010   799A      6.813556   800A      6.835917  
     801A      6.836851   802A      6.850271   803A      6.877487  
     804A      6.889425   805A      6.889803   806A      6.903578  
     807A      6.937547   808A      6.952787   809A      6.991044  
     810A      7.004869   811A      7.022317   812A      7.104257  
     813A      7.119112   814A      7.129425   815A      7.132856  
     816A      7.205194   817A      7.250919   818A      7.254312  
     819A      7.326738   820A      7.353459   821A      7.373461  
     822A      7.373638   823A      7.382825   824A      7.388566  
     825A      7.402689   826A      7.440729   827A      7.462663  
     828A      7.531120   829A      7.536918   830A      7.570922  
     831A      7.581613   832A      7.598776   833A      7.628646  
     834A      7.639348   835A      7.642285   836A      7.644290  
     837A      7.655545   838A      7.679220   839A      7.682039  
     840A      7.717194   841A      7.742969   842A      7.751473  
     843A      7.816516   844A      7.820967   845A      7.856574  
     846A      7.868332   847A      7.876128   848A      7.897389  
     849A      7.897447   850A      7.929321   851A      7.947390  
     852A      7.975655   853A      7.978516   854A      7.988081  
     855A      8.013717   856A      8.028796   857A      8.036359  
     858A      8.127486   859A      8.152680   860A      8.153733  
     861A      8.250261   862A      8.272468   863A      8.338513  
     864A      8.434301   865A      8.573007   866A      8.673815  
     867A      8.710679   868A      8.728518   869A      8.909994  
     870A      9.042888   871A      9.103959   872A      9.233914  
     873A      9.296889   874A      9.449266   875A      9.514257  
     876A      9.531726   877A      9.758292   878A      9.857593  
     879A      9.939341   880A      9.964135   881A     10.038193  
     882A     10.107434   883A     10.143872   884A     10.263078  
     885A     10.386181   886A     10.426123   887A     10.515263  
     888A     10.532945   889A     11.017032   890A     11.281457  
     891A     11.303778   892A     11.468732   893A     11.968889  
     894A     12.040822   895A     12.044236   896A     12.078969  
     897A     12.316365   898A     12.512465   899A     12.674354  
     900A     12.905163   901A     13.305925   902A     13.562483  
     903A     14.185040   904A     14.202067   905A     15.900784  
     906A     16.049069   907A     16.426253   908A     16.994838  
     909A     18.401054   910A     19.601764   911A     19.829743  
     912A     20.707628   913A     51.829549   914A     51.869694  
     915A     54.349988   916A     55.281785   917A     60.707912  
     918A     60.887200   919A     68.999325   920A     69.736822  

    Final Occupation by Irrep:
              A 
    DOCC [    29 ]

  @DF-RHF Final Energy:  -412.62294189664232

   => Energetics <=

    Nuclear Repulsion Energy =            357.2284025134933927
    One-Electron Energy =               -1270.8463343758801329
    Two-Electron Energy =                 500.9949899657444234
    Total Energy =                       -412.6229418966423168

Computation Completed


Properties will be evaluated at   0.000000,   0.000000,   0.000000 [a0]

Properties computed using the SCF density matrix

  Nuclear Dipole Moment: [e a0]
     X:   381.7787      Y:  -112.7024      Z:    -0.0519

  Electronic Dipole Moment: [e a0]
     X:  -383.1011      Y:   111.1500      Z:     0.0516

  Dipole Moment: [e a0]
     X:    -1.3224      Y:    -1.5524      Z:    -0.0003     Total:     2.0393

  Dipole Moment: [D]
     X:    -3.3611      Y:    -3.9458      Z:    -0.0007     Total:     5.1833


*** tstop() called on genome.bme.utexas.edu at Fri Apr 24 11:31:45 2020
Module time:
	user time   =     970.90 seconds =      16.18 minutes
	system time =      19.11 seconds =       0.32 minutes
	total time  =        186 seconds =       3.10 minutes
Total time:
	user time   =    3451.02 seconds =      57.52 minutes
	system time =      63.20 seconds =       1.05 minutes
	total time  =        595 seconds =       9.92 minutes
  Constructing Basis Sets for SAPT...

   => Loading Basis Set <=

    Name: (AUG-CC-PVTZ AUX)
    Role: RIFIT
    Keyword: DF_BASIS_SAPT
    atoms 1, 9, 13, 21                entry N          line   206 file /home/liuchw/anaconda3/envs/psi4env/share/psi4/basis/aug-cc-pvtz-ri.gbs 
    atoms 2, 6, 8, 10, 14, 18, 20, 22 entry H          line    30 file /home/liuchw/anaconda3/envs/psi4env/share/psi4/basis/aug-cc-pvtz-ri.gbs 
    atoms 3, 5, 7, 11, 15, 17, 19, 23 entry C          line   148 file /home/liuchw/anaconda3/envs/psi4env/share/psi4/basis/aug-cc-pvtz-ri.gbs 
    atoms 4, 12, 16, 24               entry O          line   264 file /home/liuchw/anaconda3/envs/psi4env/share/psi4/basis/aug-cc-pvtz-ri.gbs 


  //>>>>>>>>>>>>>>>>>>>>>>>>>>>>>>>>>>>//
  //               SAPT2+              //
  //<<<<<<<<<<<<<<<<<<<<<<<<<<<<<<<<<<<//


*** tstart() called on genome.bme.utexas.edu
*** at Fri Apr 24 11:31:46 2020

        SAPT2+  
    Ed Hohenstein
     6 June 2009

      Orbital Information
  --------------------------
    NSO        =       920
    NMO        =       920
    NRI        =      2064
    NOCC A     =        29
    NOCC B     =        29
    FOCC A     =         8
    FOCC B     =         8
    NVIR A     =       891
    NVIR B     =       891

    Estimated memory usage: 29132.3 MB

    Natural Orbital Cutoff:   1.000E-06
    Disp(T3) Truncation:            Yes
    CCD (vv|vv) Truncation:         Yes
    MBPT T2 Truncation:             Yes

    Monomer A: 502 virtual orbitals dropped
    Monomer B: 502 virtual orbitals dropped

    Elst10,r            =    -0.005761119752 [Eh]
    Exch10 (S^2)        =     0.000136190121 [Eh]
    Exch10              =     0.000136204541 [Eh]
    Ind20,r (A<-B)      =    -0.000322705608 [Eh]
    Ind20,r (B<-A)      =    -0.000138581596 [Eh]
    Ind20,r             =    -0.000461287204 [Eh]
    Exch-Ind20,r (A<-B) =     0.000015514579 [Eh]
    Exch-Ind20,r (B<-A) =     0.000010849457 [Eh]
    Exch-Ind20,r        =     0.000026364036 [Eh]
    Disp20              =    -0.001099779891 [Eh]
    Disp20 (NO)         =    -0.001055262279 [Eh]
    Exch-Disp20         =     0.000016777261 [Eh]
    Elst12,r            =     0.000963058680 [Eh]
    Exch11              =    -0.000005126986 [Eh]
    Exch12              =     0.000070247480 [Eh]
    Ind22               =    -0.000001126722 [Eh]
    Disp21              =     0.000143855462 [Eh]
    Disp22 (SDQ)        =    -0.000017836455 [Eh]

    (i =   1 of  21)       2033 seconds
    (i =   2 of  21)       4376 seconds
    (i =   3 of  21)       6776 seconds
    (i =   4 of  21)       9248 seconds
    (i =   5 of  21)      11529 seconds
    (i =   6 of  21)      13577 seconds
    (i =   7 of  21)      15801 seconds
    (i =   8 of  21)      18082 seconds
    (i =   9 of  21)      20468 seconds
    (i =  10 of  21)      22837 seconds
    (i =  11 of  21)      25209 seconds
    (i =  12 of  21)      27571 seconds
    (i =  13 of  21)      29843 seconds
    (i =  14 of  21)      32216 seconds
    (i =  15 of  21)      34182 seconds
    (i =  16 of  21)      36428 seconds
    (i =  17 of  21)      38361 seconds
    (i =  18 of  21)      40504 seconds
    (i =  19 of  21)      42349 seconds
    (i =  20 of  21)      44351 seconds
    (i =  21 of  21)      46623 seconds

    Disp220 (T)         =    -0.000137544207 [Eh]

    (i =   1 of  21)       1996 seconds
    (i =   2 of  21)       4339 seconds
    (i =   3 of  21)       6736 seconds
    (i =   4 of  21)       8883 seconds
    (i =   5 of  21)      11248 seconds
    (i =   6 of  21)      13659 seconds
    (i =   7 of  21)      16092 seconds
    (i =   8 of  21)      18119 seconds
    (i =   9 of  21)      20280 seconds
    (i =  10 of  21)      22180 seconds
    (i =  11 of  21)      24143 seconds
    (i =  12 of  21)      26632 seconds
    (i =  13 of  21)      29081 seconds
    (i =  14 of  21)      31349 seconds
    (i =  15 of  21)      33789 seconds
    (i =  16 of  21)      36120 seconds
    (i =  17 of  21)      38487 seconds
    (i =  18 of  21)      40608 seconds
    (i =  19 of  21)      42576 seconds
    (i =  20 of  21)      44593 seconds
    (i =  21 of  21)      46630 seconds

    Disp202 (T)         =    -0.000134981199 [Eh]

    Disp22 (T)          =    -0.000272525405 [Eh]

    Est. Disp220 (T)    =    -0.000143346688 [Eh]
    Est. Disp202 (T)    =    -0.000140675556 [Eh]

    Est. Disp22 (T)     =    -0.000284022244 [Eh]

    SAPT Results 
  --------------------------------------------------------------------------------------------------------
    Electrostatics                 -4.79806107 [mEh]      -3.01082878 [kcal/mol]     -12.59730761 [kJ/mol]
      Elst10,r                     -5.76111975 [mEh]      -3.61515722 [kcal/mol]     -15.12581782 [kJ/mol]
      Elst12,r                      0.96305868 [mEh]       0.60432845 [kcal/mol]       2.52851022 [kJ/mol]

    Exchange                        0.20132504 [mEh]       0.12633337 [kcal/mol]       0.52857881 [kJ/mol]
      Exch10                        0.13620454 [mEh]       0.08546964 [kcal/mol]       0.35760497 [kJ/mol]
      Exch10(S^2)                   0.13619012 [mEh]       0.08546059 [kcal/mol]       0.35756711 [kJ/mol]
      Exch11(S^2)                  -0.00512699 [mEh]      -0.00321723 [kcal/mol]      -0.01346090 [kJ/mol]
      Exch12(S^2)                   0.07024748 [mEh]       0.04408096 [kcal/mol]       0.18443473 [kJ/mol]

    Induction                      -0.47773685 [mEh]      -0.29978440 [kcal/mol]      -1.25429791 [kJ/mol]
      Ind20,r                      -0.46128720 [mEh]      -0.28946209 [kcal/mol]      -1.21110939 [kJ/mol]
      Ind22                        -0.00112672 [mEh]      -0.00070703 [kcal/mol]      -0.00295821 [kJ/mol]
      Exch-Ind20,r                  0.02636404 [mEh]       0.01654368 [kcal/mol]       0.06921877 [kJ/mol]
      Exch-Ind22                    0.00006440 [mEh]       0.00004041 [kcal/mol]       0.00016907 [kJ/mol]
      delta HF,r (2)               -0.04175135 [mEh]      -0.02619937 [kcal/mol]      -0.10961816 [kJ/mol]

    Dispersion                     -1.24100587 [mEh]      -0.77874294 [kcal/mol]      -3.25826045 [kJ/mol]
      Disp20                       -1.09977989 [mEh]      -0.69012230 [kcal/mol]      -2.88747171 [kJ/mol]
      Disp21                        0.14385546 [mEh]       0.09027067 [kcal/mol]       0.37769246 [kJ/mol]
      Disp22 (SDQ)                 -0.01783645 [mEh]      -0.01119254 [kcal/mol]      -0.04682961 [kJ/mol]
      Disp22 (T)                   -0.27252541 [mEh]      -0.17101227 [kcal/mol]      -0.71551535 [kJ/mol]
      Est. Disp22 (T)              -0.28402224 [mEh]      -0.17822665 [kcal/mol]      -0.74570030 [kJ/mol]
      Exch-Disp20                   0.01677726 [mEh]       0.01052789 [kcal/mol]       0.04404869 [kJ/mol]

  Total HF                         -6.10158973 [mEh]      -3.82880536 [kcal/mol]     -16.01972163 [kJ/mol]
  Total SAPT0                      -7.18459236 [mEh]      -4.50839977 [kcal/mol]     -18.86314464 [kJ/mol]
  Total SAPT2                      -6.15747551 [mEh]      -3.86387422 [kcal/mol]     -16.16644973 [kJ/mol]
  Total SAPT2+                     -6.31547875 [mEh]      -3.96302275 [kcal/mol]     -16.58128717 [kJ/mol]

  Special recipe for scaled SAPT0 (see Manual):
    Electrostatics sSAPT0          -5.76111975 [mEh]      -3.61515722 [kcal/mol]     -15.12581782 [kJ/mol]
    Exchange sSAPT0                 0.13620454 [mEh]       0.08546964 [kcal/mol]       0.35760497 [kJ/mol]
    Induction sSAPT0               -0.47666614 [mEh]      -0.29911252 [kcal/mol]      -1.25148679 [kJ/mol]
    Dispersion sSAPT0              -1.08299730 [mEh]      -0.67959107 [kcal/mol]      -2.84340902 [kJ/mol]
  Total sSAPT0                     -7.18457865 [mEh]      -4.50839117 [kcal/mol]     -18.86310866 [kJ/mol]
  --------------------------------------------------------------------------------------------------------

*** tstop() called on genome.bme.utexas.edu at Sat Apr 25 16:00:23 2020
Module time:
	user time   =  637169.93 seconds =   10619.50 minutes
	system time =    5127.77 seconds =      85.46 minutes
	total time  =     102517 seconds =    1708.62 minutes
Total time:
	user time   =  640621.64 seconds =   10677.03 minutes
	system time =    5190.99 seconds =      86.52 minutes
	total time  =     103113 seconds =    1718.55 minutes

    Psi4 stopped on: Saturday, 25 April 2020 04:00PM
    Psi4 wall time for execution: 1 day, 4:38:32.70

*** Psi4 exiting successfully. Buy a developer a beer!
