    -----------------------------------------------------------------------
          PSI4: An Open-Source Ab Initio Electronic Structure Package
                              PSI 4.0.0-beta4 Driver

    J. M. Turney, A. C. Simmonett, R. M. Parrish, E. G. Hohenstein,
    F. A. Evangelista, J. T. Fermann, B. J. Mintz, L. A. Burns, J. J. Wilke,
    M. L. Abrams, N. J. Russ, M. L. Leininger, C. L. Janssen, E. T. Seidl,
    W. D. Allen, H. F. Schaefer, R. A. King, E. F. Valeev, C. D. Sherrill,
    and T. D. Crawford, WIREs Comput. Mol. Sci., (2011) (doi: 10.1002/wcms.93)

                         Additional Contributions by
    A. E. DePrince, M. Saitow, U. Bozkaya, A. Yu. Sokolov
    -----------------------------------------------------------------------

    Process ID:  21034
    PSI4DATADIR: /home/xzhu216/psi4/psi4-install/share/psi

    Using LocalCommunicator (Number of processes = 1)

    Memory level set to 256.000 MB

  ==> Input File <==

--------------------------------------------------------------------------
#psi4
#
memory 7 gb

molecule Water_Pyridine {
0 1
    O    -0.552831024    -0.101697490    -0.000498788
    H    -0.871759633     0.801792198     0.000144400
    H     0.412659497    -0.001832248    -0.000251810
--
0 1
    N     1.807748824     0.068556260     0.000033170
    C     2.503655463     0.034585468     1.144781016
    H     1.918982912     0.058196410     2.055649044
    C     3.892679055    -0.030596964     1.194777080
    H     4.398585436    -0.055451119     2.149106202
    C     4.603842200    -0.063722762    -0.000134066
    H     5.683682151    -0.115496315    -0.000214494
    C     3.892533902    -0.030663619    -1.194935363
    H     4.398330849    -0.055536646    -2.149333964
    C     2.503503888     0.034531372    -1.144789103
    H     1.918735005     0.058132027    -2.055581656
units angstrom
no_reorient  #important for SAPT in psi4, default
symmetry c1  #important for SAPT in psi4, default
}

set {
basis aug-cc-pVTZ
scf_type DF
freeze_core True
}
energy('sapt2+')
--------------------------------------------------------------------------

  Memory set to   7.000 GiB by Python script.

  //>>>>>>>>>>>>>>>>>>>>>>>>>>>>>>>>>>>//
  //              Dimer HF             //
  //<<<<<<<<<<<<<<<<<<<<<<<<<<<<<<<<<<<//


  No DF_BASIS_SCF auxiliary basis selected, defaulting to aug-cc-pvtz-jkfit


*** tstart() called on node110.bme.utexas.edu
*** at Fri Feb 14 10:58:52 2014


         ---------------------------------------------------------
                                   SCF
            by Justin Turney, Rob Parrish, and Andy Simmonett
                              RHF Reference
                        4 Threads,   7000 MiB Core
         ---------------------------------------------------------

  ==> Geometry <==

    Molecular point group: c1
    Full point group: C1

    Geometry (in Angstrom), charge = 0, multiplicity = 1:

       Center              X                  Y                   Z       
    ------------   -----------------  -----------------  -----------------
           O         -3.058943010343    -0.095084177055    -0.000379215173
           H         -3.377871619343     0.808405510945     0.000263972827
           H         -2.093452489343     0.004781064945    -0.000132237173
           N         -0.698363162343     0.075169572945     0.000152742827
           C         -0.002456523343     0.041198780945     1.144900588827
           H         -0.587129074343     0.064809722945     2.055768616827
           C          1.386567068657    -0.023983651055     1.194896652827
           H          1.892473449657    -0.048837806055     2.149225774827
           C          2.097730213657    -0.057109449055    -0.000014493173
           H          3.177570164657    -0.108883002055    -0.000094921173
           C          1.386421915657    -0.024050306055    -1.194815790173
           H          1.892218862657    -0.048923333055    -2.149214391173
           C         -0.002608098343     0.041144684945    -1.144669530173
           H         -0.587376981343     0.064745339945    -2.055462083173

  Running in c1 symmetry.

  Nuclear repulsion =  278.358352944733440

  Charge       = 0
  Multiplicity = 1
  Electrons    = 52
  Nalpha       = 26
  Nbeta        = 26

  ==> Algorithm <==

  SCF Algorithm Type is DF.
  DIIS enabled.
  MOM disabled.
  Fractional occupation disabled.
  Guess Type is CORE.
  Energy threshold   = 1.00e-08
  Density threshold  = 1.00e-08
  Integral threshold = 0.00e+00

  ==> Primary Basis <==

  Basis Set: AUG-CC-PVTZ
    Number of shells: 161
    Number of basis function: 483
    Number of Cartesian functions: 560
    Spherical Harmonics?: true
    Max angular momentum: 3

  ==> Pre-Iterations <==

   -------------------------------------------------------
    Irrep   Nso     Nmo     Nalpha   Nbeta   Ndocc  Nsocc
   -------------------------------------------------------
     A        483     483       0       0       0       0
   -------------------------------------------------------
    Total     483     483      26      26      26       0
   -------------------------------------------------------

 OEINTS: Wrapper to libmints.
   by Justin Turney

   Calculation information:
      Number of atoms:                  14
      Number of AO shells:             161
      Number of SO shells:             161
      Number of primitives:            287
      Number of atomic orbitals:       560
      Number of basis functions:       483

      Number of irreps:                  1
      Number of functions per irrep: [ 483 ]

      Overlap, kinetic, potential, dipole, and quadrupole integrals
        stored in file 35.

  ==> Integral Setup <==

  ==> DFJK: Density-Fitted J/K Matrices <==

    J tasked:                  Yes
    K tasked:                  Yes
    wK tasked:                  No
    OpenMP threads:              4
    Integrals threads:           4
    Memory (MB):              5006
    Algorithm:                Core
    Integral Cache:           SAVE
    Schwarz Cutoff:          0E+00
    Fitting Condition:       1E-12

   => Auxiliary Basis Set <=

  Basis Set: aug-cc-pvtz-jkfit
    Number of shells: 308
    Number of basis function: 1050
    Number of Cartesian functions: 1302
    Spherical Harmonics?: true
    Max angular momentum: 4

  Minimum eigenvalue in the overlap matrix is 1.9111390947E-06.
  Using Symmetric Orthogonalization.
  SCF Guess: Core (One-Electron) Hamiltonian.

  Guess energy:  -258.46917522139910

  ==> Iterations <==

                        Total Energy        Delta E     RMS |[F,P]|

   @RHF iter   1:  -233.96077274628277   -2.33961e+02   2.77797e-02 
   @RHF iter   2:  -177.16571876318159    5.67951e+01   2.38193e-02 DIIS
   @RHF iter   3:  -257.48431593470190   -8.03186e+01   1.76977e-02 DIIS
   @RHF iter   4:  -270.83622334193564   -1.33519e+01   1.52642e-02 DIIS
   @RHF iter   5:  -296.88074061812330   -2.60445e+01   9.19272e-03 DIIS
   @RHF iter   6:  -321.46323134622077   -2.45825e+01   3.86282e-03 DIIS
   @RHF iter   7:  -322.54406230095998   -1.08083e+00   1.44245e-03 DIIS
   @RHF iter   8:  -322.75999178163812   -2.15929e-01   6.29173e-04 DIIS
   @RHF iter   9:  -322.81721078476045   -5.72190e-02   1.66187e-04 DIIS
   @RHF iter  10:  -322.82170650735753   -4.49572e-03   4.64897e-05 DIIS
   @RHF iter  11:  -322.82207273688124   -3.66230e-04   1.95563e-05 DIIS
   @RHF iter  12:  -322.82214700087087   -7.42640e-05   8.51178e-06 DIIS
   @RHF iter  13:  -322.82216793748574   -2.09366e-05   2.82658e-06 DIIS
   @RHF iter  14:  -322.82217042942153   -2.49194e-06   8.80432e-07 DIIS
   @RHF iter  15:  -322.82217086282498   -4.33403e-07   5.39977e-07 DIIS
   @RHF iter  16:  -322.82217100344718   -1.40622e-07   2.34572e-07 DIIS
   @RHF iter  17:  -322.82217103451939   -3.10722e-08   5.37217e-08 DIIS
   @RHF iter  18:  -322.82217103535487   -8.35485e-10   2.15252e-08 DIIS
   @RHF iter  19:  -322.82217103547777   -1.22895e-10   5.26529e-09 DIIS

  ==> Post-Iterations <==

	Orbital Energies (a.u.)
	-----------------------

	Doubly Occupied:                                                      

	   1A    -20.477107     2A    -15.588702     3A    -11.298126  
	   4A    -11.298108     5A    -11.280398     6A    -11.260008  
	   7A    -11.259960     8A     -1.299783     9A     -1.268845  
	  10A     -1.111999    11A     -1.055103    12A     -0.883056  
	  13A     -0.878996    14A     -0.754655    15A     -0.686457  
	  16A     -0.683689    17A     -0.665934    18A     -0.618317  
	  19A     -0.587639    20A     -0.565929    21A     -0.540068  
	  22A     -0.529220    23A     -0.434482    24A     -0.422718  
	  25A     -0.408371    26A     -0.366761  

	Virtual:                                                              

	  27A      0.020355    28A      0.029543    29A      0.035233  
	  30A      0.048505    31A      0.049420    32A      0.061293  
	  33A      0.069454    34A      0.076101    35A      0.086416  
	  36A      0.087687    37A      0.099919    38A      0.102315  
	  39A      0.105157    40A      0.109769    41A      0.111054  
	  42A      0.115884    43A      0.124000    44A      0.131040  
	  45A      0.134928    46A      0.141046    47A      0.144353  
	  48A      0.148248    49A      0.150965    50A      0.154728  
	  51A      0.155530    52A      0.193552    53A      0.219370  
	  54A      0.228780    55A      0.233009    56A      0.236502  
	  57A      0.238408    58A      0.244179    59A      0.248763  
	  60A      0.253107    61A      0.261097    62A      0.272084  
	  63A      0.280321    64A      0.281778    65A      0.287338  
	  66A      0.292403    67A      0.295567    68A      0.297096  
	  69A      0.306487    70A      0.311697    71A      0.316690  
	  72A      0.321824    73A      0.326233    74A      0.331355  
	  75A      0.339874    76A      0.351425    77A      0.364319  
	  78A      0.369603    79A      0.370189    80A      0.387123  
	  81A      0.401349    82A      0.404251    83A      0.406989  
	  84A      0.416603    85A      0.420389    86A      0.431628  
	  87A      0.440011    88A      0.443292    89A      0.450589  
	  90A      0.453743    91A      0.456153    92A      0.459285  
	  93A      0.463400    94A      0.473024    95A      0.477070  
	  96A      0.488283    97A      0.488365    98A      0.492653  
	  99A      0.498246   100A      0.519097   101A      0.519873  
	 102A      0.525293   103A      0.527219   104A      0.535348  
	 105A      0.535741   106A      0.557089   107A      0.590144  
	 108A      0.603333   109A      0.608653   110A      0.610900  
	 111A      0.612318   112A      0.619256   113A      0.625154  
	 114A      0.625271   115A      0.633798   116A      0.646879  
	 117A      0.659476   118A      0.675154   119A      0.685185  
	 120A      0.697125   121A      0.706310   122A      0.707758  
	 123A      0.714642   124A      0.714785   125A      0.749845  
	 126A      0.755739   127A      0.759679   128A      0.779833  
	 129A      0.785068   130A      0.788473   131A      0.799541  
	 132A      0.806263   133A      0.812028   134A      0.825729  
	 135A      0.827631   136A      0.831817   137A      0.858286  
	 138A      0.858344   139A      0.865867   140A      0.871658  
	 141A      0.872684   142A      0.885204   143A      0.894109  
	 144A      0.905271   145A      0.913676   146A      0.916930  
	 147A      0.922371   148A      0.932681   149A      0.941520  
	 150A      0.944260   151A      0.949992   152A      0.974771  
	 153A      0.982672   154A      0.990491   155A      0.997050  
	 156A      1.001855   157A      1.005167   158A      1.007779  
	 159A      1.016063   160A      1.020371   161A      1.024354  
	 162A      1.036377   163A      1.044012   164A      1.052646  
	 165A      1.065958   166A      1.068012   167A      1.073713  
	 168A      1.080835   169A      1.085945   170A      1.094377  
	 171A      1.104680   172A      1.114965   173A      1.122982  
	 174A      1.126715   175A      1.129585   176A      1.140893  
	 177A      1.159362   178A      1.170211   179A      1.171594  
	 180A      1.176832   181A      1.183326   182A      1.190191  
	 183A      1.192270   184A      1.197073   185A      1.209181  
	 186A      1.217811   187A      1.227448   188A      1.243525  
	 189A      1.248681   190A      1.251024   191A      1.264506  
	 192A      1.272224   193A      1.295550   194A      1.313001  
	 195A      1.318879   196A      1.320893   197A      1.353565  
	 198A      1.358981   199A      1.375058   200A      1.379371  
	 201A      1.392313   202A      1.400878   203A      1.406881  
	 204A      1.416368   205A      1.437689   206A      1.439988  
	 207A      1.449288   208A      1.482528   209A      1.492712  
	 210A      1.502663   211A      1.512985   212A      1.522022  
	 213A      1.548510   214A      1.553610   215A      1.554947  
	 216A      1.580853   217A      1.619834   218A      1.624298  
	 219A      1.632092   220A      1.652693   221A      1.672923  
	 222A      1.673740   223A      1.681972   224A      1.690964  
	 225A      1.697106   226A      1.703471   227A      1.721551  
	 228A      1.734605   229A      1.743048   230A      1.766761  
	 231A      1.788445   232A      1.806176   233A      1.811610  
	 234A      1.820561   235A      1.842669   236A      1.844917  
	 237A      1.878711   238A      1.881868   239A      1.891997  
	 240A      1.907228   241A      1.920780   242A      1.949696  
	 243A      1.970375   244A      1.985171   245A      1.990610  
	 246A      2.003224   247A      2.015021   248A      2.017693  
	 249A      2.020871   250A      2.022824   251A      2.028078  
	 252A      2.046084   253A      2.063208   254A      2.069877  
	 255A      2.083716   256A      2.097911   257A      2.121730  
	 258A      2.134029   259A      2.146540   260A      2.177881  
	 261A      2.180530   262A      2.205278   263A      2.221417  
	 264A      2.224329   265A      2.241918   266A      2.283322  
	 267A      2.298548   268A      2.323373   269A      2.343870  
	 270A      2.347214   271A      2.399625   272A      2.408582  
	 273A      2.410195   274A      2.433410   275A      2.445610  
	 276A      2.458784   277A      2.474226   278A      2.498127  
	 279A      2.503374   280A      2.511584   281A      2.526865  
	 282A      2.560502   283A      2.611978   284A      2.626146  
	 285A      2.669769   286A      2.686295   287A      2.700911  
	 288A      2.701786   289A      2.731588   290A      2.746679  
	 291A      2.787867   292A      2.797646   293A      2.830765  
	 294A      2.830787   295A      2.857319   296A      2.902490  
	 297A      2.903116   298A      2.932785   299A      2.949076  
	 300A      2.953570   301A      2.980347   302A      2.984291  
	 303A      2.996972   304A      3.091428   305A      3.139657  
	 306A      3.157800   307A      3.159414   308A      3.159780  
	 309A      3.199053   310A      3.237587   311A      3.266785  
	 312A      3.304046   313A      3.304964   314A      3.323836  
	 315A      3.343258   316A      3.346879   317A      3.375484  
	 318A      3.383836   319A      3.412468   320A      3.426556  
	 321A      3.457364   322A      3.458020   323A      3.481310  
	 324A      3.496378   325A      3.498982   326A      3.520854  
	 327A      3.545265   328A      3.551072   329A      3.565878  
	 330A      3.592303   331A      3.665684   332A      3.678422  
	 333A      3.682321   334A      3.692865   335A      3.738682  
	 336A      3.741768   337A      3.762454   338A      3.775843  
	 339A      3.782492   340A      3.791460   341A      3.823821  
	 342A      3.844127   343A      3.847555   344A      3.864656  
	 345A      3.880093   346A      3.886266   347A      3.910949  
	 348A      3.912979   349A      3.916659   350A      3.943299  
	 351A      3.968187   352A      4.001716   353A      4.004013  
	 354A      4.025497   355A      4.052039   356A      4.071835  
	 357A      4.077707   358A      4.084214   359A      4.121255  
	 360A      4.122048   361A      4.147549   362A      4.181346  
	 363A      4.189089   364A      4.210993   365A      4.214551  
	 366A      4.233333   367A      4.235073   368A      4.253755  
	 369A      4.263449   370A      4.282525   371A      4.317949  
	 372A      4.336671   373A      4.367135   374A      4.377718  
	 375A      4.398210   376A      4.400165   377A      4.437549  
	 378A      4.440105   379A      4.449489   380A      4.460147  
	 381A      4.460644   382A      4.468619   383A      4.499418  
	 384A      4.505360   385A      4.529285   386A      4.573740  
	 387A      4.582064   388A      4.610391   389A      4.632544  
	 390A      4.660810   391A      4.704806   392A      4.704974  
	 393A      4.746477   394A      4.747666   395A      4.749614  
	 396A      4.791116   397A      4.822295   398A      4.833242  
	 399A      4.867130   400A      4.900681   401A      4.919474  
	 402A      4.923659   403A      4.961903   404A      4.968837  
	 405A      4.989636   406A      5.018439   407A      5.029596  
	 408A      5.051149   409A      5.059922   410A      5.099388  
	 411A      5.102407   412A      5.126806   413A      5.143071  
	 414A      5.154344   415A      5.167518   416A      5.186216  
	 417A      5.209748   418A      5.277088   419A      5.289454  
	 420A      5.300378   421A      5.344871   422A      5.362835  
	 423A      5.363261   424A      5.416230   425A      5.434729  
	 426A      5.460132   427A      5.499461   428A      5.500731  
	 429A      5.528778   430A      5.581432   431A      5.630269  
	 432A      5.658029   433A      5.681006   434A      5.745117  
	 435A      5.785590   436A      5.804559   437A      5.836362  
	 438A      5.865605   439A      5.885622   440A      5.898637  
	 441A      5.955710   442A      5.970618   443A      5.972749  
	 444A      6.064048   445A      6.064931   446A      6.073746  
	 447A      6.123246   448A      6.230787   449A      6.250336  
	 450A      6.345902   451A      6.449935   452A      6.501179  
	 453A      6.507330   454A      6.595766   455A      6.646661  
	 456A      6.655685   457A      6.738772   458A      6.749440  
	 459A      6.810640   460A      6.900782   461A      6.919617  
	 462A      7.057619   463A      7.113942   464A      7.122240  
	 465A      7.169501   466A      7.309073   467A      7.414084  
	 468A      7.462458   469A      7.529758   470A      7.697281  
	 471A      7.769290   472A      7.918300   473A      8.013019  
	 474A      8.208796   475A      8.415638   476A      9.240991  
	 477A     15.703214   478A     16.375872   479A     18.085250  
	 480A     18.807203   481A     19.240497   482A     19.537126  
	 483A     19.608303  

	Final Occupation by Irrep:
	          A 
	DOCC [    26 ]

  Energy converged.

  @RHF Final Energy:  -322.82217103547777

   => Energetics <=

    Nuclear Repulsion Energy =            278.3583529447334399
    One-Electron Energy =                -989.9121880217359148
    Two-Electron Energy =                 388.7316640415244819
    DFT Exchange-Correlation Energy =       0.0000000000000000
    Empirical Dispersion Energy =           0.0000000000000000
    Total Energy =                       -322.8221710354780498



Properties will be evaluated at   0.000000,   0.000000,   0.000000 Bohr
  ==> Properties <==


Properties computed using the SCF density density matrix
  Nuclear Dipole Moment: (a.u.)
     X:     0.2840      Y:     0.6894      Z:     0.0003

  Electronic Dipole Moment: (a.u.)
     X:     1.8389      Y:    -0.1179      Z:     0.0002

  Dipole Moment: (a.u.)
     X:     2.1229      Y:     0.5715      Z:     0.0006     Total:     2.1985

  Dipole Moment: (Debye)
     X:     5.3958      Y:     1.4527      Z:     0.0014     Total:     5.5880


  Saving occupied orbitals to File 180.

  Saving SAPT 2-DIMER file.

*** tstop() called on node110.bme.utexas.edu at Fri Feb 14 11:00:49 2014
Module time:
	user time   =     440.17 seconds =       7.34 minutes
	system time =       4.54 seconds =       0.08 minutes
	total time  =        117 seconds =       1.95 minutes
Total time:
	user time   =     440.17 seconds =       7.34 minutes
	system time =       4.54 seconds =       0.08 minutes
	total time  =        117 seconds =       1.95 minutes

  //>>>>>>>>>>>>>>>>>>>>>>>>>>>>>>>>>>>//
  //            Monomer A HF           //
  //<<<<<<<<<<<<<<<<<<<<<<<<<<<<<<<<<<<//


  No DF_BASIS_SCF auxiliary basis selected, defaulting to aug-cc-pvtz-jkfit


*** tstart() called on node110.bme.utexas.edu
*** at Fri Feb 14 11:00:49 2014


         ---------------------------------------------------------
                                   SCF
            by Justin Turney, Rob Parrish, and Andy Simmonett
                              RHF Reference
                        4 Threads,   7000 MiB Core
         ---------------------------------------------------------

  ==> Geometry <==

    Molecular point group: c1
    Full point group: C1

    Geometry (in Angstrom), charge = 0, multiplicity = 1:

       Center              X                  Y                   Z       
    ------------   -----------------  -----------------  -----------------
           O         -3.058943010343    -0.095084177055    -0.000379215173
           H         -3.377871619343     0.808405510945     0.000263972827
           H         -2.093452489343     0.004781064945    -0.000132237173
           N(Gh)     -0.698363162343     0.075169572945     0.000152742827
           C(Gh)     -0.002456523343     0.041198780945     1.144900588827
           H(Gh)     -0.587129074343     0.064809722945     2.055768616827
           C(Gh)      1.386567068657    -0.023983651055     1.194896652827
           H(Gh)      1.892473449657    -0.048837806055     2.149225774827
           C(Gh)      2.097730213657    -0.057109449055    -0.000014493173
           H(Gh)      3.177570164657    -0.108883002055    -0.000094921173
           C(Gh)      1.386421915657    -0.024050306055    -1.194815790173
           H(Gh)      1.892218862657    -0.048923333055    -2.149214391173
           C(Gh)     -0.002608098343     0.041144684945    -1.144669530173
           H(Gh)     -0.587376981343     0.064745339945    -2.055462083173

  Running in c1 symmetry.

  Nuclear repulsion =    9.129156360765400

  Charge       = 0
  Multiplicity = 1
  Electrons    = 10
  Nalpha       = 5
  Nbeta        = 5

  ==> Algorithm <==

  SCF Algorithm Type is DF.
  DIIS enabled.
  MOM disabled.
  Fractional occupation disabled.
  Guess Type is CORE.
  Energy threshold   = 1.00e-08
  Density threshold  = 1.00e-08
  Integral threshold = 0.00e+00

  ==> Primary Basis <==

  Basis Set: AUG-CC-PVTZ
    Number of shells: 161
    Number of basis function: 483
    Number of Cartesian functions: 560
    Spherical Harmonics?: true
    Max angular momentum: 3

  ==> Pre-Iterations <==

   -------------------------------------------------------
    Irrep   Nso     Nmo     Nalpha   Nbeta   Ndocc  Nsocc
   -------------------------------------------------------
     A        483     483       0       0       0       0
   -------------------------------------------------------
    Total     483     483       5       5       5       0
   -------------------------------------------------------

 OEINTS: Wrapper to libmints.
   by Justin Turney

   Calculation information:
      Number of atoms:                  14
      Number of AO shells:             161
      Number of SO shells:             161
      Number of primitives:            287
      Number of atomic orbitals:       560
      Number of basis functions:       483

      Number of irreps:                  1
      Number of functions per irrep: [ 483 ]

      Overlap, kinetic, potential, dipole, and quadrupole integrals
        stored in file 35.

  ==> Integral Setup <==

  ==> DFJK: Density-Fitted J/K Matrices <==

    J tasked:                  Yes
    K tasked:                  Yes
    wK tasked:                  No
    OpenMP threads:              4
    Integrals threads:           4
    Memory (MB):              5006
    Algorithm:                Core
    Integral Cache:           LOAD
    Schwarz Cutoff:          0E+00
    Fitting Condition:       1E-12

   => Auxiliary Basis Set <=

  Basis Set: aug-cc-pvtz-jkfit
    Number of shells: 308
    Number of basis function: 1050
    Number of Cartesian functions: 1302
    Spherical Harmonics?: true
    Max angular momentum: 4

  Minimum eigenvalue in the overlap matrix is 1.9111390944E-06.
  Using Symmetric Orthogonalization.
  SCF Guess: Core (One-Electron) Hamiltonian.

  Guess energy:   -60.20468429863440

  ==> Iterations <==

                        Total Energy        Delta E     RMS |[F,P]|

   @RHF iter   1:   -61.27206478701869   -6.12721e+01   1.68496e-02 
   @RHF iter   2:   -61.53722085011096   -2.65156e-01   5.89906e-03 DIIS
   @RHF iter   3:   -72.52733847915403   -1.09901e+01   7.20294e-03 DIIS
   @RHF iter   4:   -75.10520313423925   -2.57786e+00   3.38405e-03 DIIS
   @RHF iter   5:   -76.03188271888820   -9.26680e-01   4.49823e-04 DIIS
   @RHF iter   6:   -76.05927332203788   -2.73906e-02   1.03862e-04 DIIS
   @RHF iter   7:   -76.06003669697930   -7.63375e-04   1.53648e-05 DIIS
   @RHF iter   8:   -76.06005632914304   -1.96322e-05   2.44881e-06 DIIS
   @RHF iter   9:   -76.06005693939571   -6.10253e-07   3.67854e-07 DIIS
   @RHF iter  10:   -76.06005695985996   -2.04643e-08   4.27939e-08 DIIS
   @RHF iter  11:   -76.06005696022407   -3.64111e-10   1.75041e-08 DIIS
   @RHF iter  12:   -76.06005696025736   -3.32818e-11   1.28225e-09 DIIS

  ==> Post-Iterations <==

	Orbital Energies (a.u.)
	-----------------------

	Doubly Occupied:                                                      

	   1A    -20.568706     2A     -1.350549     3A     -0.711966  
	   4A     -0.585361     5A     -0.510023  

	Virtual:                                                              

	   6A      0.014919     7A      0.029941     8A      0.031101  
	   9A      0.046305    10A      0.049574    11A      0.054895  
	  12A      0.062354    13A      0.074671    14A      0.085571  
	  15A      0.091247    16A      0.092948    17A      0.097626  
	  18A      0.101621    19A      0.111785    20A      0.114888  
	  21A      0.124726    22A      0.126841    23A      0.133265  
	  24A      0.137606    25A      0.138922    26A      0.145235  
	  27A      0.158763    28A      0.159131    29A      0.169240  
	  30A      0.180153    31A      0.187400    32A      0.189507  
	  33A      0.195107    34A      0.221379    35A      0.225943  
	  36A      0.230255    37A      0.242723    38A      0.257875  
	  39A      0.259927    40A      0.268540    41A      0.272139  
	  42A      0.283549    43A      0.285001    44A      0.286407  
	  45A      0.295902    46A      0.303371    47A      0.303694  
	  48A      0.311257    49A      0.321691    50A      0.331574  
	  51A      0.337341    52A      0.347483    53A      0.351512  
	  54A      0.359955    55A      0.362067    56A      0.364960  
	  57A      0.366127    58A      0.371749    59A      0.380050  
	  60A      0.384013    61A      0.389393    62A      0.402139  
	  63A      0.403301    64A      0.417540    65A      0.418638  
	  66A      0.422658    67A      0.427713    68A      0.434694  
	  69A      0.437214    70A      0.447827    71A      0.450583  
	  72A      0.464937    73A      0.471285    74A      0.484612  
	  75A      0.485759    76A      0.494672    77A      0.533944  
	  78A      0.545353    79A      0.558876    80A      0.565805  
	  81A      0.566893    82A      0.577628    83A      0.582404  
	  84A      0.586758    85A      0.602552    86A      0.610799  
	  87A      0.615050    88A      0.622942    89A      0.626667  
	  90A      0.632584    91A      0.638756    92A      0.659841  
	  93A      0.661092    94A      0.662554    95A      0.681236  
	  96A      0.691902    97A      0.692743    98A      0.701003  
	  99A      0.705528   100A      0.716285   101A      0.726941  
	 102A      0.730716   103A      0.745965   104A      0.746529  
	 105A      0.759726   106A      0.759814   107A      0.761545  
	 108A      0.776277   109A      0.794035   110A      0.798950  
	 111A      0.801975   112A      0.829622   113A      0.832791  
	 114A      0.849114   115A      0.857695   116A      0.865015  
	 117A      0.873732   118A      0.877561   119A      0.889253  
	 120A      0.896982   121A      0.908428   122A      0.927374  
	 123A      0.927788   124A      0.966020   125A      0.982642  
	 126A      0.987308   127A      0.989647   128A      0.991691  
	 129A      0.994747   130A      1.007549   131A      1.012799  
	 132A      1.030184   133A      1.040033   134A      1.044687  
	 135A      1.048535   136A      1.066464   137A      1.073087  
	 138A      1.076111   139A      1.081734   140A      1.087777  
	 141A      1.089351   142A      1.093827   143A      1.097606  
	 144A      1.112621   145A      1.127807   146A      1.132113  
	 147A      1.138495   148A      1.159679   149A      1.162452  
	 150A      1.168693   151A      1.170716   152A      1.181568  
	 153A      1.198252   154A      1.205335   155A      1.234353  
	 156A      1.252785   157A      1.255364   158A      1.267479  
	 159A      1.270346   160A      1.274088   161A      1.279978  
	 162A      1.295128   163A      1.297948   164A      1.299816  
	 165A      1.308137   166A      1.314394   167A      1.321373  
	 168A      1.328551   169A      1.331958   170A      1.338225  
	 171A      1.355213   172A      1.371331   173A      1.374101  
	 174A      1.398638   175A      1.428302   176A      1.431427  
	 177A      1.433019   178A      1.450322   179A      1.452704  
	 180A      1.455143   181A      1.471546   182A      1.474939  
	 183A      1.505206   184A      1.511940   185A      1.518696  
	 186A      1.527227   187A      1.531617   188A      1.546062  
	 189A      1.546991   190A      1.553237   191A      1.561767  
	 192A      1.584878   193A      1.591405   194A      1.596382  
	 195A      1.634043   196A      1.652327   197A      1.663930  
	 198A      1.670485   199A      1.677562   200A      1.687072  
	 201A      1.706764   202A      1.708159   203A      1.717710  
	 204A      1.727715   205A      1.739199   206A      1.766193  
	 207A      1.780224   208A      1.806082   209A      1.842801  
	 210A      1.857242   211A      1.860044   212A      1.889646  
	 213A      1.902276   214A      1.907895   215A      1.935297  
	 216A      1.945106   217A      1.974266   218A      1.976544  
	 219A      1.992050   220A      2.010174   221A      2.026819  
	 222A      2.037022   223A      2.045582   224A      2.080158  
	 225A      2.094074   226A      2.124870   227A      2.137945  
	 228A      2.143663   229A      2.184982   230A      2.185626  
	 231A      2.194132   232A      2.194703   233A      2.215150  
	 234A      2.225323   235A      2.229414   236A      2.262011  
	 237A      2.268214   238A      2.276322   239A      2.293775  
	 240A      2.317671   241A      2.327192   242A      2.328889  
	 243A      2.338329   244A      2.338556   245A      2.348575  
	 246A      2.362352   247A      2.402574   248A      2.411916  
	 249A      2.423673   250A      2.440101   251A      2.447917  
	 252A      2.459664   253A      2.479481   254A      2.491890  
	 255A      2.516020   256A      2.529999   257A      2.536924  
	 258A      2.557989   259A      2.574098   260A      2.582982  
	 261A      2.617160   262A      2.618364   263A      2.636917  
	 264A      2.651317   265A      2.672231   266A      2.683702  
	 267A      2.701197   268A      2.711276   269A      2.717363  
	 270A      2.744506   271A      2.775761   272A      2.785206  
	 273A      2.823822   274A      2.830299   275A      2.858029  
	 276A      2.863156   277A      2.892202   278A      2.897511  
	 279A      2.932523   280A      2.964646   281A      2.972200  
	 282A      3.003002   283A      3.017258   284A      3.017642  
	 285A      3.064251   286A      3.141003   287A      3.141387  
	 288A      3.262115   289A      3.263159   290A      3.273078  
	 291A      3.283861   292A      3.355436   293A      3.388009  
	 294A      3.431810   295A      3.530764   296A      3.586968  
	 297A      3.613555   298A      3.661865   299A      3.795238  
	 300A      3.814804   301A      3.821612   302A      3.957477  
	 303A      3.959113   304A      4.004899   305A      4.013927  
	 306A      4.020809   307A      4.032379   308A      4.052370  
	 309A      4.057488   310A      4.066976   311A      4.072445  
	 312A      4.085959   313A      4.112435   314A      4.124822  
	 315A      4.140088   316A      4.154672   317A      4.179404  
	 318A      4.201103   319A      4.236591   320A      4.252041  
	 321A      4.253160   322A      4.262580   323A      4.294940  
	 324A      4.314281   325A      4.332831   326A      4.348458  
	 327A      4.354501   328A      4.382026   329A      4.383183  
	 330A      4.406107   331A      4.411280   332A      4.439519  
	 333A      4.486186   334A      4.490821   335A      4.496207  
	 336A      4.509153   337A      4.517216   338A      4.524729  
	 339A      4.543810   340A      4.576267   341A      4.601862  
	 342A      4.609628   343A      4.632007   344A      4.642321  
	 345A      4.649172   346A      4.666310   347A      4.684080  
	 348A      4.722052   349A      4.758267   350A      4.782221  
	 351A      4.813192   352A      4.830684   353A      4.849593  
	 354A      4.859969   355A      4.918720   356A      4.938715  
	 357A      4.946512   358A      4.981087   359A      4.997477  
	 360A      5.013027   361A      5.020707   362A      5.021565  
	 363A      5.047234   364A      5.056926   365A      5.073708  
	 366A      5.084538   367A      5.124784   368A      5.129584  
	 369A      5.164278   370A      5.190156   371A      5.205021  
	 372A      5.211153   373A      5.215221   374A      5.223351  
	 375A      5.273105   376A      5.281428   377A      5.313252  
	 378A      5.315330   379A      5.379625   380A      5.380041  
	 381A      5.400223   382A      5.450438   383A      5.460223  
	 384A      5.472425   385A      5.481684   386A      5.483435  
	 387A      5.495777   388A      5.530988   389A      5.607289  
	 390A      5.646799   391A      5.696409   392A      5.700700  
	 393A      5.701848   394A      5.747545   395A      5.748144  
	 396A      5.779612   397A      5.784314   398A      5.797724  
	 399A      5.822825   400A      5.872713   401A      5.918172  
	 402A      5.939413   403A      6.036459   404A      6.049129  
	 405A      6.053664   406A      6.057058   407A      6.138600  
	 408A      6.140642   409A      6.152947   410A      6.253788  
	 411A      6.283509   412A      6.319995   413A      6.378276  
	 414A      6.396917   415A      6.411742   416A      6.431469  
	 417A      6.452099   418A      6.541731   419A      6.566964  
	 420A      6.613157   421A      6.687930   422A      6.732484  
	 423A      6.751204   424A      6.785665   425A      6.855578  
	 426A      6.893954   427A      6.929015   428A      6.961178  
	 429A      6.989994   430A      6.993129   431A      7.073392  
	 432A      7.094887   433A      7.100315   434A      7.158116  
	 435A      7.194207   436A      7.231108   437A      7.341853  
	 438A      7.424156   439A      7.436765   440A      7.462046  
	 441A      7.492625   442A      7.509871   443A      7.554203  
	 444A      7.612033   445A      7.663840   446A      7.702721  
	 447A      7.726921   448A      7.777215   449A      7.862175  
	 450A      7.862375   451A      7.866909   452A      7.930651  
	 453A      8.072979   454A      8.137152   455A      8.147868  
	 456A      8.215284   457A      8.286323   458A      8.340500  
	 459A      8.435504   460A      8.474605   461A      8.741830  
	 462A      8.947448   463A      9.050027   464A      9.142635  
	 465A      9.259705   466A      9.353671   467A      9.568321  
	 468A      9.909159   469A     10.095865   470A     10.231163  
	 471A     10.856157   472A     11.272867   473A     11.381811  
	 474A     11.529876   475A     12.318379   476A     12.411439  
	 477A     18.048800   478A     50.314072   479A     50.856521  
	 480A     54.474516   481A     55.326864   482A     55.843720  
	 483A     61.920313  

	Final Occupation by Irrep:
	          A 
	DOCC [     5 ]

  Energy converged.

  @RHF Final Energy:   -76.06005696025736

   => Energetics <=

    Nuclear Repulsion Energy =              9.1291563607653998
    One-Electron Energy =                -122.9252150503102854
    Two-Electron Energy =                  37.7360017292881977
    DFT Exchange-Correlation Energy =       0.0000000000000000
    Empirical Dispersion Energy =           0.0000000000000000
    Total Energy =                        -76.0600569602566736



Properties will be evaluated at   0.000000,   0.000000,   0.000000 Bohr
  ==> Properties <==


Properties computed using the SCF density density matrix
  Nuclear Dipole Moment: (a.u.)
     X:   -56.5838      Y:     0.0992      Z:    -0.0055

  Electronic Dipole Moment: (a.u.)
     X:    57.0095      Y:     0.5644      Z:     0.0061

  Dipole Moment: (a.u.)
     X:     0.4257      Y:     0.6636      Z:     0.0006     Total:     0.7884

  Dipole Moment: (Debye)
     X:     1.0820      Y:     1.6868      Z:     0.0015     Total:     2.0040


  Saving occupied orbitals to File 180.

  Saving SAPT 2-MONOMER_A file.

*** tstop() called on node110.bme.utexas.edu at Fri Feb 14 11:01:46 2014
Module time:
	user time   =     213.45 seconds =       3.56 minutes
	system time =       2.58 seconds =       0.04 minutes
	total time  =         57 seconds =       0.95 minutes
Total time:
	user time   =     653.64 seconds =      10.89 minutes
	system time =       7.12 seconds =       0.12 minutes
	total time  =        174 seconds =       2.90 minutes

  //>>>>>>>>>>>>>>>>>>>>>>>>>>>>>>>>>>>//
  //            Monomer B HF           //
  //<<<<<<<<<<<<<<<<<<<<<<<<<<<<<<<<<<<//


  No DF_BASIS_SCF auxiliary basis selected, defaulting to aug-cc-pvtz-jkfit


*** tstart() called on node110.bme.utexas.edu
*** at Fri Feb 14 11:01:46 2014


         ---------------------------------------------------------
                                   SCF
            by Justin Turney, Rob Parrish, and Andy Simmonett
                              RHF Reference
                        4 Threads,   7000 MiB Core
         ---------------------------------------------------------

  ==> Geometry <==

    Molecular point group: c1
    Full point group: C1

    Geometry (in Angstrom), charge = 0, multiplicity = 1:

       Center              X                  Y                   Z       
    ------------   -----------------  -----------------  -----------------
           O(Gh)     -3.058943010343    -0.095084177055    -0.000379215173
           H(Gh)     -3.377871619343     0.808405510945     0.000263972827
           H(Gh)     -2.093452489343     0.004781064945    -0.000132237173
           N         -0.698363162343     0.075169572945     0.000152742827
           C         -0.002456523343     0.041198780945     1.144900588827
           H         -0.587129074343     0.064809722945     2.055768616827
           C          1.386567068657    -0.023983651055     1.194896652827
           H          1.892473449657    -0.048837806055     2.149225774827
           C          2.097730213657    -0.057109449055    -0.000014493173
           H          3.177570164657    -0.108883002055    -0.000094921173
           C          1.386421915657    -0.024050306055    -1.194815790173
           H          1.892218862657    -0.048923333055    -2.149214391173
           C         -0.002608098343     0.041144684945    -1.144669530173
           H         -0.587376981343     0.064745339945    -2.055462083173

  Running in c1 symmetry.

  Nuclear repulsion =  206.285463431529280

  Charge       = 0
  Multiplicity = 1
  Electrons    = 42
  Nalpha       = 21
  Nbeta        = 21

  ==> Algorithm <==

  SCF Algorithm Type is DF.
  DIIS enabled.
  MOM disabled.
  Fractional occupation disabled.
  Guess Type is CORE.
  Energy threshold   = 1.00e-08
  Density threshold  = 1.00e-08
  Integral threshold = 0.00e+00

  ==> Primary Basis <==

  Basis Set: AUG-CC-PVTZ
    Number of shells: 161
    Number of basis function: 483
    Number of Cartesian functions: 560
    Spherical Harmonics?: true
    Max angular momentum: 3

  ==> Pre-Iterations <==

   -------------------------------------------------------
    Irrep   Nso     Nmo     Nalpha   Nbeta   Ndocc  Nsocc
   -------------------------------------------------------
     A        483     483       0       0       0       0
   -------------------------------------------------------
    Total     483     483      21      21      21       0
   -------------------------------------------------------

 OEINTS: Wrapper to libmints.
   by Justin Turney

   Calculation information:
      Number of atoms:                  14
      Number of AO shells:             161
      Number of SO shells:             161
      Number of primitives:            287
      Number of atomic orbitals:       560
      Number of basis functions:       483

      Number of irreps:                  1
      Number of functions per irrep: [ 483 ]

      Overlap, kinetic, potential, dipole, and quadrupole integrals
        stored in file 35.

  ==> Integral Setup <==

  ==> DFJK: Density-Fitted J/K Matrices <==

    J tasked:                  Yes
    K tasked:                  Yes
    wK tasked:                  No
    OpenMP threads:              4
    Integrals threads:           4
    Memory (MB):              5006
    Algorithm:                Core
    Integral Cache:           LOAD
    Schwarz Cutoff:          0E+00
    Fitting Condition:       1E-12

   => Auxiliary Basis Set <=

  Basis Set: aug-cc-pvtz-jkfit
    Number of shells: 308
    Number of basis function: 1050
    Number of Cartesian functions: 1302
    Spherical Harmonics?: true
    Max angular momentum: 4

  Minimum eigenvalue in the overlap matrix is 1.9111390944E-06.
  Using Symmetric Orthogonalization.
  SCF Guess: Core (One-Electron) Hamiltonian.

  Guess energy:  -194.55505711123041

  ==> Iterations <==

                        Total Energy        Delta E     RMS |[F,P]|

   @RHF iter   1:  -191.87612486517631   -1.91876e+02   2.31456e-02 
   @RHF iter   2:  -177.72592355197165    1.41502e+01   1.31145e-02 DIIS
   @RHF iter   3:  -211.38186085065902   -3.36559e+01   1.47608e-02 DIIS
   @RHF iter   4:  -240.97473735943024   -2.95929e+01   5.54033e-03 DIIS
   @RHF iter   5:  -246.18533502919664   -5.21060e+00   2.13882e-03 DIIS
   @RHF iter   6:  -246.71780773452068   -5.32473e-01   6.64911e-04 DIIS
   @RHF iter   7:  -246.77368006624485   -5.58723e-02   1.51846e-04 DIIS
   @RHF iter   8:  -246.77758953508211   -3.90947e-03   5.91001e-05 DIIS
   @RHF iter   9:  -246.77856514999817   -9.75615e-04   3.03373e-05 DIIS
   @RHF iter  10:  -246.77879783995323   -2.32690e-04   1.22153e-05 DIIS
   @RHF iter  11:  -246.77887764764213   -7.98077e-05   5.26515e-06 DIIS
   @RHF iter  12:  -246.77889226072980   -1.46131e-05   2.17502e-06 DIIS
   @RHF iter  13:  -246.77889454209500   -2.28137e-06   7.30649e-07 DIIS
   @RHF iter  14:  -246.77889471489655   -1.72802e-07   2.09852e-07 DIIS
   @RHF iter  15:  -246.77889472626666   -1.13701e-08   6.37724e-08 DIIS
   @RHF iter  16:  -246.77889472708821   -8.21558e-10   1.59606e-08 DIIS
   @RHF iter  17:  -246.77889472714921   -6.09930e-11   5.89370e-09 DIIS

  ==> Post-Iterations <==

	Orbital Energies (a.u.)
	-----------------------

	Doubly Occupied:                                                      

	   1A    -15.566712     2A    -11.275247     3A    -11.275230  
	   4A    -11.260478     5A    -11.242463     6A    -11.242411  
	   7A     -1.256659     8A     -1.089778     9A     -1.034693  
	  10A     -0.859689    11A     -0.856444    12A     -0.722524  
	  13A     -0.660919    14A     -0.654803    15A     -0.599645  
	  16A     -0.577305    17A     -0.541450    18A     -0.521010  
	  19A     -0.418644    20A     -0.383857    21A     -0.348531  

	Virtual:                                                              

	  22A      0.025885    23A      0.033207    24A      0.035544  
	  25A      0.048497    26A      0.048752    27A      0.059337  
	  28A      0.071635    29A      0.086018    30A      0.091260  
	  31A      0.099754    32A      0.100336    33A      0.106100  
	  34A      0.109153    35A      0.114774    36A      0.115564  
	  37A      0.121252    38A      0.129016    39A      0.130377  
	  40A      0.137761    41A      0.141272    42A      0.142804  
	  43A      0.150927    44A      0.155452    45A      0.156801  
	  46A      0.158432    47A      0.179447    48A      0.192150  
	  49A      0.217636    50A      0.225409    51A      0.240351  
	  52A      0.243175    53A      0.243551    54A      0.251988  
	  55A      0.258607    56A      0.269292    57A      0.271927  
	  58A      0.272132    59A      0.287119    60A      0.297228  
	  61A      0.298503    62A      0.302936    63A      0.304563  
	  64A      0.306322    65A      0.319452    66A      0.319883  
	  67A      0.323204    68A      0.333430    69A      0.338038  
	  70A      0.345893    71A      0.346308    72A      0.368859  
	  73A      0.375894    74A      0.376116    75A      0.381405  
	  76A      0.396454    77A      0.411646    78A      0.412906  
	  79A      0.424190    80A      0.424418    81A      0.426463  
	  82A      0.440703    83A      0.446801    84A      0.452115  
	  85A      0.453545    86A      0.462280    87A      0.464808  
	  88A      0.470202    89A      0.480167    90A      0.485525  
	  91A      0.488475    92A      0.495722    93A      0.495880  
	  94A      0.503178    95A      0.507251    96A      0.527002  
	  97A      0.528158    98A      0.539098    99A      0.541783  
	 100A      0.544273   101A      0.564892   102A      0.567636  
	 103A      0.577413   104A      0.606258   105A      0.620694  
	 106A      0.623805   107A      0.631291   108A      0.631465  
	 109A      0.635808   110A      0.643642   111A      0.644516  
	 112A      0.666409   113A      0.672778   114A      0.682778  
	 115A      0.699536   116A      0.708346   117A      0.721708  
	 118A      0.726483   119A      0.733608   120A      0.744862  
	 121A      0.770651   122A      0.770690   123A      0.795104  
	 124A      0.797978   125A      0.805430   126A      0.813360  
	 127A      0.823555   128A      0.835820   129A      0.843325  
	 130A      0.847255   131A      0.855644   132A      0.868291  
	 133A      0.876947   134A      0.879213   135A      0.882227  
	 136A      0.884354   137A      0.892180   138A      0.903492  
	 139A      0.908549   140A      0.908660   141A      0.923578  
	 142A      0.943371   143A      0.947345   144A      0.951507  
	 145A      0.954357   146A      0.962036   147A      0.973342  
	 148A      0.990130   149A      0.991753   150A      1.003882  
	 151A      1.012562   152A      1.012748   153A      1.025000  
	 154A      1.027035   155A      1.029425   156A      1.036334  
	 157A      1.038535   158A      1.046498   159A      1.056243  
	 160A      1.066808   161A      1.068368   162A      1.070097  
	 163A      1.083558   164A      1.087660   165A      1.098143  
	 166A      1.102135   167A      1.108869   168A      1.127393  
	 169A      1.139887   170A      1.145453   171A      1.156282  
	 172A      1.169824   173A      1.176622   174A      1.181956  
	 175A      1.185290   176A      1.190904   177A      1.195164  
	 178A      1.204471   179A      1.206300   180A      1.214611  
	 181A      1.224597   182A      1.233232   183A      1.242932  
	 184A      1.244002   185A      1.264832   186A      1.265139  
	 187A      1.278595   188A      1.291615   189A      1.291955  
	 190A      1.311816   191A      1.341852   192A      1.359252  
	 193A      1.370967   194A      1.380796   195A      1.386625  
	 196A      1.404330   197A      1.419135   198A      1.420978  
	 199A      1.424030   200A      1.450997   201A      1.468838  
	 202A      1.472158   203A      1.502516   204A      1.512316  
	 205A      1.519599   206A      1.523896   207A      1.533355  
	 208A      1.566042   209A      1.573586   210A      1.579095  
	 211A      1.589618   212A      1.602153   213A      1.645044  
	 214A      1.677720   215A      1.683515   216A      1.691615  
	 217A      1.698374   218A      1.707077   219A      1.722390  
	 220A      1.725500   221A      1.734743   222A      1.743810  
	 223A      1.756083   224A      1.782018   225A      1.801242  
	 226A      1.822040   227A      1.832724   228A      1.832872  
	 229A      1.850096   230A      1.853456   231A      1.863993  
	 232A      1.870786   233A      1.895948   234A      1.903121  
	 235A      1.935254   236A      1.945357   237A      1.949563  
	 238A      1.972895   239A      2.003185   240A      2.007066  
	 241A      2.020931   242A      2.026162   243A      2.032923  
	 244A      2.033530   245A      2.042547   246A      2.044786  
	 247A      2.047287   248A      2.049992   249A      2.089271  
	 250A      2.098888   251A      2.103892   252A      2.128449  
	 253A      2.151381   254A      2.169559   255A      2.183098  
	 256A      2.197257   257A      2.222714   258A      2.238720  
	 259A      2.239368   260A      2.257555   261A      2.275580  
	 262A      2.320738   263A      2.322399   264A      2.351664  
	 265A      2.362720   266A      2.382681   267A      2.426749  
	 268A      2.430871   269A      2.433523   270A      2.469667  
	 271A      2.507036   272A      2.518338   273A      2.542275  
	 274A      2.544955   275A      2.558314   276A      2.571970  
	 277A      2.573151   278A      2.594117   279A      2.636058  
	 280A      2.693087   281A      2.719695   282A      2.721822  
	 283A      2.731045   284A      2.773508   285A      2.776283  
	 286A      2.805002   287A      2.805553   288A      2.836216  
	 289A      2.894904   290A      2.907456   291A      2.932893  
	 292A      2.951939   293A      2.985259   294A      2.996032  
	 295A      3.025979   296A      3.056267   297A      3.091703  
	 298A      3.120536   299A      3.136847   300A      3.160660  
	 301A      3.185792   302A      3.193249   303A      3.199464  
	 304A      3.260460   305A      3.279621   306A      3.296585  
	 307A      3.319558   308A      3.329548   309A      3.360149  
	 310A      3.367683   311A      3.375634   312A      3.402498  
	 313A      3.431436   314A      3.433763   315A      3.443680  
	 316A      3.468566   317A      3.490556   318A      3.501566  
	 319A      3.515918   320A      3.538971   321A      3.550853  
	 322A      3.561228   323A      3.570209   324A      3.571835  
	 325A      3.604674   326A      3.616189   327A      3.655046  
	 328A      3.691215   329A      3.702397   330A      3.731902  
	 331A      3.741467   332A      3.766624   333A      3.779062  
	 334A      3.785321   335A      3.796054   336A      3.803143  
	 337A      3.823418   338A      3.860491   339A      3.866856  
	 340A      3.875288   341A      3.885288   342A      3.887520  
	 343A      3.903119   344A      3.915335   345A      3.940256  
	 346A      3.952796   347A      3.955402   348A      3.994374  
	 349A      4.021266   350A      4.022573   351A      4.051324  
	 352A      4.081686   353A      4.088012   354A      4.099229  
	 355A      4.110539   356A      4.124284   357A      4.161179  
	 358A      4.171391   359A      4.199158   360A      4.207495  
	 361A      4.237587   362A      4.248862   363A      4.257698  
	 364A      4.286772   365A      4.290143   366A      4.303589  
	 367A      4.326801   368A      4.355120   369A      4.369495  
	 370A      4.379869   371A      4.424665   372A      4.428610  
	 373A      4.468407   374A      4.477530   375A      4.492153  
	 376A      4.495588   377A      4.528844   378A      4.539864  
	 379A      4.546665   380A      4.572328   381A      4.592503  
	 382A      4.635616   383A      4.691294   384A      4.703695  
	 385A      4.746440   386A      4.753913   387A      4.765216  
	 388A      4.798745   389A      4.829137   390A      4.834707  
	 391A      4.860406   392A      4.897226   393A      4.907983  
	 394A      4.926977   395A      4.938056   396A      4.942941  
	 397A      4.949899   398A      4.992366   399A      5.012899  
	 400A      5.037810   401A      5.047359   402A      5.075560  
	 403A      5.086317   404A      5.117799   405A      5.132586  
	 406A      5.138676   407A      5.150134   408A      5.172579  
	 409A      5.203753   410A      5.228385   411A      5.274988  
	 412A      5.298039   413A      5.304325   414A      5.346919  
	 415A      5.404081   416A      5.406992   417A      5.453097  
	 418A      5.460145   419A      5.491342   420A      5.505352  
	 421A      5.538346   422A      5.549225   423A      5.583348  
	 424A      5.657568   425A      5.672362   426A      5.715108  
	 427A      5.735104   428A      5.775967   429A      5.822899  
	 430A      5.836485   431A      5.873171   432A      5.892428  
	 433A      5.920386   434A      5.940595   435A      5.981819  
	 436A      6.009392   437A      6.009951   438A      6.094381  
	 439A      6.115491   440A      6.149721   441A      6.186358  
	 442A      6.246374   443A      6.250258   444A      6.272893  
	 445A      6.411105   446A      6.531695   447A      6.545600  
	 448A      6.623936   449A      6.686424   450A      6.729369  
	 451A      6.764176   452A      6.781607   453A      6.802719  
	 454A      6.930081   455A      6.955974   456A      7.108094  
	 457A      7.152447   458A      7.312174   459A      7.423749  
	 460A      7.553092   461A      7.834180   462A      7.983769  
	 463A      8.181056   464A      8.382344   465A      8.596772  
	 466A      9.015560   467A      9.314995   468A      9.862137  
	 469A      9.976392   470A     10.343455   471A     10.492601  
	 472A     11.475047   473A     12.149235   474A     12.790977  
	 475A     13.923238   476A     14.165833   477A     15.823699  
	 478A     16.396694   479A     18.807994   480A     19.262058  
	 481A     19.566791   482A     19.628454   483A     69.147592  

	Final Occupation by Irrep:
	          A 
	DOCC [    21 ]

  Energy converged.

  @RHF Final Energy:  -246.77889472714921

   => Energetics <=

    Nuclear Repulsion Energy =            206.2854634315292799
    One-Electron Energy =                -741.3517366199855587
    Two-Electron Energy =                 288.2873784613060479
    DFT Exchange-Correlation Energy =       0.0000000000000000
    Empirical Dispersion Energy =           0.0000000000000000
    Total Energy =                       -246.7788947271502593



Properties will be evaluated at   0.000000,   0.000000,   0.000000 Bohr
  ==> Properties <==


Properties computed using the SCF density density matrix
  Nuclear Dipole Moment: (a.u.)
     X:    56.8678      Y:     0.5902      Z:     0.0058

  Electronic Dipole Moment: (a.u.)
     X:   -55.9579      Y:    -0.6362      Z:    -0.0059

  Dipole Moment: (a.u.)
     X:     0.9099      Y:    -0.0461      Z:    -0.0001     Total:     0.9110

  Dipole Moment: (Debye)
     X:     2.3126      Y:    -0.1171      Z:    -0.0002     Total:     2.3156


  Saving occupied orbitals to File 180.

  Saving SAPT 2-MONOMER_B file.

*** tstop() called on node110.bme.utexas.edu at Fri Feb 14 11:03:14 2014
Module time:
	user time   =     334.25 seconds =       5.57 minutes
	system time =       2.66 seconds =       0.04 minutes
	total time  =         88 seconds =       1.47 minutes
Total time:
	user time   =     987.92 seconds =      16.47 minutes
	system time =       9.78 seconds =       0.16 minutes
	total time  =        262 seconds =       4.37 minutes
  No DF_BASIS_SAPT auxiliary basis selected, defaulting to aug-cc-pvtz-ri

  //>>>>>>>>>>>>>>>>>>>>>>>>>>>>>>>>>>>//
  //               SAPT2+              //
  //<<<<<<<<<<<<<<<<<<<<<<<<<<<<<<<<<<<//


*** tstart() called on node110.bme.utexas.edu
*** at Fri Feb 14 11:03:14 2014

        SAPT2+  
    Ed Hohenstein
     6 June 2009

      Orbital Information
  --------------------------
    NSO        =       483
    NMO        =       483
    NRI        =      1064
    NOCC A     =         5
    NOCC B     =        21
    FOCC A     =         1
    FOCC B     =         6
    NVIR A     =       478
    NVIR B     =       462

    Estimated memory usage: 4363.1 MB

    Elst10,r            =    -0.056934008709 H
    Exch10 (S^2)        =     0.100418422196 H
    Exch10              =     0.106437655366 H
    Ind20,r (A<-B)      =    -0.018963348966 H
    Ind20,r (B<-A)      =    -0.036321639605 H
    Ind20,r             =    -0.055284988571 H
    Exch-Ind20,r (A<-B) =     0.015446569834 H
    Exch-Ind20,r (B<-A) =     0.018984667043 H
    Exch-Ind20,r        =     0.034431236877 H
    Disp20              =    -0.022497600178 H
    Exch-Disp20         =     0.005461247095 H
    Elst12,r            =    -0.000862366884 H
    Exch11              =     0.001706261030 H
    Exch12              =     0.004561882908 H
    Ind22               =    -0.005974889732 H
    Disp21              =     0.002852662532 H
    Disp22 (SDQ)        =    -0.000394476754 H

    (i =   1 of  15)        542 seconds
    (i =   2 of  15)       1084 seconds
    (i =   3 of  15)       1626 seconds
    (i =   4 of  15)       2170 seconds
    (i =   5 of  15)       2712 seconds
    (i =   6 of  15)       3254 seconds
    (i =   7 of  15)       3796 seconds
    (i =   8 of  15)       4339 seconds
    (i =   9 of  15)       4881 seconds
    (i =  10 of  15)       5424 seconds
    (i =  11 of  15)       5966 seconds
    (i =  12 of  15)       6509 seconds
    (i =  13 of  15)       7051 seconds
    (i =  14 of  15)       7594 seconds
    (i =  15 of  15)       8137 seconds

    Disp220 (T)         =    -0.001856880425 H

    (i =   1 of   4)       3343 seconds
    (i =   2 of   4)       6691 seconds
    (i =   3 of   4)      10037 seconds
    (i =   4 of   4)      13383 seconds

    Disp202 (T)         =    -0.001860123748 H

    Disp22 (T)          =    -0.003717004173 H

    SAPT Results  
  -----------------------------------------------------------------------
    Electrostatics         -57.79637559 mH     -36.26777475 kcal mol^-1
      Elst10,r             -56.93400871 mH     -35.72663134 kcal mol^-1
      Elst12,r              -0.86236688 mH      -0.54114341 kcal mol^-1

    Exchange               112.70579930 mH      70.72395977 kcal mol^-1
      Exch10               106.43765537 mH      66.79063990 kcal mol^-1
      Exch10(S^2)          100.41842220 mH      63.01351390 kcal mol^-1
      Exch11(S^2)            1.70626103 mH       1.07069501 kcal mol^-1
      Exch12(S^2)            4.56188291 mH       2.86262486 kcal mol^-1

    Induction              -34.97675059 mH     -21.94824327 kcal mol^-1
      Ind20,r              -55.28498857 mH     -34.69185554 kcal mol^-1
      Ind22                 -5.97488973 mH      -3.74930007 kcal mol^-1
      Exch-Ind20,r          34.43123688 mH      21.60592824 kcal mol^-1
      Exch-Ind22             3.72113387 mH       2.33504686 kcal mol^-1
      delta HF,r (2)       -11.86924303 mH      -7.44806276 kcal mol^-1

    Dispersion             -18.29517148 mH     -11.48039391 kcal mol^-1
      Disp20               -22.49760018 mH     -14.11745784 kcal mol^-1
      Disp21                 2.85266253 mH       1.79007284 kcal mol^-1
      Disp22 (SDQ)          -0.39447675 mH      -0.24753791 kcal mol^-1
      Disp22 (T)            -3.71700417 mH      -2.33245543 kcal mol^-1
      Exch-Disp20            5.46124710 mH       3.42698443 kcal mol^-1

    Total HF                16.78065193 mH      10.53001850 kcal mol^-1
    Total SAPT0             -0.25570115 mH      -0.16045490 kcal mol^-1
    Total SAPT2              2.89632004 mH       1.81746834 kcal mol^-1
    Total SAPT2+             1.63750165 mH       1.02754784 kcal mol^-1

*** tstop() called on node110.bme.utexas.edu at Fri Feb 14 19:22:47 2014
Module time:
	user time   =  109774.20 seconds =    1829.57 minutes
	system time =     275.04 seconds =       4.58 minutes
	total time  =      29973 seconds =     499.55 minutes
Total time:
	user time   =  110762.13 seconds =    1846.04 minutes
	system time =     284.82 seconds =       4.75 minutes
	total time  =      30235 seconds =     503.92 minutes

*** PSI4 exiting successfully. Buy a developer a beer!
    -----------------------------------------------------------------------
          PSI4: An Open-Source Ab Initio Electronic Structure Package
                              PSI 4.0.0-beta4 Driver

    J. M. Turney, A. C. Simmonett, R. M. Parrish, E. G. Hohenstein,
    F. A. Evangelista, J. T. Fermann, B. J. Mintz, L. A. Burns, J. J. Wilke,
    M. L. Abrams, N. J. Russ, M. L. Leininger, C. L. Janssen, E. T. Seidl,
    W. D. Allen, H. F. Schaefer, R. A. King, E. F. Valeev, C. D. Sherrill,
    and T. D. Crawford, WIREs Comput. Mol. Sci., (2011) (doi: 10.1002/wcms.93)

                         Additional Contributions by
    A. E. DePrince, M. Saitow, U. Bozkaya, A. Yu. Sokolov
    -----------------------------------------------------------------------

    Process ID:  14302
    PSI4DATADIR: /home/xzhu216/psi4/psi4-install/share/psi

    Using LocalCommunicator (Number of processes = 1)

    Memory level set to 256.000 MB

  ==> Input File <==

--------------------------------------------------------------------------
#psi4
#
memory 7 gb

molecule Water_Pyridine {
0 1
    O    -0.552831024    -0.101697490    -0.000498788
    H    -0.871759633     0.801792198     0.000144400
    H     0.412659497    -0.001832248    -0.000251810
--
0 1
    N     2.007047299     0.078611761     0.000073881
    C     2.702953938     0.044640969     1.144821727
    H     2.118281387     0.068251911     2.055689755
    C     4.091977530    -0.020541463     1.194817791
    H     4.597883911    -0.045395618     2.149146913
    C     4.803140675    -0.053667261    -0.000093355
    H     5.882980626    -0.105440814    -0.000173783
    C     4.091832377    -0.020608118    -1.194894652
    H     4.597629324    -0.045481145    -2.149293253
    C     2.702802363     0.044586873    -1.144748392
    H     2.118033480     0.068187528    -2.055540945
units angstrom
no_reorient  #important for SAPT in psi4, default
symmetry c1  #important for SAPT in psi4, default
}

set {
basis aug-cc-pVTZ
scf_type DF
freeze_core True
}
energy('sapt2+')
--------------------------------------------------------------------------

  Memory set to   7.000 GiB by Python script.

  //>>>>>>>>>>>>>>>>>>>>>>>>>>>>>>>>>>>//
  //              Dimer HF             //
  //<<<<<<<<<<<<<<<<<<<<<<<<<<<<<<<<<<<//


  No DF_BASIS_SCF auxiliary basis selected, defaulting to aug-cc-pvtz-jkfit


*** tstart() called on node112.bme.utexas.edu
*** at Fri Feb 14 09:42:47 2014


         ---------------------------------------------------------
                                   SCF
            by Justin Turney, Rob Parrish, and Andy Simmonett
                              RHF Reference
                        4 Threads,   7000 MiB Core
         ---------------------------------------------------------

  ==> Geometry <==

    Molecular point group: c1
    Full point group: C1

    Geometry (in Angstrom), charge = 0, multiplicity = 1:

       Center              X                  Y                   Z       
    ------------   -----------------  -----------------  -----------------
           O         -3.221256674885    -0.103273628661    -0.000412371230
           H         -3.540185283885     0.800216059339     0.000230816770
           H         -2.255766153885    -0.003408386661    -0.000165393230
           N         -0.661378351885     0.077035622339     0.000160297770
           C          0.034528287115     0.043064830339     1.144908143770
           H         -0.550144263885     0.066675772339     2.055776171770
           C          1.423551879115    -0.022117601661     1.194904207770
           H          1.929458260115    -0.046971756661     2.149233329770
           C          2.134715024115    -0.055243399661    -0.000006938230
           H          3.214554975115    -0.107016952661    -0.000087366230
           C          1.423406726115    -0.022184256661    -1.194808235230
           H          1.929203673115    -0.047057283661    -2.149206836230
           C          0.034376712115     0.043010734339    -1.144661975230
           H         -0.550392170885     0.066611389339    -2.055454528230

  Running in c1 symmetry.

  Nuclear repulsion =  274.798037587222495

  Charge       = 0
  Multiplicity = 1
  Electrons    = 52
  Nalpha       = 26
  Nbeta        = 26

  ==> Algorithm <==

  SCF Algorithm Type is DF.
  DIIS enabled.
  MOM disabled.
  Fractional occupation disabled.
  Guess Type is CORE.
  Energy threshold   = 1.00e-08
  Density threshold  = 1.00e-08
  Integral threshold = 0.00e+00

  ==> Primary Basis <==

  Basis Set: AUG-CC-PVTZ
    Number of shells: 161
    Number of basis function: 483
    Number of Cartesian functions: 560
    Spherical Harmonics?: true
    Max angular momentum: 3

  ==> Pre-Iterations <==

   -------------------------------------------------------
    Irrep   Nso     Nmo     Nalpha   Nbeta   Ndocc  Nsocc
   -------------------------------------------------------
     A        483     483       0       0       0       0
   -------------------------------------------------------
    Total     483     483      26      26      26       0
   -------------------------------------------------------

 OEINTS: Wrapper to libmints.
   by Justin Turney

   Calculation information:
      Number of atoms:                  14
      Number of AO shells:             161
      Number of SO shells:             161
      Number of primitives:            287
      Number of atomic orbitals:       560
      Number of basis functions:       483

      Number of irreps:                  1
      Number of functions per irrep: [ 483 ]

      Overlap, kinetic, potential, dipole, and quadrupole integrals
        stored in file 35.

  ==> Integral Setup <==

  ==> DFJK: Density-Fitted J/K Matrices <==

    J tasked:                  Yes
    K tasked:                  Yes
    wK tasked:                  No
    OpenMP threads:              4
    Integrals threads:           4
    Memory (MB):              5006
    Algorithm:                Core
    Integral Cache:           SAVE
    Schwarz Cutoff:          0E+00
    Fitting Condition:       1E-12

   => Auxiliary Basis Set <=

  Basis Set: aug-cc-pvtz-jkfit
    Number of shells: 308
    Number of basis function: 1050
    Number of Cartesian functions: 1302
    Spherical Harmonics?: true
    Max angular momentum: 4

  Minimum eigenvalue in the overlap matrix is 2.0109061543E-06.
  Using Symmetric Orthogonalization.
  SCF Guess: Core (One-Electron) Hamiltonian.

  Guess energy:  -259.03544284644573

  ==> Iterations <==

                        Total Energy        Delta E     RMS |[F,P]|

   @RHF iter   1:  -219.96877087239380   -2.19969e+02   2.79133e-02 
   @RHF iter   2:   -63.69730532664374    1.56271e+02   3.94339e-02 DIIS
   @RHF iter   3:  -219.83526572635367   -1.56138e+02   1.80624e-02 DIIS
   @RHF iter   4:  -240.16520962843964   -2.03299e+01   2.11764e-02 DIIS
   @RHF iter   5:  -311.90805249419685   -7.17428e+01   7.96668e-03 DIIS
   @RHF iter   6:  -321.73578701205832   -9.82773e+00   3.09565e-03 DIIS
   @RHF iter   7:  -322.74722204009316   -1.01144e+00   9.12181e-04 DIIS
   @RHF iter   8:  -322.81743220001050   -7.02102e-02   3.67721e-04 DIIS
   @RHF iter   9:  -322.83600235012938   -1.85702e-02   8.73793e-05 DIIS
   @RHF iter  10:  -322.83727986272476   -1.27751e-03   3.43084e-05 DIIS
   @RHF iter  11:  -322.83756420220953   -2.84339e-04   2.01497e-05 DIIS
   @RHF iter  12:  -322.83767993260648   -1.15730e-04   7.74533e-06 DIIS
   @RHF iter  13:  -322.83771449953787   -3.45669e-05   3.13413e-06 DIIS
   @RHF iter  14:  -322.83771996072829   -5.46119e-06   1.19041e-06 DIIS
   @RHF iter  15:  -322.83772073932920   -7.78601e-07   4.17077e-07 DIIS
   @RHF iter  16:  -322.83772080714965   -6.78205e-08   1.02026e-07 DIIS
   @RHF iter  17:  -322.83772080930970   -2.16005e-09   2.33550e-08 DIIS
   @RHF iter  18:  -322.83772080944567   -1.35969e-10   5.92518e-09 DIIS

  ==> Post-Iterations <==

	Orbital Energies (a.u.)
	-----------------------

	Doubly Occupied:                                                      

	   1A    -20.497847     2A    -15.587128     3A    -11.294268  
	   4A    -11.294250     5A    -11.276971     6A    -11.257214  
	   7A    -11.257166     8A     -1.297511     9A     -1.275703  
	  10A     -1.107886    11A     -1.051716    12A     -0.877986  
	  13A     -0.875080    14A     -0.745682    15A     -0.679653  
	  16A     -0.678334    17A     -0.664632    18A     -0.615361  
	  19A     -0.591754    20A     -0.561893    21A     -0.536979  
	  22A     -0.535121    23A     -0.449392    24A     -0.433827  
	  25A     -0.404104    26A     -0.363861  

	Virtual:                                                              

	  27A      0.021206    28A      0.030111    29A      0.035216  
	  30A      0.047916    31A      0.049326    32A      0.062063  
	  33A      0.070008    34A      0.077558    35A      0.088554  
	  36A      0.089620    37A      0.099583    38A      0.103054  
	  39A      0.105836    40A      0.109915    41A      0.111779  
	  42A      0.115918    43A      0.124499    44A      0.131304  
	  45A      0.134865    46A      0.140701    47A      0.144868  
	  48A      0.148311    49A      0.151727    50A      0.155114  
	  51A      0.156348    52A      0.189392    53A      0.220494  
	  54A      0.227368    55A      0.235108    56A      0.235527  
	  57A      0.237577    58A      0.244393    59A      0.247284  
	  60A      0.250979    61A      0.260700    62A      0.272179  
	  63A      0.276764    64A      0.280680    65A      0.288701  
	  66A      0.291935    67A      0.294943    68A      0.297159  
	  69A      0.303187    70A      0.310189    71A      0.316632  
	  72A      0.319885    73A      0.326615    74A      0.331452  
	  75A      0.341326    76A      0.348940    77A      0.361953  
	  78A      0.364832    79A      0.370019    80A      0.386651  
	  81A      0.396713    82A      0.401518    83A      0.406705  
	  84A      0.415634    85A      0.420287    86A      0.431758  
	  87A      0.438950    88A      0.443673    89A      0.449067  
	  90A      0.451831    91A      0.455724    92A      0.457398  
	  93A      0.461918    94A      0.474465    95A      0.477401  
	  96A      0.485704    97A      0.487915    98A      0.490226  
	  99A      0.498660   100A      0.516405   101A      0.518654  
	 102A      0.520067   103A      0.528079   104A      0.533220  
	 105A      0.536645   106A      0.559138   107A      0.581770  
	 108A      0.589960   109A      0.594420   110A      0.609318  
	 111A      0.612515   112A      0.618582   113A      0.625718  
	 114A      0.626411   115A      0.635914   116A      0.644692  
	 117A      0.648557   118A      0.675049   119A      0.682247  
	 120A      0.697444   121A      0.701246   122A      0.710651  
	 123A      0.710841   124A      0.716927   125A      0.741242  
	 126A      0.749887   127A      0.756626   128A      0.780481  
	 129A      0.784710   130A      0.795053   131A      0.797945  
	 132A      0.807563   133A      0.814531   134A      0.815949  
	 135A      0.816689   136A      0.833902   137A      0.847946  
	 138A      0.849922   139A      0.867456   140A      0.867907  
	 141A      0.872168   142A      0.881712   143A      0.894636  
	 144A      0.897308   145A      0.907510   146A      0.917942  
	 147A      0.920801   148A      0.928506   149A      0.938498  
	 150A      0.940726   151A      0.949293   152A      0.976012  
	 153A      0.977306   154A      0.983525   155A      0.986454  
	 156A      0.998877   157A      1.002893   158A      1.002949  
	 159A      1.007468   160A      1.011564   161A      1.022991  
	 162A      1.031630   163A      1.033073   164A      1.039405  
	 165A      1.061999   166A      1.065213   167A      1.074642  
	 168A      1.075122   169A      1.086215   170A      1.090815  
	 171A      1.098180   172A      1.106156   173A      1.106554  
	 174A      1.113559   175A      1.125795   176A      1.135149  
	 177A      1.162611   178A      1.171955   179A      1.176312  
	 180A      1.177418   181A      1.178334   182A      1.184207  
	 183A      1.192597   184A      1.197173   185A      1.204691  
	 186A      1.216284   187A      1.225311   188A      1.235051  
	 189A      1.238388   190A      1.243946   191A      1.255865  
	 192A      1.269589   193A      1.288162   194A      1.295952  
	 195A      1.311950   196A      1.319662   197A      1.348760  
	 198A      1.349512   199A      1.366264   200A      1.375873  
	 201A      1.387232   202A      1.396086   203A      1.403133  
	 204A      1.411309   205A      1.414947   206A      1.426100  
	 207A      1.457953   208A      1.480855   209A      1.494707  
	 210A      1.504134   211A      1.512444   212A      1.515298  
	 213A      1.530980   214A      1.549359   215A      1.560124  
	 216A      1.580673   217A      1.593466   218A      1.610737  
	 219A      1.630203   220A      1.634982   221A      1.658340  
	 222A      1.668121   223A      1.681027   224A      1.690377  
	 225A      1.695199   226A      1.696952   227A      1.715968  
	 228A      1.720003   229A      1.728023   230A      1.736078  
	 231A      1.786540   232A      1.787170   233A      1.792305  
	 234A      1.816340   235A      1.836214   236A      1.848260  
	 237A      1.849449   238A      1.872043   239A      1.890613  
	 240A      1.890834   241A      1.906082   242A      1.942980  
	 243A      1.960732   244A      1.964214   245A      1.965244  
	 246A      1.981405   247A      2.010427   248A      2.012102  
	 249A      2.014931   250A      2.026949   251A      2.027564  
	 252A      2.028597   253A      2.046636   254A      2.062605  
	 255A      2.069762   256A      2.075320   257A      2.118615  
	 258A      2.132204   259A      2.144372   260A      2.160068  
	 261A      2.172804   262A      2.196893   263A      2.222329  
	 264A      2.223934   265A      2.244389   266A      2.269165  
	 267A      2.285181   268A      2.315184   269A      2.336149  
	 270A      2.340033   271A      2.391047   272A      2.394952  
	 273A      2.412204   274A      2.416446   275A      2.424794  
	 276A      2.434454   277A      2.440522   278A      2.459255  
	 279A      2.505521   280A      2.508508   281A      2.530806  
	 282A      2.551698   283A      2.555075   284A      2.593102  
	 285A      2.650638   286A      2.661406   287A      2.663130  
	 288A      2.665882   289A      2.722801   290A      2.729575  
	 291A      2.761646   292A      2.795865   293A      2.817161  
	 294A      2.827685   295A      2.830833   296A      2.875884  
	 297A      2.897892   298A      2.903337   299A      2.924995  
	 300A      2.926895   301A      2.962118   302A      2.978329  
	 303A      2.990493   304A      3.095275   305A      3.122835  
	 306A      3.130352   307A      3.140648   308A      3.168878  
	 309A      3.174711   310A      3.238143   311A      3.238214  
	 312A      3.272795   313A      3.304548   314A      3.313386  
	 315A      3.336291   316A      3.342059   317A      3.362603  
	 318A      3.380786   319A      3.410785   320A      3.425794  
	 321A      3.438419   322A      3.449175   323A      3.479738  
	 324A      3.498248   325A      3.499286   326A      3.522268  
	 327A      3.536359   328A      3.549121   329A      3.553159  
	 330A      3.579765   331A      3.650464   332A      3.669220  
	 333A      3.678510   334A      3.692388   335A      3.701129  
	 336A      3.706024   337A      3.750436   338A      3.772062  
	 339A      3.778592   340A      3.783548   341A      3.813594  
	 342A      3.845938   343A      3.848717   344A      3.857728  
	 345A      3.871473   346A      3.880536   347A      3.896150  
	 348A      3.910228   349A      3.917295   350A      3.926080  
	 351A      3.958841   352A      3.999343   353A      4.003021  
	 354A      4.023786   355A      4.045119   356A      4.069244  
	 357A      4.074591   358A      4.088173   359A      4.114710  
	 360A      4.115834   361A      4.141302   362A      4.166830  
	 363A      4.181154   364A      4.193373   365A      4.199762  
	 366A      4.221796   367A      4.226977   368A      4.234975  
	 369A      4.246452   370A      4.261544   371A      4.304741  
	 372A      4.324904   373A      4.330318   374A      4.363935  
	 375A      4.388408   376A      4.397034   377A      4.402779  
	 378A      4.404462   379A      4.412720   380A      4.431280  
	 381A      4.452208   382A      4.462179   383A      4.478702  
	 384A      4.499706   385A      4.508633   386A      4.539901  
	 387A      4.541588   388A      4.585384   389A      4.602108  
	 390A      4.633769   391A      4.675766   392A      4.688404  
	 393A      4.700376   394A      4.743523   395A      4.750076  
	 396A      4.773372   397A      4.784303   398A      4.830968  
	 399A      4.849583   400A      4.900011   401A      4.903863  
	 402A      4.915109   403A      4.953296   404A      4.954347  
	 405A      4.968318   406A      4.988647   407A      5.029165  
	 408A      5.038016   409A      5.056943   410A      5.061551  
	 411A      5.101617   412A      5.118901   413A      5.133174  
	 414A      5.151055   415A      5.159489   416A      5.194100  
	 417A      5.210869   418A      5.246633   419A      5.248348  
	 420A      5.288175   421A      5.298696   422A      5.343162  
	 423A      5.377094   424A      5.408746   425A      5.436146  
	 426A      5.448641   427A      5.477305   428A      5.480141  
	 429A      5.519422   430A      5.535027   431A      5.605994  
	 432A      5.628563   433A      5.660127   434A      5.707042  
	 435A      5.747638   436A      5.792449   437A      5.822780  
	 438A      5.846015   439A      5.856625   440A      5.911133  
	 441A      5.916757   442A      5.930052   443A      5.942302  
	 444A      5.972443   445A      6.011833   446A      6.066407  
	 447A      6.119258   448A      6.183818   449A      6.231681  
	 450A      6.245262   451A      6.348288   452A      6.433608  
	 453A      6.496498   454A      6.554010   455A      6.650197  
	 456A      6.664098   457A      6.728533   458A      6.740339  
	 459A      6.765265   460A      6.881325   461A      6.899151  
	 462A      6.993402   463A      7.096738   464A      7.114173  
	 465A      7.133209   466A      7.273424   467A      7.389685  
	 468A      7.463984   469A      7.473058   470A      7.559425  
	 471A      7.675555   472A      7.804483   473A      7.918754  
	 474A      8.154080   475A      8.242580   476A      9.087278  
	 477A     15.739794   478A     16.344623   479A     17.411618  
	 480A     18.775691   481A     19.199587   482A     19.414456  
	 483A     19.545989  

	Final Occupation by Irrep:
	          A 
	DOCC [    26 ]

  Energy converged.

  @RHF Final Energy:  -322.83772080944567

   => Energetics <=

    Nuclear Repulsion Energy =            274.7980375872224954
    One-Electron Energy =                -982.8488904322427970
    Two-Electron Energy =                 385.2131320355738922
    DFT Exchange-Correlation Energy =       0.0000000000000000
    Empirical Dispersion Energy =           0.0000000000000000
    Total Energy =                       -322.8377208094463526



Properties will be evaluated at   0.000000,   0.000000,   0.000000 Bohr
  ==> Properties <==


Properties computed using the SCF density density matrix
  Nuclear Dipole Moment: (a.u.)
     X:     0.1521      Y:     0.6827      Z:     0.0003

  Electronic Dipole Moment: (a.u.)
     X:     1.8070      Y:    -0.1049      Z:     0.0002

  Dipole Moment: (a.u.)
[...]

       1A    -15.566715     2A    -11.275247     3A    -11.275230  
       4A    -11.260480     5A    -11.242472     6A    -11.242420  
       7A     -1.256674     8A     -1.089782     9A     -1.034701  
      10A     -0.859694    11A     -0.856457    12A     -0.722526  
      13A     -0.660930    14A     -0.654809    15A     -0.599653  
      16A     -0.577308    17A     -0.541452    18A     -0.521022  
      19A     -0.418641    20A     -0.383865    21A     -0.348533  

    Virtual:                                                              

      22A      0.025904    23A      0.032748    24A      0.033260  
      25A      0.044482    26A      0.048778    27A      0.058007  
      28A      0.067830    29A      0.082591    30A      0.091271  
      31A      0.100319    32A      0.100455    33A      0.105795  
      34A      0.107383    35A      0.109198    36A      0.115734  
      37A      0.117699    38A      0.122149    39A      0.129103  
      40A      0.129319    41A      0.140188    42A      0.140817  
      43A      0.147740    44A      0.148771    45A      0.151366  
      46A      0.158235    47A      0.160176    48A      0.179813  
      49A      0.183888    50A      0.189352    51A      0.224357  
      52A      0.241500    53A      0.241673    54A      0.244515  
      55A      0.245525    56A      0.255841    57A      0.266060  
      58A      0.271732    59A      0.275185    60A      0.283104  
      61A      0.291324    62A      0.292006    63A      0.299116  
      64A      0.303693    65A      0.304218    66A      0.306004  
      67A      0.310676    68A      0.321551    69A      0.331667  
      70A      0.336021    71A      0.336557    72A      0.341080  
      73A      0.347733    74A      0.356546    75A      0.364788  
      76A      0.372782    77A      0.382435    78A      0.385821  
      79A      0.393594    80A      0.403072    81A      0.409791  
      82A      0.414022    83A      0.431006    84A      0.432727  
      85A      0.434811    86A      0.443424    87A      0.451865  
      88A      0.453256    89A      0.461425    90A      0.466996  
      91A      0.467585    92A      0.472631    93A      0.485631  
      94A      0.485733    95A      0.493173    96A      0.498892  
      97A      0.500963    98A      0.510578    99A      0.514776  
     100A      0.536659   101A      0.540148   102A      0.547148  
     103A      0.551903   104A      0.559931   105A      0.571893  
     106A      0.597592   107A      0.611200   108A      0.620139  
     109A      0.621696   110A      0.622489   111A      0.634641  
     112A      0.650836   113A      0.651271   114A      0.659490  
     115A      0.662147   116A      0.687372   117A      0.699289  
     118A      0.712009   119A      0.717558   120A      0.723580  
     121A      0.732707   122A      0.739127   123A      0.773735  
     124A      0.775689   125A      0.776668   126A      0.781729  
     127A      0.791723   128A      0.793855   129A      0.799374  
     130A      0.815474   131A      0.819207   132A      0.820656  
     133A      0.836163   134A      0.839042   135A      0.847785  
     136A      0.847961   137A      0.868074   138A      0.869395  
     139A      0.879604   140A      0.882210   141A      0.888610  
     142A      0.894029   143A      0.899084   144A      0.908487  
     145A      0.917834   146A      0.928538   147A      0.929648  
     148A      0.939153   149A      0.940792   150A      0.944001  
     151A      0.955541   152A      0.955886   153A      0.959348  
     154A      0.969493   155A      0.984360   156A      0.987451  
     157A      0.995310   158A      1.007309   159A      1.011920  
     160A      1.013232   161A      1.014674   162A      1.028735  
     163A      1.037731   164A      1.042246   165A      1.046967  
     166A      1.055019   167A      1.065343   168A      1.072494  
     169A      1.078761   170A      1.086521   171A      1.091875  
     172A      1.096928   173A      1.107556   174A      1.116812  
     175A      1.121472   176A      1.132393   177A      1.140583  
     178A      1.157645   179A      1.169201   180A      1.173121  
     181A      1.184676   182A      1.189129   183A      1.193481  
     184A      1.196915   185A      1.200959   186A      1.201397  
     187A      1.214843   188A      1.223622   189A      1.223802  
     190A      1.232308   191A      1.234368   192A      1.246431  
     193A      1.266092   194A      1.279041   195A      1.286761  
     196A      1.288685   197A      1.306318   198A      1.308855  
     199A      1.309457   200A      1.369136   201A      1.377593  
     202A      1.404759   203A      1.424626   204A      1.444042  
     205A      1.453405   206A      1.464920   207A      1.482337  
     208A      1.497002   209A      1.505209   210A      1.514672  
     211A      1.515410   212A      1.534644   213A      1.548157  
     214A      1.558974   215A      1.590811   216A      1.599621  
     217A      1.640249   218A      1.656585   219A      1.686245  
     220A      1.688130   221A      1.693836   222A      1.708069  
     223A      1.711214   224A      1.711800   225A      1.721785  
     226A      1.722730   227A      1.739860   228A      1.757919  
     229A      1.784485   230A      1.786592   231A      1.789643  
     232A      1.806491   233A      1.829120   234A      1.835396  
     235A      1.842567   236A      1.852480   237A      1.859829  
     238A      1.874724   239A      1.889863   240A      1.898569  
     241A      1.922948   242A      1.947962   243A      1.956780  
     244A      1.964728   245A      1.977176   246A      1.986513  
     247A      2.024607   248A      2.026876   249A      2.031610  
     250A      2.038939   251A      2.040921   252A      2.048732  
     253A      2.069959   254A      2.093473   255A      2.104749  
     256A      2.108865   257A      2.140244   258A      2.161218  
     259A      2.161577   260A      2.163980   261A      2.165562  
     262A      2.216966   263A      2.222662   264A      2.252542  
     265A      2.253595   266A      2.295322   267A      2.323271  
     268A      2.360615   269A      2.380792   270A      2.387056  
     271A      2.414401   272A      2.429436   273A      2.430446  
     274A      2.431884   275A      2.449228   276A      2.452780  
     277A      2.514772   278A      2.534691   279A      2.544712  
     280A      2.548666   281A      2.557464   282A      2.560376  
     283A      2.570900   284A      2.597951   285A      2.613047  
     286A      2.651430   287A      2.659435   288A      2.664150  
     289A      2.675539   290A      2.686877   291A      2.814033  
     292A      2.817279   293A      2.826581   294A      2.904438  
     295A      2.929534   296A      2.929676   297A      2.982431  
     298A      2.992456   299A      3.048855   300A      3.052872  
     301A      3.136245   302A      3.165630   303A      3.172171  
     304A      3.172883   305A      3.181150   306A      3.207381  
     307A      3.248704   308A      3.269884   309A      3.308521  
     310A      3.309699   311A      3.317418   312A      3.329978  
     313A      3.341661   314A      3.359253   315A      3.375769  
     316A      3.388981   317A      3.410033   318A      3.412410  
     319A      3.430214   320A      3.436428   321A      3.460257  
     322A      3.477799   323A      3.501866   324A      3.533900  
     325A      3.544243   326A      3.551410   327A      3.553261  
     328A      3.565174   329A      3.574925   330A      3.580968  
     331A      3.637665   332A      3.660606   333A      3.687845  
     334A      3.704565   335A      3.713062   336A      3.728528  
     337A      3.739855   338A      3.775078   339A      3.775815  
     340A      3.798386   341A      3.825765   342A      3.841034  
     343A      3.869162   344A      3.870417   345A      3.880292  
     346A      3.895311   347A      3.927706   348A      3.928041  
     349A      3.954181   350A      3.977571   351A      3.992319  
     352A      3.996155   353A      4.034983   354A      4.047110  
     355A      4.082384   356A      4.098395   357A      4.100412  
     358A      4.131441   359A      4.140826   360A      4.144640  
     361A      4.150209   362A      4.173924   363A      4.206470  
     364A      4.225711   365A      4.228779   366A      4.229989  
     367A      4.267404   368A      4.279763   369A      4.332232  
     370A      4.362636   371A      4.374725   372A      4.387243  
     373A      4.414181   374A      4.433257   375A      4.437853  
     376A      4.440590   377A      4.441808   378A      4.469462  
     379A      4.474135   380A      4.521383   381A      4.521917  
     382A      4.522979   383A      4.567075   384A      4.603139  
     385A      4.654521   386A      4.660761   387A      4.672874  
     388A      4.675822   389A      4.695888   390A      4.748084  
     391A      4.758553   392A      4.807813   393A      4.840337  
     394A      4.872441   395A      4.876863   396A      4.877012  
     397A      4.891664   398A      4.904553   399A      4.905002  
     400A      4.936384   401A      4.968493   402A      4.973178  
     403A      4.992130   404A      5.026109   405A      5.039650  
     406A      5.062924   407A      5.082610   408A      5.107627  
     409A      5.125910   410A      5.143498   411A      5.146421  
     412A      5.197716   413A      5.214056   414A      5.223698  
     415A      5.234595   416A      5.239089   417A      5.344409  
     418A      5.386533   419A      5.397916   420A      5.408548  
     421A      5.437316   422A      5.447497   423A      5.480769  
     424A      5.519956   425A      5.536552   426A      5.551983  
     427A      5.591466   428A      5.612014   429A      5.613671  
     430A      5.652044   431A      5.658168   432A      5.783606  
     433A      5.796221   434A      5.817729   435A      5.854047  
     436A      5.863944   437A      5.871731   438A      5.911793  
     439A      5.919781   440A      5.980781   441A      6.080989  
     442A      6.129329   443A      6.133001   444A      6.204170  
     445A      6.228338   446A      6.306405   447A      6.385219  
     448A      6.415580   449A      6.510607   450A      6.618223  
     451A      6.670454   452A      6.686997   453A      6.689507  
     454A      6.743706   455A      6.835299   456A      6.881470  
     457A      7.061917   458A      7.086075   459A      7.100289  
     460A      7.488029   461A      7.672357   462A      7.834943  
     463A      8.047525   464A      8.157049   465A      8.292159  
     466A      8.749534   467A      8.845466   468A      9.635826  
     469A      9.847238   470A     10.011866   471A     10.230915  
     472A     11.222980   473A     11.630502   474A     12.070233  
     475A     13.504218   476A     13.845852   477A     15.560099  
     478A     16.304781   479A     18.349620   480A     18.675781  
     481A     19.224239   482A     19.278560   483A     64.538853  

    Final Occupation by Irrep:
              A 
    DOCC [    21 ]

  @DF-RHF Final Energy:  -246.77876385306141

   => Energetics <=

    Nuclear Repulsion Energy =            206.2855300523885091
    One-Electron Energy =                -741.3513704415989878
    Two-Electron Energy =                 288.2870765361491294
    Total Energy =                       -246.7787638530613776

Computation Completed


Properties will be evaluated at   0.000000,   0.000000,   0.000000 [a0]

Properties computed using the SCF density matrix

  Nuclear Dipole Moment: [e a0]
     X:    92.0943      Y:     2.3676      Z:     0.0131

  Electronic Dipole Moment: [e a0]
     X:   -91.1844      Y:    -2.4137      Z:    -0.0131

  Dipole Moment: [e a0]
     X:     0.9099      Y:    -0.0461      Z:    -0.0001     Total:     0.9111

  Dipole Moment: [D]
     X:     2.3128      Y:    -0.1172      Z:    -0.0002     Total:     2.3158


*** tstop() called on node43.bme.utexas.edu at Thu Apr 23 23:15:42 2020
Module time:
	user time   =      80.40 seconds =       1.34 minutes
	system time =       1.91 seconds =       0.03 minutes
	total time  =         11 seconds =       0.18 minutes
Total time:
	user time   =     263.80 seconds =       4.40 minutes
	system time =       7.10 seconds =       0.12 minutes
	total time  =         38 seconds =       0.63 minutes
  Constructing Basis Sets for SAPT...

   => Loading Basis Set <=

    Name: (AUG-CC-PVTZ AUX)
    Role: RIFIT
    Keyword: DF_BASIS_SAPT
    atoms 1                     entry O          line   264 file /home/liuchw/anaconda3/envs/psi4env/share/psi4/basis/aug-cc-pvtz-ri.gbs 
    atoms 2-3, 6, 8, 10, 12, 14 entry H          line    30 file /home/liuchw/anaconda3/envs/psi4env/share/psi4/basis/aug-cc-pvtz-ri.gbs 
    atoms 4                     entry N          line   206 file /home/liuchw/anaconda3/envs/psi4env/share/psi4/basis/aug-cc-pvtz-ri.gbs 
    atoms 5, 7, 9, 11, 13       entry C          line   148 file /home/liuchw/anaconda3/envs/psi4env/share/psi4/basis/aug-cc-pvtz-ri.gbs 


  //>>>>>>>>>>>>>>>>>>>>>>>>>>>>>>>>>>>//
  //               SAPT2+              //
  //<<<<<<<<<<<<<<<<<<<<<<<<<<<<<<<<<<<//


*** tstart() called on node43.bme.utexas.edu
*** at Thu Apr 23 23:15:42 2020

        SAPT2+  
    Ed Hohenstein
     6 June 2009

      Orbital Information
  --------------------------
    NSO        =       483
    NMO        =       483
    NRI        =      1064
    NOCC A     =         5
    NOCC B     =        21
    FOCC A     =         1
    FOCC B     =         6
    NVIR A     =       478
    NVIR B     =       462

    Estimated memory usage: 4363.1 MB

    Natural Orbital Cutoff:   1.000E-06
    Disp(T3) Truncation:            Yes
    CCD (vv|vv) Truncation:         Yes
    MBPT T2 Truncation:             Yes

    Monomer A: 401 virtual orbitals dropped
    Monomer B: 135 virtual orbitals dropped

    Elst10,r            =    -0.001981368431 [Eh]
    Exch10 (S^2)        =     0.000031657093 [Eh]
    Exch10              =     0.000031658400 [Eh]
    Ind20,r (A<-B)      =    -0.000039905290 [Eh]
    Ind20,r (B<-A)      =    -0.000065485105 [Eh]
    Ind20,r             =    -0.000105390396 [Eh]
    Exch-Ind20,r (A<-B) =     0.000000380732 [Eh]
    Exch-Ind20,r (B<-A) =     0.000006051328 [Eh]
    Exch-Ind20,r        =     0.000006432060 [Eh]
    Disp20              =    -0.000282545762 [Eh]
    Disp20 (NO)         =    -0.000264969558 [Eh]
    Exch-Disp20         =     0.000004019407 [Eh]
    Elst12,r            =     0.000055574962 [Eh]
    Exch11              =    -0.000000271339 [Eh]
    Exch12              =     0.000014418992 [Eh]
    Ind22               =    -0.000005491491 [Eh]
    Disp21              =     0.000037601318 [Eh]
    Disp22 (SDQ)        =    -0.000006769955 [Eh]

    (i =   1 of  15)          2 seconds
    (i =   2 of  15)          4 seconds
    (i =   3 of  15)          6 seconds
    (i =   4 of  15)          8 seconds
    (i =   5 of  15)         10 seconds
    (i =   6 of  15)         12 seconds
    (i =   7 of  15)         14 seconds
    (i =   8 of  15)         16 seconds
    (i =   9 of  15)         17 seconds
    (i =  10 of  15)         19 seconds
    (i =  11 of  15)         21 seconds
    (i =  12 of  15)         23 seconds
    (i =  13 of  15)         25 seconds
    (i =  14 of  15)         27 seconds
    (i =  15 of  15)         29 seconds

    Disp220 (T)         =    -0.000028618422 [Eh]

    (i =   1 of   4)         58 seconds
    (i =   2 of   4)        112 seconds
    (i =   3 of   4)        166 seconds
    (i =   4 of   4)        220 seconds

    Disp202 (T)         =    -0.000032042637 [Eh]

    Disp22 (T)          =    -0.000060661059 [Eh]

    Est. Disp220 (T)    =    -0.000030516766 [Eh]
    Est. Disp202 (T)    =    -0.000034168118 [Eh]

    Est. Disp22 (T)     =    -0.000064684884 [Eh]

    SAPT Results 
  --------------------------------------------------------------------------------------------------------
    Electrostatics                 -1.92579347 [mEh]      -1.20845365 [kcal/mol]      -5.05617006 [kJ/mol]
      Elst10,r                     -1.98136843 [mEh]      -1.24332746 [kcal/mol]      -5.20208210 [kJ/mol]
      Elst12,r                      0.05557496 [mEh]       0.03487382 [kcal/mol]       0.14591204 [kJ/mol]

    Exchange                        0.04580605 [mEh]       0.02874373 [kcal/mol]       0.12026377 [kJ/mol]
      Exch10                        0.03165840 [mEh]       0.01986595 [kcal/mol]       0.08311912 [kJ/mol]
      Exch10(S^2)                   0.03165709 [mEh]       0.01986513 [kcal/mol]       0.08311569 [kJ/mol]
      Exch11(S^2)                  -0.00027134 [mEh]      -0.00017027 [kcal/mol]      -0.00071240 [kJ/mol]
      Exch12(S^2)                   0.01441899 [mEh]       0.00904805 [kcal/mol]       0.03785706 [kJ/mol]

    Induction                      -0.11212616 [mEh]      -0.07036023 [kcal/mol]      -0.29438720 [kJ/mol]
      Ind20,r                      -0.10539040 [mEh]      -0.06613347 [kcal/mol]      -0.27670245 [kJ/mol]
      Ind22                        -0.00549149 [mEh]      -0.00344596 [kcal/mol]      -0.01441791 [kJ/mol]
      Exch-Ind20,r                  0.00643206 [mEh]       0.00403618 [kcal/mol]       0.01688737 [kJ/mol]
      Exch-Ind22                    0.00033515 [mEh]       0.00021031 [kcal/mol]       0.00087994 [kJ/mol]
      delta HF,r (2)               -0.00801148 [mEh]      -0.00502728 [kcal/mol]      -0.02103415 [kJ/mol]

    Dispersion                     -0.31237988 [mEh]      -0.19602133 [kcal/mol]      -0.82015325 [kJ/mol]
      Disp20                       -0.28254576 [mEh]      -0.17730014 [kcal/mol]      -0.74182380 [kJ/mol]
      Disp21                        0.03760132 [mEh]       0.02359518 [kcal/mol]       0.09872225 [kJ/mol]
      Disp22 (SDQ)                 -0.00676995 [mEh]      -0.00424821 [kcal/mol]      -0.01777451 [kJ/mol]
      Disp22 (T)                   -0.06066106 [mEh]      -0.03806539 [kcal/mol]      -0.15926559 [kJ/mol]
      Est. Disp22 (T)              -0.06468488 [mEh]      -0.04059038 [kcal/mol]      -0.16983014 [kJ/mol]
      Exch-Disp20                   0.00401941 [mEh]       0.00252222 [kcal/mol]       0.01055295 [kJ/mol]

  Total HF                         -2.05667985 [mEh]      -1.29058609 [kcal/mol]      -5.39981221 [kJ/mol]
  Total SAPT0                      -2.33520621 [mEh]      -1.46536402 [kcal/mol]      -6.13108305 [kJ/mol]
  Total SAPT2                      -2.27063993 [mEh]      -1.42484807 [kcal/mol]      -5.96156432 [kJ/mol]
  Total SAPT2+                     -2.30449345 [mEh]      -1.44609147 [kcal/mol]      -6.05044673 [kJ/mol]

  Special recipe for scaled SAPT0 (see Manual):
    Electrostatics sSAPT0          -1.98136843 [mEh]      -1.24332746 [kcal/mol]      -5.20208210 [kJ/mol]
    Exchange sSAPT0                 0.03165840 [mEh]       0.01986595 [kcal/mol]       0.08311912 [kJ/mol]
    Induction sSAPT0               -0.10696902 [mEh]      -0.06712408 [kcal/mol]      -0.28084713 [kJ/mol]
    Dispersion sSAPT0              -0.27852586 [mEh]      -0.17477761 [kcal/mol]      -0.73126954 [kJ/mol]
  Total sSAPT0                     -2.33520491 [mEh]      -1.46536321 [kcal/mol]      -6.13107966 [kJ/mol]
  --------------------------------------------------------------------------------------------------------

*** tstop() called on node43.bme.utexas.edu at Thu Apr 23 23:27:11 2020
Module time:
	user time   =    5075.85 seconds =      84.60 minutes
	system time =     118.07 seconds =       1.97 minutes
	total time  =        689 seconds =      11.48 minutes
Total time:
	user time   =    5340.76 seconds =      89.01 minutes
	system time =     125.23 seconds =       2.09 minutes
	total time  =        727 seconds =      12.12 minutes

    Psi4 stopped on: Thursday, 23 April 2020 11:27PM
    Psi4 wall time for execution: 0:12:07.78

*** Psi4 exiting successfully. Buy a developer a beer!
