    -----------------------------------------------------------------------
          PSI4: An Open-Source Ab Initio Electronic Structure Package
                              PSI 4.0.0-beta4 Driver

    J. M. Turney, A. C. Simmonett, R. M. Parrish, E. G. Hohenstein,
    F. A. Evangelista, J. T. Fermann, B. J. Mintz, L. A. Burns, J. J. Wilke,
    M. L. Abrams, N. J. Russ, M. L. Leininger, C. L. Janssen, E. T. Seidl,
    W. D. Allen, H. F. Schaefer, R. A. King, E. F. Valeev, C. D. Sherrill,
    and T. D. Crawford, WIREs Comput. Mol. Sci., (2011) (doi: 10.1002/wcms.93)

                         Additional Contributions by
    A. E. DePrince, M. Saitow, U. Bozkaya, A. Yu. Sokolov
    -----------------------------------------------------------------------

    Process ID:  14302
    PSI4DATADIR: /home/xzhu216/psi4/psi4-install/share/psi

    Using LocalCommunicator (Number of processes = 1)

    Memory level set to 256.000 MB

  ==> Input File <==

--------------------------------------------------------------------------
#psi4
#
memory 7 gb

molecule Water_Pyridine {
0 1
    O    -0.552831024    -0.101697490    -0.000498788
    H    -0.871759633     0.801792198     0.000144400
    H     0.412659497    -0.001832248    -0.000251810
--
0 1
    N     2.007047299     0.078611761     0.000073881
    C     2.702953938     0.044640969     1.144821727
    H     2.118281387     0.068251911     2.055689755
    C     4.091977530    -0.020541463     1.194817791
    H     4.597883911    -0.045395618     2.149146913
    C     4.803140675    -0.053667261    -0.000093355
    H     5.882980626    -0.105440814    -0.000173783
    C     4.091832377    -0.020608118    -1.194894652
    H     4.597629324    -0.045481145    -2.149293253
    C     2.702802363     0.044586873    -1.144748392
    H     2.118033480     0.068187528    -2.055540945
units angstrom
no_reorient  #important for SAPT in psi4, default
symmetry c1  #important for SAPT in psi4, default
}

set {
basis aug-cc-pVTZ
scf_type DF
freeze_core True
}
energy('sapt2+')
--------------------------------------------------------------------------

  Memory set to   7.000 GiB by Python script.

  //>>>>>>>>>>>>>>>>>>>>>>>>>>>>>>>>>>>//
  //              Dimer HF             //
  //<<<<<<<<<<<<<<<<<<<<<<<<<<<<<<<<<<<//


  No DF_BASIS_SCF auxiliary basis selected, defaulting to aug-cc-pvtz-jkfit


*** tstart() called on node112.bme.utexas.edu
*** at Fri Feb 14 09:42:47 2014


         ---------------------------------------------------------
                                   SCF
            by Justin Turney, Rob Parrish, and Andy Simmonett
                              RHF Reference
                        4 Threads,   7000 MiB Core
         ---------------------------------------------------------

  ==> Geometry <==

    Molecular point group: c1
    Full point group: C1

    Geometry (in Angstrom), charge = 0, multiplicity = 1:

       Center              X                  Y                   Z       
    ------------   -----------------  -----------------  -----------------
           O         -3.221256674885    -0.103273628661    -0.000412371230
           H         -3.540185283885     0.800216059339     0.000230816770
           H         -2.255766153885    -0.003408386661    -0.000165393230
           N         -0.661378351885     0.077035622339     0.000160297770
           C          0.034528287115     0.043064830339     1.144908143770
           H         -0.550144263885     0.066675772339     2.055776171770
           C          1.423551879115    -0.022117601661     1.194904207770
           H          1.929458260115    -0.046971756661     2.149233329770
           C          2.134715024115    -0.055243399661    -0.000006938230
           H          3.214554975115    -0.107016952661    -0.000087366230
           C          1.423406726115    -0.022184256661    -1.194808235230
           H          1.929203673115    -0.047057283661    -2.149206836230
           C          0.034376712115     0.043010734339    -1.144661975230
           H         -0.550392170885     0.066611389339    -2.055454528230

  Running in c1 symmetry.

  Nuclear repulsion =  274.798037587222495

  Charge       = 0
  Multiplicity = 1
  Electrons    = 52
  Nalpha       = 26
  Nbeta        = 26

  ==> Algorithm <==

  SCF Algorithm Type is DF.
  DIIS enabled.
  MOM disabled.
  Fractional occupation disabled.
  Guess Type is CORE.
  Energy threshold   = 1.00e-08
  Density threshold  = 1.00e-08
  Integral threshold = 0.00e+00

  ==> Primary Basis <==

  Basis Set: AUG-CC-PVTZ
    Number of shells: 161
    Number of basis function: 483
    Number of Cartesian functions: 560
    Spherical Harmonics?: true
    Max angular momentum: 3

  ==> Pre-Iterations <==

   -------------------------------------------------------
    Irrep   Nso     Nmo     Nalpha   Nbeta   Ndocc  Nsocc
   -------------------------------------------------------
     A        483     483       0       0       0       0
   -------------------------------------------------------
    Total     483     483      26      26      26       0
   -------------------------------------------------------

 OEINTS: Wrapper to libmints.
   by Justin Turney

   Calculation information:
      Number of atoms:                  14
      Number of AO shells:             161
      Number of SO shells:             161
      Number of primitives:            287
      Number of atomic orbitals:       560
      Number of basis functions:       483

      Number of irreps:                  1
      Number of functions per irrep: [ 483 ]

      Overlap, kinetic, potential, dipole, and quadrupole integrals
        stored in file 35.

  ==> Integral Setup <==

  ==> DFJK: Density-Fitted J/K Matrices <==

    J tasked:                  Yes
    K tasked:                  Yes
    wK tasked:                  No
    OpenMP threads:              4
    Integrals threads:           4
    Memory (MB):              5006
    Algorithm:                Core
    Integral Cache:           SAVE
    Schwarz Cutoff:          0E+00
    Fitting Condition:       1E-12

   => Auxiliary Basis Set <=

  Basis Set: aug-cc-pvtz-jkfit
    Number of shells: 308
    Number of basis function: 1050
    Number of Cartesian functions: 1302
    Spherical Harmonics?: true
    Max angular momentum: 4

  Minimum eigenvalue in the overlap matrix is 2.0109061543E-06.
  Using Symmetric Orthogonalization.
  SCF Guess: Core (One-Electron) Hamiltonian.

  Guess energy:  -259.03544284644573

  ==> Iterations <==

                        Total Energy        Delta E     RMS |[F,P]|

   @RHF iter   1:  -219.96877087239380   -2.19969e+02   2.79133e-02 
   @RHF iter   2:   -63.69730532664374    1.56271e+02   3.94339e-02 DIIS
   @RHF iter   3:  -219.83526572635367   -1.56138e+02   1.80624e-02 DIIS
   @RHF iter   4:  -240.16520962843964   -2.03299e+01   2.11764e-02 DIIS
   @RHF iter   5:  -311.90805249419685   -7.17428e+01   7.96668e-03 DIIS
   @RHF iter   6:  -321.73578701205832   -9.82773e+00   3.09565e-03 DIIS
   @RHF iter   7:  -322.74722204009316   -1.01144e+00   9.12181e-04 DIIS
   @RHF iter   8:  -322.81743220001050   -7.02102e-02   3.67721e-04 DIIS
   @RHF iter   9:  -322.83600235012938   -1.85702e-02   8.73793e-05 DIIS
   @RHF iter  10:  -322.83727986272476   -1.27751e-03   3.43084e-05 DIIS
   @RHF iter  11:  -322.83756420220953   -2.84339e-04   2.01497e-05 DIIS
   @RHF iter  12:  -322.83767993260648   -1.15730e-04   7.74533e-06 DIIS
   @RHF iter  13:  -322.83771449953787   -3.45669e-05   3.13413e-06 DIIS
   @RHF iter  14:  -322.83771996072829   -5.46119e-06   1.19041e-06 DIIS
   @RHF iter  15:  -322.83772073932920   -7.78601e-07   4.17077e-07 DIIS
   @RHF iter  16:  -322.83772080714965   -6.78205e-08   1.02026e-07 DIIS
   @RHF iter  17:  -322.83772080930970   -2.16005e-09   2.33550e-08 DIIS
   @RHF iter  18:  -322.83772080944567   -1.35969e-10   5.92518e-09 DIIS

  ==> Post-Iterations <==

	Orbital Energies (a.u.)
	-----------------------

	Doubly Occupied:                                                      

	   1A    -20.497847     2A    -15.587128     3A    -11.294268  
	   4A    -11.294250     5A    -11.276971     6A    -11.257214  
	   7A    -11.257166     8A     -1.297511     9A     -1.275703  
	  10A     -1.107886    11A     -1.051716    12A     -0.877986  
	  13A     -0.875080    14A     -0.745682    15A     -0.679653  
	  16A     -0.678334    17A     -0.664632    18A     -0.615361  
	  19A     -0.591754    20A     -0.561893    21A     -0.536979  
	  22A     -0.535121    23A     -0.449392    24A     -0.433827  
	  25A     -0.404104    26A     -0.363861  

	Virtual:                                                              

	  27A      0.021206    28A      0.030111    29A      0.035216  
	  30A      0.047916    31A      0.049326    32A      0.062063  
	  33A      0.070008    34A      0.077558    35A      0.088554  
	  36A      0.089620    37A      0.099583    38A      0.103054  
	  39A      0.105836    40A      0.109915    41A      0.111779  
	  42A      0.115918    43A      0.124499    44A      0.131304  
	  45A      0.134865    46A      0.140701    47A      0.144868  
	  48A      0.148311    49A      0.151727    50A      0.155114  
	  51A      0.156348    52A      0.189392    53A      0.220494  
	  54A      0.227368    55A      0.235108    56A      0.235527  
	  57A      0.237577    58A      0.244393    59A      0.247284  
	  60A      0.250979    61A      0.260700    62A      0.272179  
	  63A      0.276764    64A      0.280680    65A      0.288701  
	  66A      0.291935    67A      0.294943    68A      0.297159  
	  69A      0.303187    70A      0.310189    71A      0.316632  
	  72A      0.319885    73A      0.326615    74A      0.331452  
	  75A      0.341326    76A      0.348940    77A      0.361953  
	  78A      0.364832    79A      0.370019    80A      0.386651  
	  81A      0.396713    82A      0.401518    83A      0.406705  
	  84A      0.415634    85A      0.420287    86A      0.431758  
	  87A      0.438950    88A      0.443673    89A      0.449067  
	  90A      0.451831    91A      0.455724    92A      0.457398  
	  93A      0.461918    94A      0.474465    95A      0.477401  
	  96A      0.485704    97A      0.487915    98A      0.490226  
	  99A      0.498660   100A      0.516405   101A      0.518654  
	 102A      0.520067   103A      0.528079   104A      0.533220  
	 105A      0.536645   106A      0.559138   107A      0.581770  
	 108A      0.589960   109A      0.594420   110A      0.609318  
	 111A      0.612515   112A      0.618582   113A      0.625718  
	 114A      0.626411   115A      0.635914   116A      0.644692  
	 117A      0.648557   118A      0.675049   119A      0.682247  
	 120A      0.697444   121A      0.701246   122A      0.710651  
	 123A      0.710841   124A      0.716927   125A      0.741242  
	 126A      0.749887   127A      0.756626   128A      0.780481  
	 129A      0.784710   130A      0.795053   131A      0.797945  
	 132A      0.807563   133A      0.814531   134A      0.815949  
	 135A      0.816689   136A      0.833902   137A      0.847946  
	 138A      0.849922   139A      0.867456   140A      0.867907  
	 141A      0.872168   142A      0.881712   143A      0.894636  
	 144A      0.897308   145A      0.907510   146A      0.917942  
	 147A      0.920801   148A      0.928506   149A      0.938498  
	 150A      0.940726   151A      0.949293   152A      0.976012  
	 153A      0.977306   154A      0.983525   155A      0.986454  
	 156A      0.998877   157A      1.002893   158A      1.002949  
	 159A      1.007468   160A      1.011564   161A      1.022991  
	 162A      1.031630   163A      1.033073   164A      1.039405  
	 165A      1.061999   166A      1.065213   167A      1.074642  
	 168A      1.075122   169A      1.086215   170A      1.090815  
	 171A      1.098180   172A      1.106156   173A      1.106554  
	 174A      1.113559   175A      1.125795   176A      1.135149  
	 177A      1.162611   178A      1.171955   179A      1.176312  
	 180A      1.177418   181A      1.178334   182A      1.184207  
	 183A      1.192597   184A      1.197173   185A      1.204691  
	 186A      1.216284   187A      1.225311   188A      1.235051  
	 189A      1.238388   190A      1.243946   191A      1.255865  
	 192A      1.269589   193A      1.288162   194A      1.295952  
	 195A      1.311950   196A      1.319662   197A      1.348760  
	 198A      1.349512   199A      1.366264   200A      1.375873  
	 201A      1.387232   202A      1.396086   203A      1.403133  
	 204A      1.411309   205A      1.414947   206A      1.426100  
	 207A      1.457953   208A      1.480855   209A      1.494707  
	 210A      1.504134   211A      1.512444   212A      1.515298  
	 213A      1.530980   214A      1.549359   215A      1.560124  
	 216A      1.580673   217A      1.593466   218A      1.610737  
	 219A      1.630203   220A      1.634982   221A      1.658340  
	 222A      1.668121   223A      1.681027   224A      1.690377  
	 225A      1.695199   226A      1.696952   227A      1.715968  
	 228A      1.720003   229A      1.728023   230A      1.736078  
	 231A      1.786540   232A      1.787170   233A      1.792305  
	 234A      1.816340   235A      1.836214   236A      1.848260  
	 237A      1.849449   238A      1.872043   239A      1.890613  
	 240A      1.890834   241A      1.906082   242A      1.942980  
	 243A      1.960732   244A      1.964214   245A      1.965244  
	 246A      1.981405   247A      2.010427   248A      2.012102  
	 249A      2.014931   250A      2.026949   251A      2.027564  
	 252A      2.028597   253A      2.046636   254A      2.062605  
	 255A      2.069762   256A      2.075320   257A      2.118615  
	 258A      2.132204   259A      2.144372   260A      2.160068  
	 261A      2.172804   262A      2.196893   263A      2.222329  
	 264A      2.223934   265A      2.244389   266A      2.269165  
	 267A      2.285181   268A      2.315184   269A      2.336149  
	 270A      2.340033   271A      2.391047   272A      2.394952  
	 273A      2.412204   274A      2.416446   275A      2.424794  
	 276A      2.434454   277A      2.440522   278A      2.459255  
	 279A      2.505521   280A      2.508508   281A      2.530806  
	 282A      2.551698   283A      2.555075   284A      2.593102  
	 285A      2.650638   286A      2.661406   287A      2.663130  
	 288A      2.665882   289A      2.722801   290A      2.729575  
	 291A      2.761646   292A      2.795865   293A      2.817161  
	 294A      2.827685   295A      2.830833   296A      2.875884  
	 297A      2.897892   298A      2.903337   299A      2.924995  
	 300A      2.926895   301A      2.962118   302A      2.978329  
	 303A      2.990493   304A      3.095275   305A      3.122835  
	 306A      3.130352   307A      3.140648   308A      3.168878  
	 309A      3.174711   310A      3.238143   311A      3.238214  
	 312A      3.272795   313A      3.304548   314A      3.313386  
	 315A      3.336291   316A      3.342059   317A      3.362603  
	 318A      3.380786   319A      3.410785   320A      3.425794  
	 321A      3.438419   322A      3.449175   323A      3.479738  
	 324A      3.498248   325A      3.499286   326A      3.522268  
	 327A      3.536359   328A      3.549121   329A      3.553159  
	 330A      3.579765   331A      3.650464   332A      3.669220  
	 333A      3.678510   334A      3.692388   335A      3.701129  
	 336A      3.706024   337A      3.750436   338A      3.772062  
	 339A      3.778592   340A      3.783548   341A      3.813594  
	 342A      3.845938   343A      3.848717   344A      3.857728  
	 345A      3.871473   346A      3.880536   347A      3.896150  
	 348A      3.910228   349A      3.917295   350A      3.926080  
	 351A      3.958841   352A      3.999343   353A      4.003021  
	 354A      4.023786   355A      4.045119   356A      4.069244  
	 357A      4.074591   358A      4.088173   359A      4.114710  
	 360A      4.115834   361A      4.141302   362A      4.166830  
	 363A      4.181154   364A      4.193373   365A      4.199762  
	 366A      4.221796   367A      4.226977   368A      4.234975  
	 369A      4.246452   370A      4.261544   371A      4.304741  
	 372A      4.324904   373A      4.330318   374A      4.363935  
	 375A      4.388408   376A      4.397034   377A      4.402779  
	 378A      4.404462   379A      4.412720   380A      4.431280  
	 381A      4.452208   382A      4.462179   383A      4.478702  
	 384A      4.499706   385A      4.508633   386A      4.539901  
	 387A      4.541588   388A      4.585384   389A      4.602108  
	 390A      4.633769   391A      4.675766   392A      4.688404  
	 393A      4.700376   394A      4.743523   395A      4.750076  
	 396A      4.773372   397A      4.784303   398A      4.830968  
	 399A      4.849583   400A      4.900011   401A      4.903863  
	 402A      4.915109   403A      4.953296   404A      4.954347  
	 405A      4.968318   406A      4.988647   407A      5.029165  
	 408A      5.038016   409A      5.056943   410A      5.061551  
	 411A      5.101617   412A      5.118901   413A      5.133174  
	 414A      5.151055   415A      5.159489   416A      5.194100  
	 417A      5.210869   418A      5.246633   419A      5.248348  
	 420A      5.288175   421A      5.298696   422A      5.343162  
	 423A      5.377094   424A      5.408746   425A      5.436146  
	 426A      5.448641   427A      5.477305   428A      5.480141  
	 429A      5.519422   430A      5.535027   431A      5.605994  
	 432A      5.628563   433A      5.660127   434A      5.707042  
	 435A      5.747638   436A      5.792449   437A      5.822780  
	 438A      5.846015   439A      5.856625   440A      5.911133  
	 441A      5.916757   442A      5.930052   443A      5.942302  
	 444A      5.972443   445A      6.011833   446A      6.066407  
	 447A      6.119258   448A      6.183818   449A      6.231681  
	 450A      6.245262   451A      6.348288   452A      6.433608  
	 453A      6.496498   454A      6.554010   455A      6.650197  
	 456A      6.664098   457A      6.728533   458A      6.740339  
	 459A      6.765265   460A      6.881325   461A      6.899151  
	 462A      6.993402   463A      7.096738   464A      7.114173  
	 465A      7.133209   466A      7.273424   467A      7.389685  
	 468A      7.463984   469A      7.473058   470A      7.559425  
	 471A      7.675555   472A      7.804483   473A      7.918754  
	 474A      8.154080   475A      8.242580   476A      9.087278  
	 477A     15.739794   478A     16.344623   479A     17.411618  
	 480A     18.775691   481A     19.199587   482A     19.414456  
	 483A     19.545989  

	Final Occupation by Irrep:
	          A 
	DOCC [    26 ]

  Energy converged.

  @RHF Final Energy:  -322.83772080944567

   => Energetics <=

    Nuclear Repulsion Energy =            274.7980375872224954
    One-Electron Energy =                -982.8488904322427970
    Two-Electron Energy =                 385.2131320355738922
    DFT Exchange-Correlation Energy =       0.0000000000000000
    Empirical Dispersion Energy =           0.0000000000000000
    Total Energy =                       -322.8377208094463526



Properties will be evaluated at   0.000000,   0.000000,   0.000000 Bohr
  ==> Properties <==


Properties computed using the SCF density density matrix
  Nuclear Dipole Moment: (a.u.)
     X:     0.1521      Y:     0.6827      Z:     0.0003

  Electronic Dipole Moment: (a.u.)
     X:     1.8070      Y:    -0.1049      Z:     0.0002

  Dipole Moment: (a.u.)
     X:     1.9591      Y:     0.5778      Z:     0.0005     Total:     2.0425

  Dipole Moment: (Debye)
     X:     4.9796      Y:     1.4686      Z:     0.0014     Total:     5.1916


  Saving occupied orbitals to File 180.

  Saving SAPT 2-DIMER file.

*** tstop() called on node112.bme.utexas.edu at Fri Feb 14 09:44:41 2014
Module time:
	user time   =     423.73 seconds =       7.06 minutes
	system time =       6.03 seconds =       0.10 minutes
	total time  =        114 seconds =       1.90 minutes
Total time:
	user time   =     423.73 seconds =       7.06 minutes
	system time =       6.03 seconds =       0.10 minutes
	total time  =        114 seconds =       1.90 minutes

  //>>>>>>>>>>>>>>>>>>>>>>>>>>>>>>>>>>>//
  //            Monomer A HF           //
  //<<<<<<<<<<<<<<<<<<<<<<<<<<<<<<<<<<<//


  No DF_BASIS_SCF auxiliary basis selected, defaulting to aug-cc-pvtz-jkfit


*** tstart() called on node112.bme.utexas.edu
*** at Fri Feb 14 09:44:41 2014


         ---------------------------------------------------------
                                   SCF
            by Justin Turney, Rob Parrish, and Andy Simmonett
                              RHF Reference
                        4 Threads,   7000 MiB Core
         ---------------------------------------------------------

  ==> Geometry <==

    Molecular point group: c1
    Full point group: C1

    Geometry (in Angstrom), charge = 0, multiplicity = 1:

       Center              X                  Y                   Z       
    ------------   -----------------  -----------------  -----------------
           O         -3.221256674885    -0.103273628661    -0.000412371230
           H         -3.540185283885     0.800216059339     0.000230816770
           H         -2.255766153885    -0.003408386661    -0.000165393230
           N(Gh)     -0.661378351885     0.077035622339     0.000160297770
           C(Gh)      0.034528287115     0.043064830339     1.144908143770
           H(Gh)     -0.550144263885     0.066675772339     2.055776171770
           C(Gh)      1.423551879115    -0.022117601661     1.194904207770
           H(Gh)      1.929458260115    -0.046971756661     2.149233329770
           C(Gh)      2.134715024115    -0.055243399661    -0.000006938230
           H(Gh)      3.214554975115    -0.107016952661    -0.000087366230
           C(Gh)      1.423406726115    -0.022184256661    -1.194808235230
           H(Gh)      1.929203673115    -0.047057283661    -2.149206836230
           C(Gh)      0.034376712115     0.043010734339    -1.144661975230
           H(Gh)     -0.550392170885     0.066611389339    -2.055454528230

  Running in c1 symmetry.

  Nuclear repulsion =    9.129156360765400

  Charge       = 0
  Multiplicity = 1
  Electrons    = 10
  Nalpha       = 5
  Nbeta        = 5

  ==> Algorithm <==

  SCF Algorithm Type is DF.
  DIIS enabled.
  MOM disabled.
  Fractional occupation disabled.
  Guess Type is CORE.
  Energy threshold   = 1.00e-08
  Density threshold  = 1.00e-08
  Integral threshold = 0.00e+00

  ==> Primary Basis <==

  Basis Set: AUG-CC-PVTZ
    Number of shells: 161
    Number of basis function: 483
    Number of Cartesian functions: 560
    Spherical Harmonics?: true
    Max angular momentum: 3

  ==> Pre-Iterations <==

   -------------------------------------------------------
    Irrep   Nso     Nmo     Nalpha   Nbeta   Ndocc  Nsocc
   -------------------------------------------------------
     A        483     483       0       0       0       0
   -------------------------------------------------------
    Total     483     483       5       5       5       0
   -------------------------------------------------------

 OEINTS: Wrapper to libmints.
   by Justin Turney

   Calculation information:
      Number of atoms:                  14
      Number of AO shells:             161
      Number of SO shells:             161
      Number of primitives:            287
      Number of atomic orbitals:       560
      Number of basis functions:       483

      Number of irreps:                  1
      Number of functions per irrep: [ 483 ]

      Overlap, kinetic, potential, dipole, and quadrupole integrals
        stored in file 35.

  ==> Integral Setup <==

  ==> DFJK: Density-Fitted J/K Matrices <==

    J tasked:                  Yes
    K tasked:                  Yes
    wK tasked:                  No
    OpenMP threads:              4
    Integrals threads:           4
    Memory (MB):              5006
    Algorithm:                Core
    Integral Cache:           LOAD
    Schwarz Cutoff:          0E+00
    Fitting Condition:       1E-12

   => Auxiliary Basis Set <=

  Basis Set: aug-cc-pvtz-jkfit
    Number of shells: 308
    Number of basis function: 1050
    Number of Cartesian functions: 1302
    Spherical Harmonics?: true
    Max angular momentum: 4

  Minimum eigenvalue in the overlap matrix is 2.0109061539E-06.
  Using Symmetric Orthogonalization.
  SCF Guess: Core (One-Electron) Hamiltonian.

  Guess energy:   -60.20398700335226

  ==> Iterations <==

                        Total Energy        Delta E     RMS |[F,P]|

   @RHF iter   1:   -61.27682062192584   -6.12768e+01   1.68143e-02 
   @RHF iter   2:   -61.52755831056438   -2.50738e-01   5.90008e-03 DIIS
   @RHF iter   3:   -72.53209824963221   -1.10045e+01   7.19825e-03 DIIS
   @RHF iter   4:   -75.10910643538318   -2.57701e+00   3.37643e-03 DIIS
   @RHF iter   5:   -76.03248844050208   -9.23382e-01   4.43635e-04 DIIS
   @RHF iter   6:   -76.05924576502639   -2.67573e-02   1.03828e-04 DIIS
   @RHF iter   7:   -76.06000837449085   -7.62609e-04   1.52591e-05 DIIS
   @RHF iter   8:   -76.06002777760199   -1.94031e-05   2.42865e-06 DIIS
   @RHF iter   9:   -76.06002837917981   -6.01578e-07   3.66629e-07 DIIS
   @RHF iter  10:   -76.06002839950500   -2.03252e-08   4.27968e-08 DIIS
   @RHF iter  11:   -76.06002839986564   -3.60643e-10   1.75285e-08 DIIS
   @RHF iter  12:   -76.06002839989944   -3.37934e-11   1.26843e-09 DIIS

  ==> Post-Iterations <==

	Orbital Energies (a.u.)
	-----------------------

	Doubly Occupied:                                                      

	   1A    -20.568742     2A     -1.350566     3A     -0.711976  
	   4A     -0.585370     5A     -0.510033  

	Virtual:                                                              

	   6A      0.014836     7A      0.029730     8A      0.031030  
	   9A      0.045876    10A      0.049481    11A      0.055022  
	  12A      0.061957    13A      0.074845    14A      0.085794  
	  15A      0.090306    16A      0.093033    17A      0.097523  
	  18A      0.101997    19A      0.112032    20A      0.113582  
	  21A      0.124424    22A      0.126447    23A      0.132761  
	  24A      0.138063    25A      0.138657    26A      0.144353  
	  27A      0.158924    28A      0.159286    29A      0.167698  
	  30A      0.180309    31A      0.187096    32A      0.189276  
	  33A      0.195569    34A      0.220486    35A      0.223898  
	  36A      0.228344    37A      0.240275    38A      0.256873  
	  39A      0.257844    40A      0.267096    41A      0.269590  
	  42A      0.281857    43A      0.284781    44A      0.285372  
	  45A      0.293865    46A      0.301767    47A      0.303002  
	  48A      0.309984    49A      0.320562    50A      0.330668  
	  51A      0.332754    52A      0.346636    53A      0.348897  
	  54A      0.358728    55A      0.361923    56A      0.363987  
	  57A      0.366240    58A      0.370062    59A      0.380163  
	  60A      0.381019    61A      0.383752    62A      0.401830  
	  63A      0.402894    64A      0.416622    65A      0.417399  
	  66A      0.419676    67A      0.428680    68A      0.429858  
	  69A      0.434911    70A      0.443177    71A      0.447852  
	  72A      0.463839    73A      0.468110    74A      0.478559  
	  75A      0.483489    76A      0.488806    77A      0.530276  
	  78A      0.547667    79A      0.550516    80A      0.559680  
	  81A      0.563975    82A      0.574395    83A      0.578511  
	  84A      0.586732    85A      0.599717    86A      0.607111  
	  87A      0.611500    88A      0.620449    89A      0.630258  
	  90A      0.631820    91A      0.643487    92A      0.658692  
	  93A      0.659753    94A      0.660282    95A      0.681626  
	  96A      0.681704    97A      0.692729    98A      0.698688  
	  99A      0.704726   100A      0.716540   101A      0.724075  
	 102A      0.730311   103A      0.738257   104A      0.744944  
	 105A      0.760104   106A      0.762287   107A      0.763141  
	 108A      0.777025   109A      0.785889   110A      0.798469  
	 111A      0.804209   112A      0.817756   113A      0.828847  
	 114A      0.841286   115A      0.850912   116A      0.855460  
	 117A      0.865126   118A      0.877885   119A      0.892574  
	 120A      0.893322   121A      0.903745   122A      0.916303  
	 123A      0.927951   124A      0.961005   125A      0.976650  
	 126A      0.978610   127A      0.982957   128A      0.984405  
	 129A      0.989178   130A      0.991916   131A      1.005164  
	 132A      1.023560   133A      1.026846   134A      1.034458  
	 135A      1.042593   136A      1.065798   137A      1.069278  
	 138A      1.073461   139A      1.076705   140A      1.081653  
	 141A      1.083354   142A      1.092043   143A      1.098281  
	 144A      1.102141   145A      1.109632   146A      1.129100  
	 147A      1.132015   148A      1.158589   149A      1.162925  
	 150A      1.166725   151A      1.167977   152A      1.176389  
	 153A      1.186888   154A      1.194574   155A      1.226269  
	 156A      1.246391   157A      1.252199   158A      1.256418  
	 159A      1.257359   160A      1.264994   161A      1.270724  
	 162A      1.286325   163A      1.293819   164A      1.301483  
	 165A      1.305724   166A      1.308606   167A      1.311907  
	 168A      1.319401   169A      1.327522   170A      1.329179  
	 171A      1.352892   172A      1.364152   173A      1.379035  
	 174A      1.382904   175A      1.402122   176A      1.420630  
	 177A      1.421287   178A      1.440369   179A      1.451777  
	 180A      1.452259   181A      1.458778   182A      1.470906  
	 183A      1.490245   184A      1.505041   185A      1.510038  
	 186A      1.518183   187A      1.534738   188A      1.541560  
	 189A      1.543689   190A      1.556610   191A      1.557223  
	 192A      1.575042   193A      1.587216   194A      1.593242  
	 195A      1.610009   196A      1.657776   197A      1.660081  
	 198A      1.666031   199A      1.667415   200A      1.682534  
	 201A      1.695955   202A      1.702072   203A      1.713669  
	 204A      1.716151   205A      1.724205   206A      1.745917  
	 207A      1.782342   208A      1.807261   209A      1.833644  
	 210A      1.835619   211A      1.851826   212A      1.876456  
	 213A      1.898918   214A      1.905166   215A      1.912554  
	 216A      1.944491   217A      1.954959   218A      1.960917  
	 219A      1.979222   220A      1.994357   221A      2.014836  
	 222A      2.018680   223A      2.037963   224A      2.062114  
	 225A      2.090540   226A      2.105070   227A      2.117112  
	 228A      2.147530   229A      2.181090   230A      2.190373  
	 231A      2.192180   232A      2.195458   233A      2.205376  
	 234A      2.219031   235A      2.226193   236A      2.233567  
	 237A      2.253095   238A      2.273178   239A      2.274294  
	 240A      2.311761   241A      2.321105   242A      2.321451  
	 243A      2.330576   244A      2.333431   245A      2.345990  
	 246A      2.356257   247A      2.364070   248A      2.397101  
	 249A      2.418398   250A      2.423222   251A      2.437222  
	 252A      2.456134   253A      2.475602   254A      2.482473  
	 255A      2.494156   256A      2.504358   257A      2.519668  
	 258A      2.536256   259A      2.537029   260A      2.554707  
	 261A      2.599144   262A      2.609097   263A      2.620039  
	 264A      2.624450   265A      2.645344   266A      2.661628  
	 267A      2.663827   268A      2.686618   269A      2.709799  
	 270A      2.746687   271A      2.776661   272A      2.790004  
	 273A      2.798476   274A      2.822035   275A      2.825489  
	 276A      2.835188   277A      2.874206   278A      2.891998  
	 279A      2.916943   280A      2.920449   281A      2.960444  
	 282A      2.983594   283A      2.990447   284A      3.020487  
	 285A      3.033446   286A      3.098369   287A      3.138334  
	 288A      3.173183   289A      3.221941   290A      3.252509  
	 291A      3.287360   292A      3.325911   293A      3.334581  
	 294A      3.467369   295A      3.534837   296A      3.538084  
	 297A      3.574169   298A      3.652338   299A      3.775997  
	 300A      3.800371   301A      3.818546   302A      3.952395  
	 303A      3.956395   304A      4.000225   305A      4.005589  
	 306A      4.010907   307A      4.016618   308A      4.022674  
	 309A      4.050570   310A      4.054833   311A      4.072626  
	 312A      4.092241   313A      4.107425   314A      4.117632  
	 315A      4.137727   316A      4.148633   317A      4.167582  
	 318A      4.181087   319A      4.218643   320A      4.239965  
	 321A      4.253224   322A      4.258563   323A      4.273135  
	 324A      4.299391   325A      4.325286   326A      4.334579  
	 327A      4.339624   328A      4.355869   329A      4.368891  
	 330A      4.387806   331A      4.393913   332A      4.413809  
	 333A      4.435727   334A      4.442742   335A      4.476534  
	 336A      4.478076   337A      4.497100   338A      4.509568  
	 339A      4.516402   340A      4.547374   341A      4.566202  
	 342A      4.595387   343A      4.625864   344A      4.629902  
	 345A      4.635301   346A      4.652241   347A      4.668922  
	 348A      4.694229   349A      4.713836   350A      4.753486  
	 351A      4.797702   352A      4.814949   353A      4.850011  
	 354A      4.854454   355A      4.899400   356A      4.911143  
	 357A      4.926053   358A      4.975077   359A      5.004785  
	 360A      5.007717   361A      5.008645   362A      5.010730  
	 363A      5.035250   364A      5.037535   365A      5.052243  
	 366A      5.069615   367A      5.122001   368A      5.126264  
	 369A      5.162932   370A      5.170981   371A      5.175346  
	 372A      5.201276   373A      5.214999   374A      5.220967  
	 375A      5.266790   376A      5.285899   377A      5.294416  
	 378A      5.317715   379A      5.358616   380A      5.359850  
	 381A      5.360598   382A      5.432197   383A      5.450654  
	 384A      5.457857   385A      5.468740   386A      5.480721  
	 387A      5.491437   388A      5.518300   389A      5.607667  
	 390A      5.630669   391A      5.685013   392A      5.698285  
	 393A      5.700127   394A      5.702599   395A      5.717136  
	 396A      5.760105   397A      5.777733   398A      5.783123  
	 399A      5.820706   400A      5.845848   401A      5.866914  
	 402A      5.899478   403A      6.028248   404A      6.032934  
	 405A      6.046164   406A      6.056515   407A      6.112653  
	 408A      6.126955   409A      6.146311   410A      6.246457  
	 411A      6.251722   412A      6.315782   413A      6.340809  
	 414A      6.359732   415A      6.379965   416A      6.413678  
	 417A      6.443696   418A      6.447722   419A      6.541011  
	 420A      6.616926   421A      6.682999   422A      6.728874  
	 423A      6.750616   424A      6.754105   425A      6.835331  
	 426A      6.860576   427A      6.922848   428A      6.948695  
	 429A      6.990208   430A      7.003672   431A      7.035102  
	 432A      7.074488   433A      7.091157   434A      7.121217  
	 435A      7.184675   436A      7.219361   437A      7.331559  
	 438A      7.352894   439A      7.388735   440A      7.447798  
	 441A      7.491446   442A      7.511300   443A      7.531171  
	 444A      7.551091   445A      7.604981   446A      7.634361  
	 447A      7.705048   448A      7.716943   449A      7.806126  
	 450A      7.841199   451A      7.866914   452A      7.869636  
	 453A      8.070566   454A      8.128462   455A      8.139791  
	 456A      8.182063   457A      8.212001   458A      8.296114  
	 459A      8.381525   460A      8.386915   461A      8.747518  
	 462A      8.790365   463A      9.104256   464A      9.133981  
	 465A      9.200114   466A      9.348159   467A      9.544349  
	 468A      9.892326   469A     10.050181   470A     10.229484  
	 471A     10.746068   472A     11.188319   473A     11.369843  
	 474A     11.484530   475A     12.256764   476A     12.308068  
	 477A     17.445457   478A     50.240358   479A     50.734631  
	 480A     54.477536   481A     55.241612   482A     55.711707  
	 483A     61.711686  

	Final Occupation by Irrep:
	          A 
	DOCC [     5 ]

  Energy converged.

  @RHF Final Energy:   -76.06002839989944

   => Energetics <=

    Nuclear Repulsion Energy =              9.1291563607653998
    One-Electron Energy =                -122.9249930604618584
    Two-Electron Energy =                  37.7358082997964530
    DFT Exchange-Correlation Energy =       0.0000000000000000
    Empirical Dispersion Energy =           0.0000000000000000
    Total Energy =                        -76.0600283999000055



Properties will be evaluated at   0.000000,   0.000000,   0.000000 Bohr
  ==> Properties <==


Properties computed using the SCF density density matrix
  Nuclear Dipole Moment: (a.u.)
     X:   -59.6511      Y:    -0.0555      Z:    -0.0061

  Electronic Dipole Moment: (a.u.)
     X:    60.0769      Y:     0.7193      Z:     0.0067

  Dipole Moment: (a.u.)
     X:     0.4258      Y:     0.6638      Z:     0.0006     Total:     0.7886

  Dipole Moment: (Debye)
     X:     1.0822      Y:     1.6872      Z:     0.0015     Total:     2.0044


  Saving occupied orbitals to File 180.

  Saving SAPT 2-MONOMER_A file.

*** tstop() called on node112.bme.utexas.edu at Fri Feb 14 09:45:38 2014
Module time:
	user time   =     213.92 seconds =       3.57 minutes
	system time =       2.25 seconds =       0.04 minutes
	total time  =         57 seconds =       0.95 minutes
Total time:
	user time   =     637.67 seconds =      10.63 minutes
	system time =       8.28 seconds =       0.14 minutes
	total time  =        171 seconds =       2.85 minutes

  //>>>>>>>>>>>>>>>>>>>>>>>>>>>>>>>>>>>//
  //            Monomer B HF           //
  //<<<<<<<<<<<<<<<<<<<<<<<<<<<<<<<<<<<//


  No DF_BASIS_SCF auxiliary basis selected, defaulting to aug-cc-pvtz-jkfit


*** tstart() called on node112.bme.utexas.edu
*** at Fri Feb 14 09:45:38 2014


         ---------------------------------------------------------
                                   SCF
            by Justin Turney, Rob Parrish, and Andy Simmonett
                              RHF Reference
                        4 Threads,   7000 MiB Core
         ---------------------------------------------------------

  ==> Geometry <==

    Molecular point group: c1
    Full point group: C1

    Geometry (in Angstrom), charge = 0, multiplicity = 1:

       Center              X                  Y                   Z       
    ------------   -----------------  -----------------  -----------------
           O(Gh)     -3.221256674885    -0.103273628661    -0.000412371230
           H(Gh)     -3.540185283885     0.800216059339     0.000230816770
           H(Gh)     -2.255766153885    -0.003408386661    -0.000165393230
           N         -0.661378351885     0.077035622339     0.000160297770
           C          0.034528287115     0.043064830339     1.144908143770
           H         -0.550144263885     0.066675772339     2.055776171770
           C          1.423551879115    -0.022117601661     1.194904207770
           H          1.929458260115    -0.046971756661     2.149233329770
           C          2.134715024115    -0.055243399661    -0.000006938230
           H          3.214554975115    -0.107016952661    -0.000087366230
           C          1.423406726115    -0.022184256661    -1.194808235230
           H          1.929203673115    -0.047057283661    -2.149206836230
           C          0.034376712115     0.043010734339    -1.144661975230
           H         -0.550392170885     0.066611389339    -2.055454528230

  Running in c1 symmetry.

  Nuclear repulsion =  206.285463431529223

  Charge       = 0
  Multiplicity = 1
  Electrons    = 42
  Nalpha       = 21
  Nbeta        = 21

  ==> Algorithm <==

  SCF Algorithm Type is DF.
  DIIS enabled.
  MOM disabled.
  Fractional occupation disabled.
  Guess Type is CORE.
  Energy threshold   = 1.00e-08
  Density threshold  = 1.00e-08
  Integral threshold = 0.00e+00

  ==> Primary Basis <==

  Basis Set: AUG-CC-PVTZ
    Number of shells: 161
    Number of basis function: 483
    Number of Cartesian functions: 560
    Spherical Harmonics?: true
    Max angular momentum: 3

  ==> Pre-Iterations <==

   -------------------------------------------------------
    Irrep   Nso     Nmo     Nalpha   Nbeta   Ndocc  Nsocc
   -------------------------------------------------------
     A        483     483       0       0       0       0
   -------------------------------------------------------
    Total     483     483      21      21      21       0
   -------------------------------------------------------

 OEINTS: Wrapper to libmints.
   by Justin Turney

   Calculation information:
      Number of atoms:                  14
      Number of AO shells:             161
      Number of SO shells:             161
      Number of primitives:            287
      Number of atomic orbitals:       560
      Number of basis functions:       483

      Number of irreps:                  1
      Number of functions per irrep: [ 483 ]

      Overlap, kinetic, potential, dipole, and quadrupole integrals
        stored in file 35.

  ==> Integral Setup <==

  ==> DFJK: Density-Fitted J/K Matrices <==

    J tasked:                  Yes
    K tasked:                  Yes
    wK tasked:                  No
    OpenMP threads:              4
    Integrals threads:           4
    Memory (MB):              5006
    Algorithm:                Core
    Integral Cache:           LOAD
    Schwarz Cutoff:          0E+00
    Fitting Condition:       1E-12

   => Auxiliary Basis Set <=

  Basis Set: aug-cc-pvtz-jkfit
    Number of shells: 308
    Number of basis function: 1050
    Number of Cartesian functions: 1302
    Spherical Harmonics?: true
    Max angular momentum: 4

  Minimum eigenvalue in the overlap matrix is 2.0109061539E-06.
  Using Symmetric Orthogonalization.
  SCF Guess: Core (One-Electron) Hamiltonian.

  Guess energy:  -194.55294112838217

  ==> Iterations <==

                        Total Energy        Delta E     RMS |[F,P]|

   @RHF iter   1:  -191.89535841187345   -1.91895e+02   2.31176e-02 
   @RHF iter   2:  -177.73728927110537    1.41581e+01   1.31137e-02 DIIS
   @RHF iter   3:  -211.42912392525480   -3.36918e+01   1.47476e-02 DIIS
   @RHF iter   4:  -240.98823300899269   -2.95591e+01   5.53259e-03 DIIS
   @RHF iter   5:  -246.18649025242027   -5.19826e+00   2.13701e-03 DIIS
   @RHF iter   6:  -246.71808205472078   -5.31592e-01   6.63497e-04 DIIS
   @RHF iter   7:  -246.77366292242598   -5.55809e-02   1.51883e-04 DIIS
   @RHF iter   8:  -246.77756647429950   -3.90355e-03   5.91293e-05 DIIS
   @RHF iter   9:  -246.77854219599126   -9.75722e-04   3.03317e-05 DIIS
   @RHF iter  10:  -246.77877452027863   -2.32324e-04   1.22028e-05 DIIS
   @RHF iter  11:  -246.77885429809933   -7.97778e-05   5.26747e-06 DIIS
   @RHF iter  12:  -246.77886888979899   -1.45917e-05   2.17429e-06 DIIS
   @RHF iter  13:  -246.77887116423696   -2.27444e-06   7.30661e-07 DIIS
   @RHF iter  14:  -246.77887133672826   -1.72491e-07   2.19644e-07 DIIS
   @RHF iter  15:  -246.77887134895835   -1.22301e-08   6.32577e-08 DIIS
   @RHF iter  16:  -246.77887134980293   -8.44580e-10   1.58831e-08 DIIS
   @RHF iter  17:  -246.77887134986557   -6.26414e-11   5.87788e-09 DIIS

  ==> Post-Iterations <==

	Orbital Energies (a.u.)
	-----------------------

	Doubly Occupied:                                                      

	   1A    -15.566734     2A    -11.275245     3A    -11.275228  
	   4A    -11.260477     5A    -11.242465     6A    -11.242413  
	   7A     -1.256663     8A     -1.089779     9A     -1.034695  
	  10A     -0.859690    11A     -0.856447    12A     -0.722524  
	  13A     -0.660921    14A     -0.654805    15A     -0.599646  
	  16A     -0.577307    17A     -0.541448    18A     -0.521012  
	  19A     -0.418651    20A     -0.383858    21A     -0.348533  

	Virtual:                                                              

	  22A      0.025896    23A      0.033225    24A      0.035368  
	  25A      0.048228    26A      0.048756    27A      0.059480  
	  28A      0.071085    29A      0.086145    30A      0.091530  
	  31A      0.099819    32A      0.100339    33A      0.106180  
	  34A      0.109146    35A      0.114238    36A      0.115638  
	  37A      0.120716    38A      0.129024    39A      0.130525  
	  40A      0.136299    41A      0.141144    42A      0.143481  
	  43A      0.150808    44A      0.155309    45A      0.157008  
	  46A      0.158398    47A      0.178103    48A      0.192774  
	  49A      0.212888    50A      0.221169    51A      0.241558  
	  52A      0.242870    53A      0.243498    54A      0.251059  
	  55A      0.256943    56A      0.266801    57A      0.271853  
	  58A      0.272400    59A      0.285078    60A      0.297690  
	  61A      0.297773    62A      0.300734    63A      0.304066  
	  64A      0.304130    65A      0.317392    66A      0.317718  
	  67A      0.323186    68A      0.332636    69A      0.337378  
	  70A      0.345318    71A      0.346338    72A      0.366688  
	  73A      0.371763    74A      0.375396    75A      0.379304  
	  76A      0.393787    77A      0.408913    78A      0.410302  
	  79A      0.420431    80A      0.423266    81A      0.424596  
	  82A      0.439464    83A      0.442635    84A      0.449799  
	  85A      0.452665    86A      0.459924    87A      0.463825  
	  88A      0.469428    89A      0.475106    90A      0.485578  
	  91A      0.488132    92A      0.494063    93A      0.495563  
	  94A      0.500982    95A      0.503082    96A      0.523716  
	  97A      0.527299    98A      0.538271    99A      0.540419  
	 100A      0.541104   101A      0.556472   102A      0.568185  
	 103A      0.574398   104A      0.600897   105A      0.612608  
	 106A      0.624648   107A      0.629191   108A      0.629633  
	 109A      0.635215   110A      0.644393   111A      0.646712  
	 112A      0.665324   113A      0.671034   114A      0.677871  
	 115A      0.703896   116A      0.710354   117A      0.725446  
	 118A      0.726778   119A      0.733698   120A      0.734019  
	 121A      0.770269   122A      0.770650   123A      0.793161  
	 124A      0.794868   125A      0.804184   126A      0.810997  
	 127A      0.820457   128A      0.831510   129A      0.841799  
	 130A      0.842929   131A      0.849356   132A      0.861303  
	 133A      0.868832   134A      0.871862   135A      0.881766  
	 136A      0.884099   137A      0.890379   138A      0.898797  
	 139A      0.900776   140A      0.906952   141A      0.914495  
	 142A      0.939341   143A      0.944321   144A      0.945629  
	 145A      0.951393   146A      0.953653   147A      0.964914  
	 148A      0.983235   149A      0.990096   150A      0.995934  
	 151A      1.010051   152A      1.010991   153A      1.017215  
	 154A      1.018558   155A      1.020647   156A      1.034458  
	 157A      1.035107   158A      1.035997   159A      1.046884  
	 160A      1.055670   161A      1.061207   162A      1.062344  
	 163A      1.080591   164A      1.086076   165A      1.090910  
	 166A      1.097577   167A      1.107490   168A      1.111046  
	 169A      1.137998   170A      1.142726   171A      1.143836  
	 172A      1.163278   173A      1.167944   174A      1.184758  
	 175A      1.184912   176A      1.190349   177A      1.193190  
	 178A      1.201935   179A      1.202992   180A      1.211518  
	 181A      1.218794   182A      1.220861   183A      1.238509  
	 184A      1.239888   185A      1.247642   186A      1.256449  
	 187A      1.269345   188A      1.286553   189A      1.287370  
	 190A      1.303949   191A      1.336891   192A      1.355594  
	 193A      1.359797   194A      1.360211   195A      1.382693  
	 196A      1.396347   197A      1.414463   198A      1.419036  
	 199A      1.426443   200A      1.436723   201A      1.458417  
	 202A      1.478037   203A      1.493144   204A      1.503009  
	 205A      1.514244   206A      1.516618   207A      1.528995  
	 208A      1.550568   209A      1.565074   210A      1.578284  
	 211A      1.580852   212A      1.599340   213A      1.636292  
	 214A      1.667736   215A      1.670951   216A      1.684153  
	 217A      1.696501   218A      1.706156   219A      1.707092  
	 220A      1.711881   221A      1.730812   222A      1.731209  
	 223A      1.739251   224A      1.763531   225A      1.795377  
	 226A      1.808613   227A      1.826035   228A      1.827042  
	 229A      1.831655   230A      1.851859   231A      1.859258  
	 232A      1.865803   233A      1.878630   234A      1.890195  
	 235A      1.917370   236A      1.941732   237A      1.943431  
	 238A      1.957921   239A      1.969751   240A      1.992975  
	 241A      2.007170   242A      2.015533   243A      2.018289  
	 244A      2.023688   245A      2.024031   246A      2.042081  
	 247A      2.043309   248A      2.044504   249A      2.055758  
	 250A      2.094410   251A      2.097461   252A      2.105168  
	 253A      2.135585   254A      2.146500   255A      2.173129  
	 256A      2.189907   257A      2.228236   258A      2.237462  
	 259A      2.237503   260A      2.253180   261A      2.256324  
	 262A      2.292777   263A      2.307766   264A      2.336976  
	 265A      2.356954   266A      2.378015   267A      2.411280  
	 268A      2.425421   269A      2.427282   270A      2.461825  
	 271A      2.464862   272A      2.485384   273A      2.512394  
	 274A      2.541690   275A      2.550139   276A      2.563582  
	 277A      2.570812   278A      2.573527   279A      2.602909  
	 280A      2.652959   281A      2.705281   282A      2.705339  
	 283A      2.714996   284A      2.733120   285A      2.736496  
	 286A      2.791028   287A      2.820414   288A      2.823278  
	 289A      2.862857   290A      2.883908   291A      2.926911  
	 292A      2.943328   293A      2.960733   294A      2.991682  
	 295A      3.002731   296A      3.019392   297A      3.039424  
	 298A      3.105825   299A      3.113490   300A      3.158094  
	 301A      3.162982   302A      3.191088   303A      3.194853  
	 304A      3.249772   305A      3.255891   306A      3.283778  
	 307A      3.316831   308A      3.323753   309A      3.354923  
	 310A      3.363333   311A      3.368405   312A      3.397026  
	 313A      3.410830   314A      3.424989   315A      3.440466  
	 316A      3.441334   317A      3.482901   318A      3.488052  
	 319A      3.512588   320A      3.522979   321A      3.534113  
	 322A      3.537685   323A      3.565263   324A      3.569153  
	 325A      3.576321   326A      3.598716   327A      3.666669  
	 328A      3.685444   329A      3.700308   330A      3.706501  
	 331A      3.717858   332A      3.723214   333A      3.746551  
	 334A      3.770673   335A      3.788572   336A      3.799316  
	 337A      3.807386   338A      3.808702   339A      3.833492  
	 340A      3.873216   341A      3.885191   342A      3.896323  
	 343A      3.898629   344A      3.909606   345A      3.924847  
	 346A      3.947160   347A      3.948566   348A      3.995972  
	 349A      4.016554   350A      4.026847   351A      4.043451  
	 352A      4.066746   353A      4.087415   354A      4.097637  
	 355A      4.110641   356A      4.127992   357A      4.148514  
	 358A      4.162069   359A      4.182067   360A      4.207594  
	 361A      4.217410   362A      4.237368   363A      4.246991  
	 364A      4.253125   365A      4.263729   366A      4.285746  
	 367A      4.301538   368A      4.327995   369A      4.352315  
	 370A      4.374818   371A      4.409484   372A      4.425525  
	 373A      4.452910   374A      4.467298   375A      4.479777  
	 376A      4.487256   377A      4.523839   378A      4.525921  
	 379A      4.547573   380A      4.560170   381A      4.565949  
	 382A      4.611683   383A      4.665479   384A      4.695284  
	 385A      4.717463   386A      4.718946   387A      4.753708  
	 388A      4.764867   389A      4.782468   390A      4.816728  
	 391A      4.848938   392A      4.876141   393A      4.886816  
	 394A      4.911118   395A      4.933321   396A      4.939696  
	 397A      4.943562   398A      4.989389   399A      4.993682  
	 400A      5.031319   401A      5.046127   402A      5.052715  
	 403A      5.061784   404A      5.074182   405A      5.123050  
	 406A      5.138379   407A      5.139289   408A      5.165243  
	 409A      5.204853   410A      5.226000   411A      5.253755  
	 412A      5.289554   413A      5.301332   414A      5.305580  
	 415A      5.367727   416A      5.395472   417A      5.429607  
	 418A      5.451636   419A      5.479279   420A      5.489448  
	 421A      5.499747   422A      5.544638   423A      5.544744  
	 424A      5.583327   425A      5.648287   426A      5.677479  
	 427A      5.696587   428A      5.737439   429A      5.789827  
	 430A      5.808823   431A      5.843631   432A      5.852740  
	 433A      5.880364   434A      5.937217   435A      5.946541  
	 436A      5.965754   437A      6.003184   438A      6.007644  
	 439A      6.065798   440A      6.086896   441A      6.132414  
	 442A      6.152709   443A      6.249499   444A      6.263650  
	 445A      6.389472   446A      6.452076   447A      6.514914  
	 448A      6.550414   449A      6.683247   450A      6.686122  
	 451A      6.739320   452A      6.764057   453A      6.780801  
	 454A      6.830042   455A      6.924885   456A      7.090601  
	 457A      7.155380   458A      7.178128   459A      7.299776  
	 460A      7.507516   461A      7.804607   462A      7.948771  
	 463A      8.158128   464A      8.321133   465A      8.523880  
	 466A      8.956017   467A      9.198463   468A      9.794702  
	 469A      9.955604   470A     10.285968   471A     10.452158  
	 472A     11.401986   473A     12.110098   474A     12.563880  
	 475A     13.797027   476A     14.105930   477A     15.766979  
	 478A     16.361512   479A     18.790334   480A     19.189799  
	 481A     19.432827   482A     19.563276   483A     68.021109  

	Final Occupation by Irrep:
	          A 
	DOCC [    21 ]

  Energy converged.

  @RHF Final Energy:  -246.77887134986557

   => Energetics <=

    Nuclear Repulsion Energy =            206.2854634315292230
    One-Electron Energy =                -741.3515986038541996
    Two-Electron Energy =                 288.2872638224602042
    DFT Exchange-Correlation Energy =       0.0000000000000000
    Empirical Dispersion Energy =           0.0000000000000000
    Total Energy =                       -246.7788713498647439



Properties will be evaluated at   0.000000,   0.000000,   0.000000 Bohr
  ==> Properties <==


Properties computed using the SCF density density matrix
  Nuclear Dipole Moment: (a.u.)
     X:    59.8032      Y:     0.7383      Z:     0.0064

  Electronic Dipole Moment: (a.u.)
     X:   -58.8934      Y:    -0.7843      Z:    -0.0065

  Dipole Moment: (a.u.)
     X:     0.9098      Y:    -0.0461      Z:    -0.0001     Total:     0.9110

  Dipole Moment: (Debye)
     X:     2.3125      Y:    -0.1171      Z:    -0.0002     Total:     2.3155


  Saving occupied orbitals to File 180.

  Saving SAPT 2-MONOMER_B file.

*** tstop() called on node112.bme.utexas.edu at Fri Feb 14 09:47:07 2014
Module time:
	user time   =     337.04 seconds =       5.62 minutes
	system time =       3.80 seconds =       0.06 minutes
	total time  =         89 seconds =       1.48 minutes
Total time:
	user time   =     974.74 seconds =      16.25 minutes
	system time =      12.08 seconds =       0.20 minutes
	total time  =        260 seconds =       4.33 minutes
  No DF_BASIS_SAPT auxiliary basis selected, defaulting to aug-cc-pvtz-ri

  //>>>>>>>>>>>>>>>>>>>>>>>>>>>>>>>>>>>//
  //               SAPT2+              //
  //<<<<<<<<<<<<<<<<<<<<<<<<<<<<<<<<<<<//


*** tstart() called on node112.bme.utexas.edu
*** at Fri Feb 14 09:47:08 2014

        SAPT2+  
    Ed Hohenstein
     6 June 2009

      Orbital Information
  --------------------------
    NSO        =       483
    NMO        =       483
    NRI        =      1064
    NOCC A     =         5
    NOCC B     =        21
    FOCC A     =         1
    FOCC B     =         6
    NVIR A     =       478
    NVIR B     =       462

    Estimated memory usage: 4363.1 MB

    Elst10,r            =    -0.037007789242 H
    Exch10 (S^2)        =     0.054014648844 H
    Exch10              =     0.055838877288 H
    Ind20,r (A<-B)      =    -0.007784322601 H
    Ind20,r (B<-A)      =    -0.019517742521 H
    Ind20,r             =    -0.027302065122 H
    Exch-Ind20,r (A<-B) =     0.006029883676 H
    Exch-Ind20,r (B<-A) =     0.011024966491 H
    Exch-Ind20,r        =     0.017054850167 H
    Disp20              =    -0.014422708526 H
    Exch-Disp20         =     0.003364527036 H
    Elst12,r            =    -0.000701797647 H
    Exch11              =     0.001004252124 H
    Exch12              =     0.003682881671 H
    Ind22               =    -0.003232598534 H
    Disp21              =     0.001546661287 H
    Disp22 (SDQ)        =    -0.000226011119 H

    (i =   1 of  15)        544 seconds
    (i =   2 of  15)       1087 seconds
    (i =   3 of  15)       1631 seconds
    (i =   4 of  15)       2175 seconds
    (i =   5 of  15)       2718 seconds
    (i =   6 of  15)       3261 seconds
    (i =   7 of  15)       3804 seconds
    (i =   8 of  15)       4347 seconds
    (i =   9 of  15)       4890 seconds
    (i =  10 of  15)       5432 seconds
    (i =  11 of  15)       5975 seconds
    (i =  12 of  15)       6518 seconds
    (i =  13 of  15)       7060 seconds
    (i =  14 of  15)       7603 seconds
    (i =  15 of  15)       8146 seconds

    Disp220 (T)         =    -0.001247886066 H

    (i =   1 of   4)       3355 seconds
    (i =   2 of   4)       6711 seconds
    (i =   3 of   4)      10066 seconds
    (i =   4 of   4)      13425 seconds

    Disp202 (T)         =    -0.001271908910 H

    Disp22 (T)          =    -0.002519794976 H

    SAPT Results  
  -----------------------------------------------------------------------
    Electrostatics         -37.70958689 mH     -23.66312401 kcal mol^-1
      Elst10,r             -37.00778924 mH     -23.22273932 kcal mol^-1
      Elst12,r              -0.70179765 mH      -0.44038469 kcal mol^-1

    Exchange                60.52601108 mH      37.98064695 kcal mol^-1
      Exch10                55.83887729 mH      35.03942597 kcal mol^-1
      Exch10(S^2)           54.01464884 mH      33.89470529 kcal mol^-1
      Exch11(S^2)            1.00425212 mH       0.63017775 kcal mol^-1
      Exch12(S^2)            3.68288167 mH       2.31104324 kcal mol^-1

    Induction              -18.86543075 mH     -11.83823702 kcal mol^-1
      Ind20,r              -27.30206512 mH     -17.13230523 kcal mol^-1
      Ind22                 -3.23259853 mH      -2.02848629 kcal mol^-1
      Exch-Ind20,r          17.05485017 mH      10.70208050 kcal mol^-1
      Exch-Ind22             2.01931551 mH       1.26713967 kcal mol^-1
      delta HF,r (2)        -7.40493277 mH      -4.64666566 kcal mol^-1

    Dispersion             -12.25732630 mH      -7.69158870 kcal mol^-1
      Disp20               -14.42270853 mH      -9.05038662 kcal mol^-1
      Disp21                 1.54666129 mH       0.97054465 kcal mol^-1
      Disp22 (SDQ)          -0.22601112 mH      -0.14182412 kcal mol^-1
      Disp22 (T)            -2.51979498 mH      -1.58119529 kcal mol^-1
      Exch-Disp20            3.36452704 mH       2.11127268 kcal mol^-1

    Total HF                 1.17894032 mH       0.73979625 kcal mol^-1
    Total SAPT0             -9.87924117 mH      -6.19931769 kcal mol^-1
    Total SAPT2             -7.10718804 mH      -4.45982802 kcal mol^-1
    Total SAPT2+            -8.30633285 mH      -5.21230278 kcal mol^-1

*** tstop() called on node112.bme.utexas.edu at Fri Feb 14 18:07:11 2014
Module time:
	user time   =  109914.88 seconds =    1831.91 minutes
	system time =     291.14 seconds =       4.85 minutes
	total time  =      30003 seconds =     500.05 minutes
Total time:
	user time   =  110889.62 seconds =    1848.16 minutes
	system time =     303.22 seconds =       5.05 minutes
	total time  =      30264 seconds =     504.40 minutes

*** PSI4 exiting successfully. Buy a developer a beer!
