    -----------------------------------------------------------------------
          PSI4: An Open-Source Ab Initio Electronic Structure Package
                              PSI 4.0.0-beta4 Driver

    J. M. Turney, A. C. Simmonett, R. M. Parrish, E. G. Hohenstein,
    F. A. Evangelista, J. T. Fermann, B. J. Mintz, L. A. Burns, J. J. Wilke,
    M. L. Abrams, N. J. Russ, M. L. Leininger, C. L. Janssen, E. T. Seidl,
    W. D. Allen, H. F. Schaefer, R. A. King, E. F. Valeev, C. D. Sherrill,
    and T. D. Crawford, WIREs Comput. Mol. Sci., (2011) (doi: 10.1002/wcms.93)

                         Additional Contributions by
    A. E. DePrince, M. Saitow, U. Bozkaya, A. Yu. Sokolov
    -----------------------------------------------------------------------

    Process ID:   6788
    PSI4DATADIR: /home/xzhu216/psi4/psi4-install/share/psi

    Using LocalCommunicator (Number of processes = 1)

    Memory level set to 256.000 MB

  ==> Input File <==

--------------------------------------------------------------------------
#psi4
#
memory 10 gb

molecule Water_Pyridine {
0 1
O   -0.552831024  -0.101697490  -0.000498788
H   -0.871759633   0.801792198   0.000144400
H    0.412659497  -0.001832248  -0.000251810
--
0 1
N    2.206445648   0.088672301   0.000114613
C    2.902352287   0.054701509   1.144862459
H    2.317679736   0.078312451   2.055730487
C    4.291375879  -0.010480923   1.194858523
H    4.797282260  -0.035335078   2.149187645
C    5.002539024  -0.043606721  -0.000052623
H    6.082378975  -0.095380274  -0.000133051
C    4.291230726  -0.010547578  -1.194853920
H    4.797027673  -0.035420605  -2.149252521
C    2.902200712   0.054647413  -1.144707660
H    2.317431829   0.078248068  -2.055500213
units angstrom
no_reorient  #important for SAPT in psi4, default
symmetry c1  #important for SAPT in psi4, default
}

set {
basis aug-cc-pVTZ
scf_type DF
freeze_core True
}
energy('sapt2+')
--------------------------------------------------------------------------

  Memory set to  10.000 GiB by Python script.

  //>>>>>>>>>>>>>>>>>>>>>>>>>>>>>>>>>>>//
  //              Dimer HF             //
  //<<<<<<<<<<<<<<<<<<<<<<<<<<<<<<<<<<<//


  No DF_BASIS_SCF auxiliary basis selected, defaulting to aug-cc-pvtz-jkfit


*** tstart() called on node125.bme.utexas.edu
*** at Wed Sep 25 15:18:06 2013


         ---------------------------------------------------------
                                   SCF
            by Justin Turney, Rob Parrish, and Andy Simmonett
                              RHF Reference
                        4 Threads,  10000 MiB Core
         ---------------------------------------------------------

  ==> Geometry <==

    Molecular point group: c1
    Full point group: C1

    Geometry (in Angstrom), charge = 0, multiplicity = 1:

       Center              X                  Y                   Z       
    ------------   -----------------  -----------------  -----------------
           O         -3.383651679312    -0.111467184155    -0.000445544390
           H         -3.702580288312     0.792022503845     0.000197643610
           H         -2.418161158312    -0.011601942155    -0.000198566390
           N         -0.624375007312     0.078902606845     0.000167856610
           C          0.071531631688     0.044931814845     1.144915702610
           H         -0.513140919312     0.068542756845     2.055783730610
           C          1.460555223688    -0.020250617155     1.194911766610
           H          1.966461604688    -0.045104772155     2.149240888610
           C          2.171718368688    -0.053376415155     0.000000620610
           H          3.251558319688    -0.105149968155    -0.000079807390
           C          1.460410070688    -0.020317272155    -1.194800676390
           H          1.966207017688    -0.045190299155    -2.149199277390
           C          0.071380056688     0.044877718845    -1.144654416390
           H         -0.513388826312     0.068478373845    -2.055446969390

  Running in c1 symmetry.

  Nuclear repulsion =  271.646142501440522

  Charge       = 0
  Multiplicity = 1
  Electrons    = 52
  Nalpha       = 26
  Nbeta        = 26

  ==> Algorithm <==

  SCF Algorithm Type is DF.
  DIIS enabled.
  MOM disabled.
  Fractional occupation disabled.
  Guess Type is CORE.
  Energy threshold   = 1.00e-08
  Density threshold  = 1.00e-08
  Integral threshold = 0.00e+00

  ==> Primary Basis <==

  Basis Set: AUG-CC-PVTZ
    Number of shells: 161
    Number of basis function: 483
    Number of Cartesian functions: 560
    Spherical Harmonics?: true
    Max angular momentum: 3

  ==> Pre-Iterations <==

   -------------------------------------------------------
    Irrep   Nso     Nmo     Nalpha   Nbeta   Ndocc  Nsocc
   -------------------------------------------------------
     A        483     483       0       0       0       0
   -------------------------------------------------------
    Total     483     483      26      26      26       0
   -------------------------------------------------------

 OEINTS: Wrapper to libmints.
   by Justin Turney

   Calculation information:
      Number of atoms:                  14
      Number of AO shells:             161
      Number of SO shells:             161
      Number of primitives:            287
      Number of atomic orbitals:       560
      Number of basis functions:       483

      Number of irreps:                  1
      Number of functions per irrep: [ 483 ]

      Overlap, kinetic, potential, dipole, and quadrupole integrals
        stored in file 35.

  ==> Integral Setup <==

  ==> DFJK: Density-Fitted J/K Matrices <==

    J tasked:                  Yes
    K tasked:                  Yes
    wK tasked:                  No
    OpenMP threads:              4
    Integrals threads:           4
    Memory (MB):              7152
    Algorithm:                Core
    Integral Cache:           SAVE
    Schwarz Cutoff:          0E+00
    Fitting Condition:       1E-12

   => Auxiliary Basis Set <=

  Basis Set: aug-cc-pvtz-jkfit
    Number of shells: 308
    Number of basis function: 1050
    Number of Cartesian functions: 1302
    Spherical Harmonics?: true
    Max angular momentum: 4

  Minimum eigenvalue in the overlap matrix is 2.0652956406E-06.
  Using Symmetric Orthogonalization.
  SCF Guess: Core (One-Electron) Hamiltonian.

  Guess energy:  -259.76799789311337

  ==> Iterations <==

                        Total Energy        Delta E     RMS |[F,P]|

   @RHF iter   1:  -219.86399872093682   -2.19864e+02   2.77981e-02 
   @RHF iter   2:   -56.15468031436058    1.63709e+02   3.96617e-02 DIIS
   @RHF iter   3:  -222.66997994715229   -1.66515e+02   1.77274e-02 DIIS
   @RHF iter   4:  -241.73454959531296   -1.90646e+01   2.08112e-02 DIIS
   @RHF iter   5:  -311.67119626931969   -6.99366e+01   8.10042e-03 DIIS
   @RHF iter   6:  -321.79744943542039   -1.01263e+01   3.00595e-03 DIIS
   @RHF iter   7:  -322.75012732847779   -9.52678e-01   9.41456e-04 DIIS
   @RHF iter   8:  -322.82616695227762   -7.60396e-02   3.47531e-04 DIIS
   @RHF iter   9:  -322.84245152781716   -1.62846e-02   7.87008e-05 DIIS
   @RHF iter  10:  -322.84364413162245   -1.19260e-03   3.24531e-05 DIIS
   @RHF iter  11:  -322.84391807066129   -2.73939e-04   1.98938e-05 DIIS
   @RHF iter  12:  -322.84403709583160   -1.19025e-04   7.80167e-06 DIIS
   @RHF iter  13:  -322.84407275527553   -3.56594e-05   3.10401e-06 DIIS
   @RHF iter  14:  -322.84407783002314   -5.07475e-06   1.21451e-06 DIIS
   @RHF iter  15:  -322.84407858532040   -7.55297e-07   4.02670e-07 DIIS
   @RHF iter  16:  -322.84407864864500   -6.33246e-08   9.50505e-08 DIIS
   @RHF iter  17:  -322.84407865054550   -1.90050e-09   2.35958e-08 DIIS
   @RHF iter  18:  -322.84407865068465   -1.39153e-10   6.75117e-09 DIIS

  ==> Post-Iterations <==

	Orbital Energies (a.u.)
	-----------------------

	Doubly Occupied:                                                      

	   1A    -20.513208     2A    -15.585298     3A    -11.291287  
	   4A    -11.291269     5A    -11.274332     6A    -11.255032  
	   7A    -11.254983     8A     -1.303663     9A     -1.274963  
	  10A     -1.104788    11A     -1.049101    12A     -0.874566  
	  13A     -0.872105    14A     -0.740211    15A     -0.676610  
	  16A     -0.675317    17A     -0.665171    18A     -0.613047  
	  19A     -0.592657    20A     -0.558586    21A     -0.541644  
	  22A     -0.534590    23A     -0.461080    24A     -0.437451  
	  25A     -0.400769    26A     -0.361594  

	Virtual:                                                              

	  27A      0.021858    28A      0.030533    29A      0.035098  
	  30A      0.047351    31A      0.049233    32A      0.062218  
	  33A      0.070216    34A      0.079107    35A      0.090121  
	  36A      0.091129    37A      0.099159    38A      0.103642  
	  39A      0.106383    40A      0.109762    41A      0.112341  
	  42A      0.115874    43A      0.124959    44A      0.131430  
	  45A      0.134579    46A      0.140308    47A      0.145229  
	  48A      0.148276    49A      0.152344    50A      0.155495  
	  51A      0.156995    52A      0.185568    53A      0.220359  
	  54A      0.225132    55A      0.231173    56A      0.237710  
	  57A      0.238308    58A      0.244371    59A      0.246347  
	  60A      0.248607    61A      0.260457    62A      0.272300  
	  63A      0.274037    64A      0.278731    65A      0.289421  
	  66A      0.291614    67A      0.294581    68A      0.296988  
	  69A      0.300573    70A      0.308280    71A      0.317210  
	  72A      0.317296    73A      0.327130    74A      0.331343  
	  75A      0.342490    76A      0.346626    77A      0.359446  
	  78A      0.359646    79A      0.369740    80A      0.386229  
	  81A      0.389809    82A      0.401487    83A      0.406325  
	  84A      0.414737    85A      0.420068    86A      0.431576  
	  87A      0.436711    88A      0.442511    89A      0.447040  
	  90A      0.448579    91A      0.450739    92A      0.458279  
	  93A      0.462193    94A      0.475984    95A      0.477133  
	  96A      0.483558    97A      0.487770    98A      0.488177  
	  99A      0.498524   100A      0.507494   101A      0.514106  
	 102A      0.520698   103A      0.525329   104A      0.532169  
	 105A      0.537297   106A      0.559333   107A      0.569161  
	 108A      0.579386   109A      0.581411   110A      0.606727  
	 111A      0.613239   112A      0.617686   113A      0.625611  
	 114A      0.626446   115A      0.636182   116A      0.637197  
	 117A      0.649256   118A      0.673448   119A      0.680089  
	 120A      0.699011   121A      0.704901   122A      0.713259  
	 123A      0.715218   124A      0.719063   125A      0.733924  
	 126A      0.740733   127A      0.756543   128A      0.780328  
	 129A      0.782672   130A      0.794879   131A      0.796438  
	 132A      0.805771   133A      0.805974   134A      0.815166  
	 135A      0.818625   136A      0.833918   137A      0.841149  
	 138A      0.841835   139A      0.860953   140A      0.868343  
	 141A      0.872026   142A      0.876933   143A      0.887332  
	 144A      0.898571   145A      0.901005   146A      0.918091  
	 147A      0.925620   148A      0.927055   149A      0.935066  
	 150A      0.940650   151A      0.945514   152A      0.969755  
	 153A      0.973668   154A      0.975239   155A      0.981118  
	 156A      0.989044   157A      0.998989   158A      1.000746  
	 159A      1.004645   160A      1.009587   161A      1.013512  
	 162A      1.022167   163A      1.030518   164A      1.035501  
	 165A      1.051415   166A      1.065350   167A      1.070126  
	 168A      1.076168   169A      1.078255   170A      1.087039  
	 171A      1.090684   172A      1.092328   173A      1.101687  
	 174A      1.105778   175A      1.125028   176A      1.130777  
	 177A      1.153288   178A      1.172877   179A      1.173245  
	 180A      1.179076   181A      1.180394   182A      1.181375  
	 183A      1.191783   184A      1.196669   185A      1.197516  
	 186A      1.215047   187A      1.218600   188A      1.222350  
	 189A      1.227698   190A      1.242321   191A      1.244137  
	 192A      1.265647   193A      1.279786   194A      1.287682  
	 195A      1.303737   196A      1.316299   197A      1.328412  
	 198A      1.348247   199A      1.363005   200A      1.371037  
	 201A      1.382125   202A      1.384542   203A      1.399743  
	 204A      1.400101   205A      1.419932   206A      1.424054  
	 207A      1.465879   208A      1.476631   209A      1.492476  
	 210A      1.492689   211A      1.508676   212A      1.515759  
	 213A      1.517919   214A      1.523323   215A      1.563901  
	 216A      1.564520   217A      1.583796   218A      1.589965  
	 219A      1.605901   220A      1.623236   221A      1.649841  
	 222A      1.660102   223A      1.661803   224A      1.683090  
	 225A      1.689013   226A      1.693982   227A      1.694394  
	 228A      1.703036   229A      1.718276   230A      1.740637  
	 231A      1.767299   232A      1.771345   233A      1.790898  
	 234A      1.815416   235A      1.823046   236A      1.848207  
	 237A      1.854328   238A      1.867025   239A      1.876160  
	 240A      1.877281   241A      1.893653   242A      1.934849  
	 243A      1.935510   244A      1.949525   245A      1.959268  
	 246A      1.970169   247A      1.985096   248A      2.011283  
	 249A      2.013127   250A      2.024978   251A      2.029438  
	 252A      2.030136   253A      2.043024   254A      2.053169  
	 255A      2.066187   256A      2.073144   257A      2.119608  
	 258A      2.126285   259A      2.133797   260A      2.148681  
	 261A      2.167495   262A      2.180928   263A      2.221414  
	 264A      2.229065   265A      2.243860   266A      2.244803  
	 267A      2.248360   268A      2.295663   269A      2.324475  
	 270A      2.331379   271A      2.371587   272A      2.374979  
	 273A      2.385500   274A      2.404768   275A      2.413714  
	 276A      2.419589   277A      2.434495   278A      2.439616  
	 279A      2.486548   280A      2.508405   281A      2.509847  
	 282A      2.548014   283A      2.569637   284A      2.572488  
	 285A      2.618849   286A      2.622597   287A      2.629207  
	 288A      2.656883   289A      2.692633   290A      2.713642  
	 291A      2.726611   292A      2.759789   293A      2.800618  
	 294A      2.815010   295A      2.816678   296A      2.847206  
	 297A      2.871855   298A      2.881366   299A      2.913501  
	 300A      2.926271   301A      2.961329   302A      2.977001  
	 303A      2.988783   304A      3.066060   305A      3.100905  
	 306A      3.116085   307A      3.138681   308A      3.163036  
	 309A      3.178736   310A      3.186743   311A      3.230025  
	 312A      3.240220   313A      3.299096   314A      3.308604  
	 315A      3.328202   316A      3.330240   317A      3.353534  
	 318A      3.381425   319A      3.413149   320A      3.414806  
	 321A      3.426511   322A      3.432562   323A      3.473445  
	 324A      3.480373   325A      3.500658   326A      3.504471  
	 327A      3.523358   328A      3.547831   329A      3.554734  
	 330A      3.578376   331A      3.612863   332A      3.620206  
	 333A      3.661740   334A      3.683165   335A      3.686440  
	 336A      3.709895   337A      3.751366   338A      3.764934  
	 339A      3.779739   340A      3.781699   341A      3.812665  
	 342A      3.831834   343A      3.846587   344A      3.851171  
	 345A      3.869265   346A      3.883205   347A      3.889555  
	 348A      3.893089   349A      3.919624   350A      3.930393  
	 351A      3.953590   352A      3.996373   353A      3.998038  
	 354A      4.029798   355A      4.033591   356A      4.063248  
	 357A      4.074240   358A      4.100863   359A      4.121250  
	 360A      4.127265   361A      4.138477   362A      4.149291  
	 363A      4.160663   364A      4.171855   365A      4.195491  
	 366A      4.198441   367A      4.216644   368A      4.230011  
	 369A      4.237040   370A      4.261116   371A      4.282925  
	 372A      4.303992   373A      4.312651   374A      4.348161  
	 375A      4.360895   376A      4.362236   377A      4.369808  
	 378A      4.393475   379A      4.411576   380A      4.423072  
	 381A      4.444526   382A      4.451435   383A      4.460348  
	 384A      4.501446   385A      4.506496   386A      4.520950  
	 387A      4.527093   388A      4.564549   389A      4.573250  
	 390A      4.592024   391A      4.618392   392A      4.686137  
	 393A      4.695835   394A      4.738661   395A      4.744402  
	 396A      4.747907   397A      4.753400   398A      4.831401  
	 399A      4.842602   400A      4.882512   401A      4.893532  
	 402A      4.905226   403A      4.926008   404A      4.937597  
	 405A      4.961663   406A      4.984633   407A      5.031586  
	 408A      5.034339   409A      5.041336   410A      5.056282  
	 411A      5.078515   412A      5.105424   413A      5.135790  
	 414A      5.141484   415A      5.148678   416A      5.193183  
	 417A      5.212075   418A      5.221200   419A      5.224288  
	 420A      5.270318   421A      5.313427   422A      5.313659  
	 423A      5.369512   424A      5.398729   425A      5.436621  
	 426A      5.436910   427A      5.455137   428A      5.472839  
	 429A      5.506690   430A      5.514322   431A      5.565460  
	 432A      5.598320   433A      5.635773   434A      5.650004  
	 435A      5.671157   436A      5.740963   437A      5.802290  
	 438A      5.818471   439A      5.844272   440A      5.847859  
	 441A      5.874399   442A      5.907406   443A      5.912659  
	 444A      5.943015   445A      6.016929   446A      6.066380  
	 447A      6.089487   448A      6.142394   449A      6.231612  
	 450A      6.244778   451A      6.330273   452A      6.376494  
	 453A      6.498650   454A      6.539240   455A      6.634833  
	 456A      6.666673   457A      6.726139   458A      6.729262  
	 459A      6.749193   460A      6.848654   461A      6.881556  
	 462A      6.884292   463A      7.064034   464A      7.095238  
	 465A      7.129153   466A      7.252286   467A      7.369694  
	 468A      7.431003   469A      7.482295   470A      7.489426  
	 471A      7.575925   472A      7.734926   473A      7.843304  
	 474A      8.111198   475A      8.153760   476A      8.994958  
	 477A     15.680636   478A     16.332041   479A     17.084549  
	 480A     18.773900   481A     19.015466   482A     19.377320  
	 483A     19.497621  

	Final Occupation by Irrep:
	          A 
	DOCC [    26 ]

  Energy converged.

  @RHF Final Energy:  -322.84407865068465

   => Energetics <=

    Nuclear Repulsion Energy =            271.6461425014405222
    One-Electron Energy =                -976.5738037233893465
    Two-Electron Energy =                 382.0835825712646852
    DFT Exchange-Correlation Energy =       0.0000000000000000
    Empirical Dispersion Energy =           0.0000000000000000
    Total Energy =                       -322.8440786506841391



Properties will be evaluated at   0.000000,   0.000000,   0.000000 Bohr
  ==> Properties <==


Properties computed using the SCF density density matrix
  Nuclear Dipole Moment: (a.u.)
     X:     0.0202      Y:     0.6761      Z:     0.0003

  Electronic Dipole Moment: (a.u.)
     X:     1.8128      Y:    -0.0934      Z:     0.0003

  Dipole Moment: (a.u.)
     X:     1.8330      Y:     0.5827      Z:     0.0005     Total:     1.9234

  Dipole Moment: (Debye)
     X:     4.6590      Y:     1.4810      Z:     0.0014     Total:     4.8887


  Saving occupied orbitals to File 180.

  Saving SAPT 2-DIMER file.

*** tstop() called on node125.bme.utexas.edu at Wed Sep 25 15:19:24 2013
Module time:
	user time   =     291.93 seconds =       4.87 minutes
	system time =       2.55 seconds =       0.04 minutes
	total time  =         78 seconds =       1.30 minutes
Total time:
	user time   =     291.93 seconds =       4.87 minutes
	system time =       2.55 seconds =       0.04 minutes
	total time  =         78 seconds =       1.30 minutes

  //>>>>>>>>>>>>>>>>>>>>>>>>>>>>>>>>>>>//
  //            Monomer A HF           //
  //<<<<<<<<<<<<<<<<<<<<<<<<<<<<<<<<<<<//


  No DF_BASIS_SCF auxiliary basis selected, defaulting to aug-cc-pvtz-jkfit


*** tstart() called on node125.bme.utexas.edu
*** at Wed Sep 25 15:19:24 2013


         ---------------------------------------------------------
                                   SCF
            by Justin Turney, Rob Parrish, and Andy Simmonett
                              RHF Reference
                        4 Threads,  10000 MiB Core
         ---------------------------------------------------------

  ==> Geometry <==

    Molecular point group: c1
    Full point group: C1

    Geometry (in Angstrom), charge = 0, multiplicity = 1:

       Center              X                  Y                   Z       
    ------------   -----------------  -----------------  -----------------
           O         -3.383651679312    -0.111467184155    -0.000445544390
           H         -3.702580288312     0.792022503845     0.000197643610
           H         -2.418161158312    -0.011601942155    -0.000198566390
           N(Gh)     -0.624375007312     0.078902606845     0.000167856610
           C(Gh)      0.071531631688     0.044931814845     1.144915702610
           H(Gh)     -0.513140919312     0.068542756845     2.055783730610
           C(Gh)      1.460555223688    -0.020250617155     1.194911766610
           H(Gh)      1.966461604688    -0.045104772155     2.149240888610
           C(Gh)      2.171718368688    -0.053376415155     0.000000620610
           H(Gh)      3.251558319688    -0.105149968155    -0.000079807390
           C(Gh)      1.460410070688    -0.020317272155    -1.194800676390
           H(Gh)      1.966207017688    -0.045190299155    -2.149199277390
           C(Gh)      0.071380056688     0.044877718845    -1.144654416390
           H(Gh)     -0.513388826312     0.068478373845    -2.055446969390

  Running in c1 symmetry.

  Nuclear repulsion =    9.129156360765405

  Charge       = 0
  Multiplicity = 1
  Electrons    = 10
  Nalpha       = 5
  Nbeta        = 5

  ==> Algorithm <==

  SCF Algorithm Type is DF.
  DIIS enabled.
  MOM disabled.
  Fractional occupation disabled.
  Guess Type is CORE.
  Energy threshold   = 1.00e-08
  Density threshold  = 1.00e-08
  Integral threshold = 0.00e+00

  ==> Primary Basis <==

  Basis Set: AUG-CC-PVTZ
    Number of shells: 161
    Number of basis function: 483
    Number of Cartesian functions: 560
    Spherical Harmonics?: true
    Max angular momentum: 3

  ==> Pre-Iterations <==

   -------------------------------------------------------
    Irrep   Nso     Nmo     Nalpha   Nbeta   Ndocc  Nsocc
   -------------------------------------------------------
     A        483     483       0       0       0       0
   -------------------------------------------------------
    Total     483     483       5       5       5       0
   -------------------------------------------------------

 OEINTS: Wrapper to libmints.
   by Justin Turney

   Calculation information:
      Number of atoms:                  14
      Number of AO shells:             161
      Number of SO shells:             161
      Number of primitives:            287
      Number of atomic orbitals:       560
      Number of basis functions:       483

      Number of irreps:                  1
      Number of functions per irrep: [ 483 ]

      Overlap, kinetic, potential, dipole, and quadrupole integrals
        stored in file 35.

  ==> Integral Setup <==

  ==> DFJK: Density-Fitted J/K Matrices <==

    J tasked:                  Yes
    K tasked:                  Yes
    wK tasked:                  No
    OpenMP threads:              4
    Integrals threads:           4
    Memory (MB):              7152
    Algorithm:                Core
    Integral Cache:           LOAD
    Schwarz Cutoff:          0E+00
    Fitting Condition:       1E-12

   => Auxiliary Basis Set <=

  Basis Set: aug-cc-pvtz-jkfit
    Number of shells: 308
    Number of basis function: 1050
    Number of Cartesian functions: 1302
    Spherical Harmonics?: true
    Max angular momentum: 4

  Minimum eigenvalue in the overlap matrix is 2.0652956405E-06.
  Using Symmetric Orthogonalization.
  SCF Guess: Core (One-Electron) Hamiltonian.

  Guess energy:   -60.20347261710675

  ==> Iterations <==

                        Total Energy        Delta E     RMS |[F,P]|

   @RHF iter   1:   -61.28170616109817   -6.12817e+01   1.67841e-02 
   @RHF iter   2:   -61.51828561392374   -2.36579e-01   5.90148e-03 DIIS
   @RHF iter   3:   -72.53672513573882   -1.10184e+01   7.19396e-03 DIIS
   @RHF iter   4:   -75.11222070365615   -2.57550e+00   3.37039e-03 DIIS
   @RHF iter   5:   -76.03289700999066   -9.20676e-01   4.39517e-04 DIIS
   @RHF iter   6:   -76.05922379055838   -2.63268e-02   1.03734e-04 DIIS
   @RHF iter   7:   -76.05998496464238   -7.61174e-04   1.51754e-05 DIIS
   @RHF iter   8:   -76.06000419135772   -1.92267e-05   2.40956e-06 DIIS
   @RHF iter   9:   -76.06000478483490   -5.93477e-07   3.65066e-07 DIIS
   @RHF iter  10:   -76.06000480500292   -2.01680e-08   4.26165e-08 DIIS
   @RHF iter  11:   -76.06000480535965   -3.56735e-10   1.75285e-08 DIIS
   @RHF iter  12:   -76.06000480539360   -3.39497e-11   1.26340e-09 DIIS

  ==> Post-Iterations <==

	Orbital Energies (a.u.)
	-----------------------

	Doubly Occupied:                                                      

	   1A    -20.568767     2A     -1.350579     3A     -0.711987  
	   4A     -0.585379     5A     -0.510039  

	Virtual:                                                              

	   6A      0.014763     7A      0.029508     8A      0.030960  
	   9A      0.045446    10A      0.049377    11A      0.055074  
	  12A      0.061560    13A      0.074957    14A      0.085724  
	  15A      0.089488    16A      0.093127    17A      0.097446  
	  18A      0.102309    19A      0.112282    20A      0.112314  
	  21A      0.124088    22A      0.126058    23A      0.132260  
	  24A      0.138279    25A      0.138456    26A      0.143512  
	  27A      0.158627    28A      0.159680    29A      0.166075  
	  30A      0.180395    31A      0.185733    32A      0.189856  
	  33A      0.195952    34A      0.218204    35A      0.221486  
	  36A      0.226981    37A      0.238666    38A      0.254120  
	  39A      0.257646    40A      0.263046    41A      0.270173  
	  42A      0.280073    43A      0.284619    44A      0.284631  
	  45A      0.291841    46A      0.300213    47A      0.302710  
	  48A      0.308859    49A      0.319514    50A      0.328016  
	  51A      0.330145    52A      0.345925    53A      0.346448  
	  54A      0.357717    55A      0.361647    56A      0.362794  
	  57A      0.366083    58A      0.367548    59A      0.376727  
	  60A      0.380270    61A      0.380723    62A      0.400239  
	  63A      0.402392    64A      0.414336    65A      0.417331  
	  66A      0.418609    67A      0.425509    68A      0.429466  
	  69A      0.431818    70A      0.439504    71A      0.444981  
	  72A      0.462555    73A      0.464872    74A      0.473894  
	  75A      0.482842    76A      0.482867    77A      0.523582  
	  78A      0.544495    79A      0.547377    80A      0.551909  
	  81A      0.561703    82A      0.572396    83A      0.575966  
	  84A      0.586586    85A      0.595962    86A      0.604166  
	  87A      0.609731    88A      0.618098    89A      0.629577  
	  90A      0.634807    91A      0.645987    92A      0.654128  
	  93A      0.659207    94A      0.663933    95A      0.669413  
	  96A      0.681926    97A      0.692302    98A      0.697904  
	  99A      0.704043   100A      0.716281   101A      0.723871  
	 102A      0.728764   103A      0.733945   104A      0.743600  
	 105A      0.759718   106A      0.762595   107A      0.764314  
	 108A      0.776374   109A      0.776583   110A      0.792861  
	 111A      0.805287   112A      0.811606   113A      0.824279  
	 114A      0.836354   115A      0.844464   116A      0.847320  
	 117A      0.855973   118A      0.877995   119A      0.886909  
	 120A      0.897997   121A      0.899522   122A      0.906060  
	 123A      0.925728   124A      0.953334   125A      0.961614  
	 126A      0.973789   127A      0.973976   128A      0.979048  
	 129A      0.980772   130A      0.991451   131A      0.997735  
	 132A      1.010034   133A      1.017516   134A      1.027014  
	 135A      1.040666   136A      1.061682   137A      1.065238  
	 138A      1.072430   139A      1.074867   140A      1.078253  
	 141A      1.080883   142A      1.088486   143A      1.090823  
	 144A      1.094719   145A      1.101585   146A      1.122958  
	 147A      1.131454   148A      1.157034   149A      1.163035  
	 150A      1.164011   151A      1.165067   152A      1.167817  
	 153A      1.182631   154A      1.183805   155A      1.214036  
	 156A      1.237478   157A      1.241673   158A      1.245692  
	 159A      1.246052   160A      1.257123   161A      1.268845  
	 162A      1.277001   163A      1.280468   164A      1.302789  
	 165A      1.302948   166A      1.304448   167A      1.304773  
	 168A      1.311548   169A      1.315918   170A      1.328756  
	 171A      1.343519   172A      1.358496   173A      1.368772  
	 174A      1.379386   175A      1.383827   176A      1.409720  
	 177A      1.411480   178A      1.428536   179A      1.443440  
	 180A      1.447278   181A      1.461347   182A      1.466429  
	 183A      1.471508   184A      1.488810   185A      1.496948  
	 186A      1.520537   187A      1.534119   188A      1.536758  
	 189A      1.540900   190A      1.554201   191A      1.555624  
	 192A      1.561058   193A      1.579584   194A      1.592879  
	 195A      1.610689   196A      1.645505   197A      1.651988  
	 198A      1.657415   199A      1.671399   200A      1.679506  
	 201A      1.690574   202A      1.693004   203A      1.704551  
	 204A      1.713902   205A      1.715250   206A      1.746350  
	 207A      1.784966   208A      1.802200   209A      1.804904  
	 210A      1.822098   211A      1.832390   212A      1.879498  
	 213A      1.894311   214A      1.896075   215A      1.905592  
	 216A      1.927293   217A      1.940808   218A      1.958656  
	 219A      1.961731   220A      1.979401   221A      1.990222  
	 222A      2.023457   223A      2.035208   224A      2.050811  
	 225A      2.071684   226A      2.094826   227A      2.108904  
	 228A      2.148730   229A      2.162552   230A      2.186601  
	 231A      2.192532   232A      2.192829   233A      2.195645  
	 234A      2.205876   235A      2.217459   236A      2.220977  
	 237A      2.221668   238A      2.259697   239A      2.272233  
	 240A      2.304243   241A      2.306382   242A      2.322477  
	 243A      2.322686   244A      2.326050   245A      2.330994  
	 246A      2.347090   247A      2.349293   248A      2.368392  
	 249A      2.411244   250A      2.414110   251A      2.431701  
	 252A      2.440661   253A      2.464390   254A      2.466521  
	 255A      2.470262   256A      2.488168   257A      2.508547  
	 258A      2.513467   259A      2.526372   260A      2.544122  
	 261A      2.580240   262A      2.585281   263A      2.593496  
	 264A      2.614187   265A      2.626305   266A      2.629881  
	 267A      2.653141   268A      2.661491   269A      2.708271  
	 270A      2.742251   271A      2.747463   272A      2.763638  
	 273A      2.792692   274A      2.803635   275A      2.813915  
	 276A      2.834199   277A      2.848209   278A      2.878850  
	 279A      2.887765   280A      2.927159   281A      2.944956  
	 282A      2.959405   283A      2.967279   284A      2.992626  
	 285A      3.047683   286A      3.073148   287A      3.088189  
	 288A      3.101797   289A      3.207431   290A      3.231883  
	 291A      3.279878   292A      3.293708   293A      3.298345  
	 294A      3.403761   295A      3.521672   296A      3.550805  
	 297A      3.597219   298A      3.639910   299A      3.764451  
	 300A      3.787408   301A      3.808752   302A      3.946083  
	 303A      3.953201   304A      3.953857   305A      3.997757  
	 306A      4.000131   307A      4.010567   308A      4.019703  
	 309A      4.049236   310A      4.050125   311A      4.073318  
	 312A      4.091444   313A      4.103961   314A      4.112439  
	 315A      4.134564   316A      4.135019   317A      4.162950  
	 318A      4.170129   319A      4.187951   320A      4.229386  
	 321A      4.252709   322A      4.253693   323A      4.260732  
	 324A      4.282314   325A      4.302091   326A      4.322095  
	 327A      4.322175   328A      4.338031   329A      4.353625  
	 330A      4.365351   331A      4.375838   332A      4.398310  
	 333A      4.399343   334A      4.437297   335A      4.452318  
	 336A      4.467476   337A      4.492493   338A      4.506027  
	 339A      4.506540   340A      4.519703   341A      4.562098  
	 342A      4.573775   343A      4.591552   344A      4.621561  
	 345A      4.627794   346A      4.628255   347A      4.646275  
	 348A      4.676977   349A      4.696237   350A      4.746286  
	 351A      4.788981   352A      4.805250   353A      4.842784  
	 354A      4.854659   355A      4.878958   356A      4.892012  
	 357A      4.894674   358A      4.970825   359A      4.991438  
	 360A      4.994067   361A      5.000540   362A      5.003463  
	 363A      5.026893   364A      5.034762   365A      5.046349  
	 366A      5.049906   367A      5.111423   368A      5.122049  
	 369A      5.155318   370A      5.164282   371A      5.170663  
	 372A      5.189632   373A      5.215174   374A      5.219762  
	 375A      5.254850   376A      5.271088   377A      5.290605  
	 378A      5.308642   379A      5.315545   380A      5.341924  
	 381A      5.344206   382A      5.427799   383A      5.438359  
	 384A      5.455840   385A      5.462838   386A      5.480887  
	 387A      5.490563   388A      5.510890   389A      5.583688  
	 390A      5.592584   391A      5.616673   392A      5.681146  
	 393A      5.691593   394A      5.694930   395A      5.701837  
	 396A      5.744354   397A      5.776550   398A      5.779517  
	 399A      5.800806   400A      5.823944   401A      5.844690  
	 402A      5.868131   403A      6.028062   404A      6.034379  
	 405A      6.039885   406A      6.056153   407A      6.067711  
	 408A      6.108668   409A      6.146716   410A      6.173691  
	 411A      6.233548   412A      6.248652   413A      6.337643  
	 414A      6.362507   415A      6.367870   416A      6.398499  
	 417A      6.432068   418A      6.461546   419A      6.519024  
	 420A      6.596037   421A      6.674329   422A      6.719536  
	 423A      6.732236   424A      6.755400   425A      6.813670  
	 426A      6.848839   427A      6.923027   428A      6.939153  
	 429A      6.990837   430A      7.004911   431A      7.006497  
	 432A      7.074397   433A      7.089909   434A      7.100477  
	 435A      7.182175   436A      7.204638   437A      7.322705  
	 438A      7.344403   439A      7.368530   440A      7.417045  
	 441A      7.430077   442A      7.447452   443A      7.504244  
	 444A      7.534215   445A      7.575941   446A      7.592466  
	 447A      7.685081   448A      7.703200   449A      7.744939  
	 450A      7.833946   451A      7.865472   452A      7.871469  
	 453A      8.068577   454A      8.089317   455A      8.139188  
	 456A      8.140137   457A      8.170081   458A      8.267737  
	 459A      8.285629   460A      8.375860   461A      8.711527  
	 462A      8.749286   463A      8.995655   464A      9.116708  
	 465A      9.191567   466A      9.344936   467A      9.543897  
	 468A      9.888471   469A     10.058458   470A     10.220415  
	 471A     10.747673   472A     11.232484   473A     11.360539  
	 474A     11.477745   475A     12.102752   476A     12.303320  
	 477A     17.085103   478A     50.214941   479A     50.678467  
	 480A     54.470907   481A     55.160593   482A     55.612242  
	 483A     61.442200  

	Final Occupation by Irrep:
	          A 
	DOCC [     5 ]

  Energy converged.

  @RHF Final Energy:   -76.06000480539360

   => Energetics <=

    Nuclear Repulsion Energy =              9.1291563607654052
    One-Electron Energy =                -122.9248184010299525
    Two-Electron Energy =                  37.7356572348706152
    DFT Exchange-Correlation Energy =       0.0000000000000000
    Empirical Dispersion Energy =           0.0000000000000000
    Total Energy =                        -76.0600048053939304



Properties will be evaluated at   0.000000,   0.000000,   0.000000 Bohr
  ==> Properties <==


Properties computed using the SCF density density matrix
  Nuclear Dipole Moment: (a.u.)
     X:   -62.7199      Y:    -0.2104      Z:    -0.0067

  Electronic Dipole Moment: (a.u.)
     X:    63.1457      Y:     0.8742      Z:     0.0073

  Dipole Moment: (a.u.)
     X:     0.4258      Y:     0.6639      Z:     0.0006     Total:     0.7887

  Dipole Moment: (Debye)
     X:     1.0822      Y:     1.6874      Z:     0.0015     Total:     2.0046


  Saving occupied orbitals to File 180.

  Saving SAPT 2-MONOMER_A file.

*** tstop() called on node125.bme.utexas.edu at Wed Sep 25 15:20:01 2013
Module time:
	user time   =     138.27 seconds =       2.30 minutes
	system time =       1.13 seconds =       0.02 minutes
	total time  =         37 seconds =       0.62 minutes
Total time:
	user time   =     430.22 seconds =       7.17 minutes
	system time =       3.68 seconds =       0.06 minutes
	total time  =        115 seconds =       1.92 minutes

  //>>>>>>>>>>>>>>>>>>>>>>>>>>>>>>>>>>>//
  //            Monomer B HF           //
  //<<<<<<<<<<<<<<<<<<<<<<<<<<<<<<<<<<<//


  No DF_BASIS_SCF auxiliary basis selected, defaulting to aug-cc-pvtz-jkfit


*** tstart() called on node125.bme.utexas.edu
*** at Wed Sep 25 15:20:01 2013


         ---------------------------------------------------------
                                   SCF
            by Justin Turney, Rob Parrish, and Andy Simmonett
                              RHF Reference
                        4 Threads,  10000 MiB Core
         ---------------------------------------------------------

  ==> Geometry <==

    Molecular point group: c1
    Full point group: C1

    Geometry (in Angstrom), charge = 0, multiplicity = 1:

       Center              X                  Y                   Z       
    ------------   -----------------  -----------------  -----------------
           O(Gh)     -3.383651679312    -0.111467184155    -0.000445544390
           H(Gh)     -3.702580288312     0.792022503845     0.000197643610
           H(Gh)     -2.418161158312    -0.011601942155    -0.000198566390
           N         -0.624375007312     0.078902606845     0.000167856610
           C          0.071531631688     0.044931814845     1.144915702610
           H         -0.513140919312     0.068542756845     2.055783730610
           C          1.460555223688    -0.020250617155     1.194911766610
           H          1.966461604688    -0.045104772155     2.149240888610
           C          2.171718368688    -0.053376415155     0.000000620610
           H          3.251558319688    -0.105149968155    -0.000079807390
           C          1.460410070688    -0.020317272155    -1.194800676390
           H          1.966207017688    -0.045190299155    -2.149199277390
           C          0.071380056688     0.044877718845    -1.144654416390
           H         -0.513388826312     0.068478373845    -2.055446969390

  Running in c1 symmetry.

  Nuclear repulsion =  206.285463431529280

  Charge       = 0
  Multiplicity = 1
  Electrons    = 42
  Nalpha       = 21
  Nbeta        = 21

  ==> Algorithm <==

  SCF Algorithm Type is DF.
  DIIS enabled.
  MOM disabled.
  Fractional occupation disabled.
  Guess Type is CORE.
  Energy threshold   = 1.00e-08
  Density threshold  = 1.00e-08
  Integral threshold = 0.00e+00

  ==> Primary Basis <==

  Basis Set: AUG-CC-PVTZ
    Number of shells: 161
    Number of basis function: 483
    Number of Cartesian functions: 560
    Spherical Harmonics?: true
    Max angular momentum: 3

  ==> Pre-Iterations <==

   -------------------------------------------------------
    Irrep   Nso     Nmo     Nalpha   Nbeta   Ndocc  Nsocc
   -------------------------------------------------------
     A        483     483       0       0       0       0
   -------------------------------------------------------
    Total     483     483      21      21      21       0
   -------------------------------------------------------

 OEINTS: Wrapper to libmints.
   by Justin Turney

   Calculation information:
      Number of atoms:                  14
      Number of AO shells:             161
      Number of SO shells:             161
      Number of primitives:            287
      Number of atomic orbitals:       560
      Number of basis functions:       483

      Number of irreps:                  1
      Number of functions per irrep: [ 483 ]

      Overlap, kinetic, potential, dipole, and quadrupole integrals
        stored in file 35.

  ==> Integral Setup <==

  ==> DFJK: Density-Fitted J/K Matrices <==

    J tasked:                  Yes
    K tasked:                  Yes
    wK tasked:                  No
    OpenMP threads:              4
    Integrals threads:           4
    Memory (MB):              7152
    Algorithm:                Core
    Integral Cache:           LOAD
    Schwarz Cutoff:          0E+00
    Fitting Condition:       1E-12

   => Auxiliary Basis Set <=

  Basis Set: aug-cc-pvtz-jkfit
    Number of shells: 308
    Number of basis function: 1050
    Number of Cartesian functions: 1302
    Spherical Harmonics?: true
    Max angular momentum: 4

  Minimum eigenvalue in the overlap matrix is 2.0652956405E-06.
  Using Symmetric Orthogonalization.
  SCF Guess: Core (One-Electron) Hamiltonian.

  Guess energy:  -194.55216535583642

  ==> Iterations <==

                        Total Energy        Delta E     RMS |[F,P]|

   @RHF iter   1:  -191.89891470030821   -1.91899e+02   2.31109e-02 
   @RHF iter   2:  -177.75057463581570    1.41483e+01   1.31136e-02 DIIS
   @RHF iter   3:  -211.43947734115156   -3.36889e+01   1.47439e-02 DIIS
   @RHF iter   4:  -240.99202943060786   -2.95526e+01   5.53048e-03 DIIS
   @RHF iter   5:  -246.18693504441185   -5.19491e+00   2.13621e-03 DIIS
   @RHF iter   6:  -246.71815852583271   -5.31223e-01   6.63138e-04 DIIS
   @RHF iter   7:  -246.77364834444839   -5.54898e-02   1.51879e-04 DIIS
   @RHF iter   8:  -246.77754952969676   -3.90119e-03   5.91422e-05 DIIS
   @RHF iter   9:  -246.77852525147003   -9.75722e-04   3.03318e-05 DIIS
   @RHF iter  10:  -246.77875750403982   -2.32253e-04   1.21995e-05 DIIS
   @RHF iter  11:  -246.77883729496168   -7.97909e-05   5.26902e-06 DIIS
   @RHF iter  12:  -246.77885188402993   -1.45891e-05   2.17417e-06 DIIS
   @RHF iter  13:  -246.77885415643843   -2.27241e-06   7.30796e-07 DIIS
   @RHF iter  14:  -246.77885432877017   -1.72332e-07   2.23206e-07 DIIS
   @RHF iter  15:  -246.77885434133398   -1.25638e-08   6.30322e-08 DIIS
   @RHF iter  16:  -246.77885434218260   -8.48615e-10   1.58586e-08 DIIS
   @RHF iter  17:  -246.77885434224547   -6.28688e-11   5.87172e-09 DIIS

  ==> Post-Iterations <==

	Orbital Energies (a.u.)
	-----------------------

	Doubly Occupied:                                                      

	   1A    -15.566749     2A    -11.275247     3A    -11.275230  
	   4A    -11.260477     5A    -11.242464     6A    -11.242412  
	   7A     -1.256666     8A     -1.089780     9A     -1.034696  
	  10A     -0.859690    11A     -0.856449    12A     -0.722524  
	  13A     -0.660924    14A     -0.654806    15A     -0.599648  
	  16A     -0.577307    17A     -0.541447    18A     -0.521014  
	  19A     -0.418653    20A     -0.383859    21A     -0.348533  

	Virtual:                                                              

	  22A      0.025901    23A      0.033237    24A      0.035183  
	  25A      0.047924    26A      0.048763    27A      0.059551  
	  28A      0.070518    29A      0.086077    30A      0.091662  
	  31A      0.099855    32A      0.100342    33A      0.106287  
	  34A      0.109142    35A      0.113742    36A      0.115690  
	  37A      0.120186    38A      0.129018    39A      0.130636  
	  40A      0.134984    41A      0.140997    42A      0.143779  
	  43A      0.150759    44A      0.155151    45A      0.157074  
	  46A      0.158359    47A      0.176358    48A      0.193041  
	  49A      0.208443    50A      0.216799    51A      0.242228  
	  52A      0.242632    53A      0.243466    54A      0.250217  
	  55A      0.255413    56A      0.264621    57A      0.271588  
	  58A      0.272906    59A      0.283455    60A      0.296817  
	  61A      0.297077    62A      0.299921    63A      0.302468  
	  64A      0.303710    65A      0.315524    66A      0.315759  
	  67A      0.323247    68A      0.331238    69A      0.336887  
	  70A      0.344581    71A      0.346704    72A      0.364633  
	  73A      0.367390    74A      0.374730    75A      0.376713  
	  76A      0.390800    77A      0.403928    78A      0.409054  
	  79A      0.415725    80A      0.422094    81A      0.424422  
	  82A      0.437979    83A      0.439449    84A      0.447830  
	  85A      0.452804    86A      0.457584    87A      0.463343  
	  88A      0.465732    89A      0.472366    90A      0.485747  
	  91A      0.487597    92A      0.492233    93A      0.495562  
	  94A      0.498417    95A      0.500581    96A      0.519339  
	  97A      0.526068    98A      0.535469    99A      0.538256  
	 100A      0.539299   101A      0.551398   102A      0.567719  
	 103A      0.572148   104A      0.593683   105A      0.603792  
	 106A      0.625939   107A      0.627015   108A      0.630033  
	 109A      0.634942   110A      0.644821   111A      0.647220  
	 112A      0.662207   113A      0.667149   114A      0.676003  
	 115A      0.709388   116A      0.712436   117A      0.721886  
	 118A      0.726798   119A      0.733304   120A      0.734487  
	 121A      0.768094   122A      0.769628   123A      0.784254  
	 124A      0.794710   125A      0.799568   126A      0.806949  
	 127A      0.814726   128A      0.826605   129A      0.839202  
	 130A      0.840420   131A      0.848894   132A      0.854929  
	 133A      0.863143   134A      0.865700   135A      0.880720  
	 136A      0.884628   137A      0.886659   138A      0.887204  
	 139A      0.893626   140A      0.903520   141A      0.910464  
	 142A      0.936916   143A      0.940606   144A      0.945371  
	 145A      0.945978   146A      0.949625   147A      0.958279  
	 148A      0.976761   149A      0.982764   150A      0.991093  
	 151A      1.008115   152A      1.008219   153A      1.008473  
	 154A      1.012808   155A      1.016510   156A      1.024875  
	 157A      1.031261   158A      1.033278   159A      1.038917  
	 160A      1.046196   161A      1.054315   162A      1.054642  
	 163A      1.078755   164A      1.081359   165A      1.085584  
	 166A      1.092402   167A      1.100604   168A      1.104909  
	 169A      1.129046   170A      1.135702   171A      1.140422  
	 172A      1.157150   173A      1.158044   174A      1.181155  
	 175A      1.184318   176A      1.189659   177A      1.191213  
	 178A      1.195172   179A      1.201220   180A      1.205752  
	 181A      1.210397   182A      1.214217   183A      1.230005  
	 184A      1.235896   185A      1.236807   186A      1.245176  
	 187A      1.261730   188A      1.282006   189A      1.287861  
	 190A      1.298508   191A      1.326665   192A      1.338936  
	 193A      1.345179   194A      1.367629   195A      1.383714  
	 196A      1.390795   197A      1.410919   198A      1.413923  
	 199A      1.423481   200A      1.430860   201A      1.449963  
	 202A      1.471895   203A      1.483403   204A      1.499014  
	 205A      1.503511   206A      1.516246   207A      1.529461  
	 208A      1.529966   209A      1.552582   210A      1.572535  
	 211A      1.594506   212A      1.597287   213A      1.619594  
	 214A      1.656711   215A      1.659602   216A      1.669691  
	 217A      1.680074   218A      1.697021   219A      1.702963  
	 220A      1.710537   221A      1.720514   222A      1.728854  
	 223A      1.734229   224A      1.753639   225A      1.782686  
	 226A      1.793671   227A      1.801742   228A      1.814046  
	 229A      1.825361   230A      1.828432   231A      1.838163  
	 232A      1.863249   233A      1.868632   234A      1.883647  
	 235A      1.900149   236A      1.923987   237A      1.936621  
	 238A      1.936642   239A      1.956252   240A      1.979640  
	 241A      1.980748   242A      1.988957   243A      2.006041  
	 244A      2.012169   245A      2.022561   246A      2.038044  
	 247A      2.042705   248A      2.042885   249A      2.048996  
	 250A      2.084556   251A      2.094139   252A      2.104937  
	 253A      2.116651   254A      2.146733   255A      2.162722  
	 256A      2.183039   257A      2.211560   258A      2.235104  
	 259A      2.236548   260A      2.245568   261A      2.252874  
	 262A      2.260640   263A      2.275859   264A      2.322394  
	 265A      2.344794   266A      2.369189   267A      2.389469  
	 268A      2.406632   269A      2.426814   270A      2.437646  
	 271A      2.451559   272A      2.460770   273A      2.492598  
	 274A      2.525203   275A      2.528598   276A      2.556821  
	 277A      2.570329   278A      2.578439   279A      2.592676  
	 280A      2.626358   281A      2.658397   282A      2.694483  
	 283A      2.700468   284A      2.707330   285A      2.715164  
	 286A      2.764591   287A      2.788424   288A      2.819526  
	 289A      2.845317   290A      2.863795   291A      2.915798  
	 292A      2.926757   293A      2.935269   294A      2.958408  
	 295A      2.972392   296A      3.000026   297A      3.004706  
	 298A      3.073925   299A      3.115253   300A      3.139214  
	 301A      3.155475   302A      3.189835   303A      3.193283  
	 304A      3.244972   305A      3.253411   306A      3.271752  
	 307A      3.312474   308A      3.320735   309A      3.343126  
	 310A      3.350433   311A      3.366217   312A      3.395476  
	 313A      3.400921   314A      3.424478   315A      3.427417  
	 316A      3.439979   317A      3.462972   318A      3.480961  
	 319A      3.502721   320A      3.507520   321A      3.517629  
	 322A      3.536467   323A      3.544103   324A      3.562248  
	 325A      3.568401   326A      3.593078   327A      3.634099  
	 328A      3.669484   329A      3.674019   330A      3.688653  
	 331A      3.692620   332A      3.710624   333A      3.723289  
	 334A      3.748134   335A      3.767131   336A      3.786664  
	 337A      3.795704   338A      3.802467   339A      3.838272  
	 340A      3.860100   341A      3.877892   342A      3.897037  
	 343A      3.898957   344A      3.911215   345A      3.911844  
	 346A      3.934781   347A      3.948955   348A      3.992098  
	 349A      4.011330   350A      4.016029   351A      4.029444  
	 352A      4.043862   353A      4.056975   354A      4.091406  
	 355A      4.095534   356A      4.128190   357A      4.148666  
	 358A      4.155121   359A      4.158068   360A      4.182291  
	 361A      4.207571   362A      4.208864   363A      4.226911  
	 364A      4.241844   365A      4.248338   366A      4.279358  
	 367A      4.302991   368A      4.303972   369A      4.350636  
	 370A      4.375483   371A      4.406060   372A      4.424724  
	 373A      4.443875   374A      4.457856   375A      4.472463  
	 376A      4.484037   377A      4.515519   378A      4.521143  
	 379A      4.529908   380A      4.539018   381A      4.558246  
	 382A      4.595102   383A      4.635235   384A      4.686037  
	 385A      4.687866   386A      4.702861   387A      4.703829  
	 388A      4.763931   389A      4.769273   390A      4.774880  
	 391A      4.845390   392A      4.866194   393A      4.878283  
	 394A      4.905188   395A      4.922052   396A      4.932656  
	 397A      4.943310   398A      4.976994   399A      4.997848  
	 400A      5.001422   401A      5.037790   402A      5.044119  
	 403A      5.059719   404A      5.069647   405A      5.120890  
	 406A      5.131265   407A      5.142660   408A      5.159197  
	 409A      5.203042   410A      5.220707   411A      5.226000  
	 412A      5.261078   413A      5.284581   414A      5.285876  
	 415A      5.302351   416A      5.363847   417A      5.412818  
	 418A      5.449681   419A      5.449835   420A      5.456204  
	 421A      5.496719   422A      5.515195   423A      5.531845  
	 424A      5.550077   425A      5.634045   426A      5.650889  
	 427A      5.669154   428A      5.685614   429A      5.729193  
	 430A      5.781940   431A      5.828582   432A      5.833204  
	 433A      5.865528   434A      5.890466   435A      5.913290  
	 436A      5.927337   437A      5.940004   438A      5.968916  
	 439A      6.067176   440A      6.074151   441A      6.093745  
	 442A      6.155904   443A      6.237483   444A      6.245943  
	 445A      6.287654   446A      6.399989   447A      6.511779  
	 448A      6.514849   449A      6.630683   450A      6.685356  
	 451A      6.743487   452A      6.749162   453A      6.774173  
	 454A      6.854337   455A      6.909905   456A      6.964744  
	 457A      7.109594   458A      7.149602   459A      7.212394  
	 460A      7.500410   461A      7.777329   462A      7.923087  
	 463A      8.139301   464A      8.279428   465A      8.455744  
	 466A      8.912470   467A      9.123895   468A      9.753313  
	 469A      9.936663   470A     10.241102   471A     10.419706  
	 472A     11.353845   473A     12.028228   474A     12.434877  
	 475A     13.729928   476A     14.050413   477A     15.735654  
	 478A     16.345981   479A     18.777452   480A     19.002419  
	 481A     19.389039   482A     19.513001   483A     67.378139  

	Final Occupation by Irrep:
	          A 
	DOCC [    21 ]

  Energy converged.

  @RHF Final Energy:  -246.77885434224547

   => Energetics <=

    Nuclear Repulsion Energy =            206.2854634315292799
    One-Electron Energy =                -741.3514926435591406
    Two-Electron Energy =                 288.2871748697837120
    DFT Exchange-Correlation Energy =       0.0000000000000000
    Empirical Dispersion Energy =           0.0000000000000000
    Total Energy =                       -246.7788543422461771



Properties will be evaluated at   0.000000,   0.000000,   0.000000 Bohr
  ==> Properties <==


Properties computed using the SCF density density matrix
  Nuclear Dipole Moment: (a.u.)
     X:    62.7401      Y:     0.8864      Z:     0.0070

  Electronic Dipole Moment: (a.u.)
     X:   -61.8303      Y:    -0.9325      Z:    -0.0071

  Dipole Moment: (a.u.)
     X:     0.9098      Y:    -0.0461      Z:    -0.0001     Total:     0.9110

  Dipole Moment: (Debye)
     X:     2.3125      Y:    -0.1171      Z:    -0.0002     Total:     2.3154


  Saving occupied orbitals to File 180.

  Saving SAPT 2-MONOMER_B file.

*** tstop() called on node125.bme.utexas.edu at Wed Sep 25 15:21:00 2013
Module time:
	user time   =     225.31 seconds =       3.76 minutes
	system time =       1.50 seconds =       0.03 minutes
	total time  =         59 seconds =       0.98 minutes
Total time:
	user time   =     655.55 seconds =      10.93 minutes
	system time =       5.18 seconds =       0.09 minutes
	total time  =        174 seconds =       2.90 minutes
  No DF_BASIS_SAPT auxiliary basis selected, defaulting to aug-cc-pvtz-ri

  //>>>>>>>>>>>>>>>>>>>>>>>>>>>>>>>>>>>//
  //               SAPT2+              //
  //<<<<<<<<<<<<<<<<<<<<<<<<<<<<<<<<<<<//


*** tstart() called on node125.bme.utexas.edu
*** at Wed Sep 25 15:21:00 2013

        SAPT2+  
    Ed Hohenstein
     6 June 2009

      Orbital Information
  --------------------------
    NSO        =       483
    NMO        =       483
    NRI        =      1064
    NOCC A     =         5
    NOCC B     =        21
    FOCC A     =         1
    FOCC B     =         6
    NVIR A     =       478
    NVIR B     =       462

    Estimated memory usage: 4363.1 MB

    Elst10,r            =    -0.024511319577 H
    Exch10 (S^2)        =     0.028430778993 H
    Exch10              =     0.028966815932 H
    Ind20,r (A<-B)      =    -0.003425599161 H
    Ind20,r (B<-A)      =    -0.010481823053 H
    Ind20,r             =    -0.013907422214 H
    Exch-Ind20,r (A<-B) =     0.002298042315 H
    Exch-Ind20,r (B<-A) =     0.006034364547 H
    Exch-Ind20,r        =     0.008332406862 H
    Disp20              =    -0.009328410487 H
    Exch-Disp20         =     0.001974332109 H
    Elst12,r            =    -0.000481055174 H
    Exch11              =     0.000532151436 H
    Exch12              =     0.002664782970 H
    Ind22               =    -0.001768083356 H
    Disp21              =     0.000860899536 H
    Disp22 (SDQ)        =    -0.000143621538 H

    (i =   1 of  15)        367 seconds
    (i =   2 of  15)        732 seconds
    (i =   3 of  15)       1099 seconds
    (i =   4 of  15)       1465 seconds
    (i =   5 of  15)       1831 seconds
    (i =   6 of  15)       2197 seconds
    (i =   7 of  15)       2563 seconds
    (i =   8 of  15)       2928 seconds
    (i =   9 of  15)       3286 seconds
    (i =  10 of  15)       3652 seconds
    (i =  11 of  15)       4016 seconds
    (i =  12 of  15)       4383 seconds
    (i =  13 of  15)       4749 seconds
    (i =  14 of  15)       5116 seconds
    (i =  15 of  15)       5481 seconds

    Disp220 (T)         =    -0.000842643647 H

    (i =   1 of   4)       3045 seconds
    (i =   2 of   4)       6095 seconds
    (i =   3 of   4)       9146 seconds
    (i =   4 of   4)      12237 seconds

    Disp202 (T)         =    -0.000874571125 H

    Disp22 (T)          =    -0.001717214772 H

    SAPT Results  
  -----------------------------------------------------------------------
    Electrostatics         -24.99237475 mH     -15.68295258 kcal mol^-1
      Elst10,r             -24.51131958 mH     -15.38108589 kcal mol^-1
      Elst12,r              -0.48105517 mH      -0.30186669 kcal mol^-1

    Exchange                32.16375034 mH      20.18305889 kcal mol^-1
      Exch10                28.96681593 mH      18.17695218 kcal mol^-1
      Exch10(S^2)           28.43077899 mH      17.84058391 kcal mol^-1
      Exch11(S^2)            0.53215144 mH       0.33393008 kcal mol^-1
      Exch12(S^2)            2.66478297 mH       1.67217663 kcal mol^-1

    Induction              -10.38376424 mH      -6.51591071 kcal mol^-1
      Ind20,r              -13.90742221 mH      -8.72703956 kcal mol^-1
      Ind22                 -1.76808336 mH      -1.10948910 kcal mol^-1
      Exch-Ind20,r           8.33240686 mH       5.22866446 kcal mol^-1
      Exch-Ind22             1.05931852 mH       0.66473243 kcal mol^-1
      delta HF,r (2)        -4.09998405 mH      -2.57277894 kcal mol^-1

    Dispersion              -8.35401515 mH      -5.24222387 kcal mol^-1
      Disp20                -9.32841049 mH      -5.85366620 kcal mol^-1
      Disp21                 0.86089954 mH       0.54022264 kcal mol^-1
      Disp22 (SDQ)          -0.14362154 mH      -0.09012388 kcal mol^-1
      Disp22 (T)            -1.71721477 mH      -1.07756858 kcal mol^-1
      Exch-Disp20            1.97433211 mH       1.23891215 kcal mol^-1

    Total HF                -5.21950305 mH      -3.27528775 kcal mol^-1
    Total SAPT0            -12.57358142 mH      -7.89004179 kcal mol^-1
    Total SAPT2            -10.56646703 mH      -6.63055844 kcal mol^-1
    Total SAPT2+           -11.56640380 mH      -7.25802827 kcal mol^-1

*** tstop() called on node125.bme.utexas.edu at Wed Sep 25 22:23:31 2013
Module time:
	user time   =   89514.59 seconds =    1491.91 minutes
	system time =     281.64 seconds =       4.69 minutes
	total time  =      25351 seconds =     422.52 minutes
Total time:
	user time   =   90170.14 seconds =    1502.84 minutes
	system time =     286.82 seconds =       4.78 minutes
	total time  =      25525 seconds =     425.42 minutes

*** PSI4 exiting successfully. Buy a developer a beer!
