    -----------------------------------------------------------------------
          PSI4: An Open-Source Ab Initio Electronic Structure Package
                              PSI 4.0.0-beta4 Driver

    J. M. Turney, A. C. Simmonett, R. M. Parrish, E. G. Hohenstein,
    F. A. Evangelista, J. T. Fermann, B. J. Mintz, L. A. Burns, J. J. Wilke,
    M. L. Abrams, N. J. Russ, M. L. Leininger, C. L. Janssen, E. T. Seidl,
    W. D. Allen, H. F. Schaefer, R. A. King, E. F. Valeev, C. D. Sherrill,
    and T. D. Crawford, WIREs Comput. Mol. Sci., (2011) (doi: 10.1002/wcms.93)

                         Additional Contributions by
    A. E. DePrince, M. Saitow, U. Bozkaya, A. Yu. Sokolov
    -----------------------------------------------------------------------

    Process ID:  48373
    PSI4DATADIR: /home/xzhu216/psi4/psi4-install/share/psi

    Using LocalCommunicator (Number of processes = 1)

    Memory level set to 256.000 MB

  ==> Input File <==

--------------------------------------------------------------------------
#psi4
#
memory 30 gb

molecule MeOH_Pyridine {
0 1
O   -0.627651774   0.087467269   0.001471285
H    0.343602034   0.122303329  -0.000600445
C   -0.977931231  -1.278556006   0.001238407
H   -2.063392094  -1.342043324   0.005008980
H   -0.614883686  -1.806375837  -0.885383954
H   -0.608640326  -1.808236824   0.884172732
--
0 1
N    2.488542431   0.004564454  -0.001741894
C    3.184910820  -0.019870877  -1.146461498
H    2.600432223   0.003352658  -2.057436936
C    4.574547883  -0.069613741  -1.195146748
H    5.081900231  -0.086905773  -2.148929472
C    5.284921111  -0.095326358   0.000466279
H    6.365257114  -0.133091111   0.001315574
C    4.572673659  -0.070305251   1.195006132
H    5.078472393  -0.088129578   2.149491824
C    3.183120016  -0.020555564   1.144052047
H    2.597114230   0.002118863   2.054170733
units angstrom
no_reorient  #important for SAPT in psi4, default
symmetry c1  #important for SAPT in psi4, default
}

set {
basis aug-cc-pVTZ
scf_type DF
guess GWH
freeze_core True
}
energy('sapt2+')
--------------------------------------------------------------------------

  Memory set to  30.000 GiB by Python script.

  //>>>>>>>>>>>>>>>>>>>>>>>>>>>>>>>>>>>//
  //              Dimer HF             //
  //<<<<<<<<<<<<<<<<<<<<<<<<<<<<<<<<<<<//


  No DF_BASIS_SCF auxiliary basis selected, defaulting to aug-cc-pvtz-jkfit


*** tstart() called on genome.bme.utexas.edu
*** at Mon Nov 25 10:38:01 2013


         ---------------------------------------------------------
                                   SCF
            by Justin Turney, Rob Parrish, and Andy Simmonett
                              RHF Reference
                        4 Threads,  30000 MiB Core
         ---------------------------------------------------------

  ==> Geometry <==

    Molecular point group: c1
    Full point group: C1

    Geometry (in Angstrom), charge = 0, multiplicity = 1:

       Center              X                  Y                   Z       
    ------------   -----------------  -----------------  -----------------
           O         -3.163041626136     0.288829562162     0.001553938317
           H         -2.191787818136     0.323665622162    -0.000517791683
           C         -3.513321083136    -1.077193712838     0.001321060317
           H         -4.598781946136    -1.140681030838     0.005091633317
           H         -3.150273538136    -1.605013543838    -0.885301300683
           H         -3.144030178136    -1.606874530838     0.884255385317
           N         -0.046847421136     0.205926747162    -0.001659240683
           C          0.649520967864     0.181491416162    -1.146378844683
           H          0.065042370864     0.204714951162    -2.057354282683
           C          2.039158030864     0.131748552162    -1.195064094683
           H          2.546510378864     0.114456520162    -2.148846818683
           C          2.749531258864     0.106035935162     0.000548932317
           H          3.829867261864     0.068271182162     0.001398227317
           C          2.037283806864     0.131057042162     1.195088785317
           H          2.543082540864     0.113232715162     2.149574477317
           C          0.647730163864     0.180806729162     1.144134700317
           H          0.061724377864     0.203481156162     2.054253386317

  Running in c1 symmetry.

  Nuclear repulsion =  333.215387288373108

  Charge       = 0
  Multiplicity = 1
  Electrons    = 60
  Nalpha       = 30
  Nbeta        = 30

  ==> Algorithm <==

  SCF Algorithm Type is DF.
  DIIS enabled.
  MOM disabled.
  Fractional occupation disabled.
  Guess Type is GWH.
  Energy threshold   = 1.00e-08
  Density threshold  = 1.00e-08
  Integral threshold = 0.00e+00

  ==> Primary Basis <==

  Basis Set: AUG-CC-PVTZ
    Number of shells: 193
    Number of basis function: 575
    Number of Cartesian functions: 665
    Spherical Harmonics?: true
    Max angular momentum: 3

  ==> Pre-Iterations <==

   -------------------------------------------------------
    Irrep   Nso     Nmo     Nalpha   Nbeta   Ndocc  Nsocc
   -------------------------------------------------------
     A        575     575       0       0       0       0
   -------------------------------------------------------
    Total     575     575      30      30      30       0
   -------------------------------------------------------

 OEINTS: Wrapper to libmints.
   by Justin Turney

   Calculation information:
      Number of atoms:                  17
      Number of AO shells:             193
      Number of SO shells:             193
      Number of primitives:            339
      Number of atomic orbitals:       665
      Number of basis functions:       575

      Number of irreps:                  1
      Number of functions per irrep: [ 575 ]

      Overlap, kinetic, potential, dipole, and quadrupole integrals
        stored in file 35.

  ==> Integral Setup <==

  ==> DFJK: Density-Fitted J/K Matrices <==

    J tasked:                  Yes
    K tasked:                  Yes
    wK tasked:                  No
    OpenMP threads:              4
    Integrals threads:           4
    Memory (MB):             21457
    Algorithm:                Core
    Integral Cache:           SAVE
    Schwarz Cutoff:          0E+00
    Fitting Condition:       1E-12

   => Auxiliary Basis Set <=

  Basis Set: aug-cc-pvtz-jkfit
    Number of shells: 366
    Number of basis function: 1246
    Number of Cartesian functions: 1543
    Spherical Harmonics?: true
    Max angular momentum: 4

  Minimum eigenvalue in the overlap matrix is 1.9630486229E-06.
  Using Symmetric Orthogonalization.
  SCF Guess: Generalized Wolfsberg-Helmholtz.

  Guess energy:  -260.51537257081065

  ==> Iterations <==

                        Total Energy        Delta E     RMS |[F,P]|

   @RHF iter   1:  -318.44694747387166   -3.18447e+02   1.82102e-02 
   @RHF iter   2:  -109.83148894635065    2.08615e+02   2.57015e-02 DIIS
   @RHF iter   3:  -279.74503011637319   -1.69914e+02   1.40464e-02 DIIS
   @RHF iter   4:  -258.21348223790073    2.15315e+01   1.55952e-02 DIIS
   @RHF iter   5:  -355.71312854462406   -9.74996e+01   4.99438e-03 DIIS
   @RHF iter   6:  -360.31193937254113   -4.59881e+00   3.05616e-03 DIIS
   @RHF iter   7:  -361.81599504562189   -1.50406e+00   5.44227e-04 DIIS
   @RHF iter   8:  -361.86743214992543   -5.14371e-02   2.10384e-04 DIIS
   @RHF iter   9:  -361.87644930524743   -9.01716e-03   5.88467e-05 DIIS
   @RHF iter  10:  -361.87731141438383   -8.62109e-04   2.39478e-05 DIIS
   @RHF iter  11:  -361.87748387029967   -1.72456e-04   1.29677e-05 DIIS
   @RHF iter  12:  -361.87756387085278   -8.00006e-05   6.43099e-06 DIIS
   @RHF iter  13:  -361.87758754621120   -2.36754e-05   1.98328e-06 DIIS
   @RHF iter  14:  -361.87759105941382   -3.51320e-06   1.03148e-06 DIIS
   @RHF iter  15:  -361.87759168607249   -6.26659e-07   3.30529e-07 DIIS
   @RHF iter  16:  -361.87759174657492   -6.05024e-08   7.56340e-08 DIIS
   @RHF iter  17:  -361.87759174892869   -2.35377e-09   2.62251e-08 DIIS
   @RHF iter  18:  -361.87759174911150   -1.82808e-10   7.11862e-09 DIIS

  ==> Post-Iterations <==

	Orbital Energies (a.u.)
	-----------------------

	Doubly Occupied:                                                      

	   1A    -20.526995     2A    -15.582797     3A    -11.288318  
	   4A    -11.288301     5A    -11.271677     6A    -11.252975  
	   7A    -11.252924     8A    -11.249295     9A     -1.329360  
	  10A     -1.271574    11A     -1.101678    12A     -1.046622  
	  13A     -0.901207    14A     -0.871354    15A     -0.869198  
	  16A     -0.735318    17A     -0.673596    18A     -0.668064  
	  19A     -0.664004    20A     -0.611000    21A     -0.596566  
	  22A     -0.589422    23A     -0.569478    24A     -0.554976  
	  25A     -0.532372    26A     -0.482059    27A     -0.434684  
	  28A     -0.422878    29A     -0.397239    30A     -0.359488  

	Virtual:                                                              

	  31A      0.022199    32A      0.030401    33A      0.035156  
	  34A      0.044893    35A      0.047696    36A      0.054201  
	  37A      0.059208    38A      0.066570    39A      0.077065  
	  40A      0.082718    41A      0.087099    42A      0.092623  
	  43A      0.095790    44A      0.104446    45A      0.110675  
	  46A      0.111447    47A      0.117546    48A      0.119455  
	  49A      0.121293    50A      0.131095    51A      0.132873  
	  52A      0.133242    53A      0.136384    54A      0.144967  
	  55A      0.147766    56A      0.149140    57A      0.159638  
	  58A      0.163972    59A      0.164404    60A      0.169871  
	  61A      0.187680    62A      0.213466    63A      0.220230  
	  64A      0.231430    65A      0.234336    66A      0.239491  
	  67A      0.239975    68A      0.243554    69A      0.249272  
	  70A      0.256904    71A      0.266421    72A      0.267939  
	  73A      0.280209    74A      0.283508    75A      0.287619  
	  76A      0.291878    77A      0.294460    78A      0.296063  
	  79A      0.300300    80A      0.305588    81A      0.314681  
	  82A      0.317718    83A      0.318934    84A      0.320735  
	  85A      0.327050    86A      0.337029    87A      0.343892  
	  88A      0.348063    89A      0.356517    90A      0.358705  
	  91A      0.361622    92A      0.373393    93A      0.376322  
	  94A      0.383116    95A      0.388289    96A      0.390751  
	  97A      0.396742    98A      0.413521    99A      0.413940  
	 100A      0.417780   101A      0.420353   102A      0.425167  
	 103A      0.442157   104A      0.446104   105A      0.446359  
	 106A      0.449520   107A      0.455203   108A      0.456429  
	 109A      0.458486   110A      0.469279   111A      0.470743  
	 112A      0.480036   113A      0.484989   114A      0.488235  
	 115A      0.492011   116A      0.493353   117A      0.495071  
	 118A      0.500819   119A      0.505686   120A      0.509250  
	 121A      0.520577   122A      0.524979   123A      0.528295  
	 124A      0.529626   125A      0.536158   126A      0.539232  
	 127A      0.545286   128A      0.564773   129A      0.566535  
	 130A      0.573876   131A      0.586966   132A      0.594415  
	 133A      0.599824   134A      0.615718   135A      0.626225  
	 136A      0.627294   137A      0.638410   138A      0.639732  
	 139A      0.643323   140A      0.669601   141A      0.673482  
	 142A      0.675521   143A      0.687420   144A      0.708491  
	 145A      0.712852   146A      0.719823   147A      0.727030  
	 148A      0.733591   149A      0.741288   150A      0.759814  
	 151A      0.761807   152A      0.765889   153A      0.784217  
	 154A      0.789513   155A      0.802170   156A      0.802245  
	 157A      0.811588   158A      0.813236   159A      0.817385  
	 160A      0.824219   161A      0.830877   162A      0.834644  
	 163A      0.839436   164A      0.854104   165A      0.859444  
	 166A      0.871654   167A      0.872020   168A      0.885637  
	 169A      0.899269   170A      0.900423   171A      0.901083  
	 172A      0.907680   173A      0.916343   174A      0.922453  
	 175A      0.930652   176A      0.935302   177A      0.940613  
	 178A      0.952564   179A      0.957324   180A      0.957508  
	 181A      0.971333   182A      0.974424   183A      0.981338  
	 184A      0.984287   185A      0.989739   186A      0.996567  
	 187A      1.000912   188A      1.005301   189A      1.008929  
	 190A      1.010043   191A      1.026950   192A      1.031301  
	 193A      1.036962   194A      1.044949   195A      1.048998  
	 196A      1.059216   197A      1.073204   198A      1.073903  
	 199A      1.076936   200A      1.081095   201A      1.084891  
	 202A      1.086198   203A      1.096577   204A      1.101198  
	 205A      1.116984   206A      1.122190   207A      1.130238  
	 208A      1.138443   209A      1.138911   210A      1.142540  
	 211A      1.162126   212A      1.166845   213A      1.177511  
	 214A      1.177846   215A      1.179530   216A      1.185194  
	 217A      1.187205   218A      1.195832   219A      1.199718  
	 220A      1.209530   221A      1.214695   222A      1.216166  
	 223A      1.219509   224A      1.225607   225A      1.235032  
	 226A      1.246657   227A      1.254645   228A      1.257472  
	 229A      1.279794   230A      1.281688   231A      1.286825  
	 232A      1.299774   233A      1.318379   234A      1.330831  
	 235A      1.334387   236A      1.340586   237A      1.340953  
	 238A      1.369104   239A      1.372163   240A      1.384465  
	 241A      1.388825   242A      1.401369   243A      1.406950  
	 244A      1.427930   245A      1.432068   246A      1.433533  
	 247A      1.443979   248A      1.477131   249A      1.478628  
	 250A      1.494282   251A      1.494572   252A      1.508060  
	 253A      1.512878   254A      1.521172   255A      1.525565  
	 256A      1.561413   257A      1.564096   258A      1.566388  
	 259A      1.590932   260A      1.594879   261A      1.619464  
	 262A      1.619875   263A      1.638723   264A      1.647298  
	 265A      1.659967   266A      1.676366   267A      1.679555  
	 268A      1.692770   269A      1.696221   270A      1.704652  
	 271A      1.705518   272A      1.712834   273A      1.718754  
	 274A      1.724094   275A      1.724736   276A      1.755459  
	 277A      1.772715   278A      1.776183   279A      1.783107  
	 280A      1.788236   281A      1.795390   282A      1.809451  
	 283A      1.819105   284A      1.826841   285A      1.848719  
	 286A      1.864336   287A      1.873450   288A      1.875746  
	 289A      1.881854   290A      1.889468   291A      1.910001  
	 292A      1.929068   293A      1.944208   294A      1.956431  
	 295A      1.974070   296A      1.978358   297A      1.987169  
	 298A      2.003479   299A      2.010064   300A      2.016093  
	 301A      2.029110   302A      2.031931   303A      2.036375  
	 304A      2.039624   305A      2.058550   306A      2.059171  
	 307A      2.064739   308A      2.092269   309A      2.101006  
	 310A      2.113980   311A      2.120590   312A      2.138324  
	 313A      2.150837   314A      2.153806   315A      2.163187  
	 316A      2.177188   317A      2.209305   318A      2.227414  
	 319A      2.232347   320A      2.234112   321A      2.251406  
	 322A      2.257343   323A      2.260214   324A      2.273468  
	 325A      2.314891   326A      2.357690   327A      2.369189  
	 328A      2.373428   329A      2.389406   330A      2.416772  
	 331A      2.437220   332A      2.437266   333A      2.445658  
	 334A      2.464363   335A      2.492596   336A      2.498016  
	 337A      2.551269   338A      2.578648   339A      2.586152  
	 340A      2.615458   341A      2.617354   342A      2.659221  
	 343A      2.663966   344A      2.677357   345A      2.707908  
	 346A      2.722910   347A      2.723543   348A      2.755403  
	 349A      2.806406   350A      2.831857   351A      2.839069  
	 352A      2.846768   353A      2.847188   354A      2.911045  
	 355A      2.919919   356A      2.938377   357A      2.961868  
	 358A      2.976004   359A      2.987984   360A      2.988436  
	 361A      3.028857   362A      3.099703   363A      3.101410  
	 364A      3.134293   365A      3.135609   366A      3.140642  
	 367A      3.158745   368A      3.204109   369A      3.210709  
	 370A      3.248670   371A      3.288250   372A      3.311404  
	 373A      3.316228   374A      3.317150   375A      3.326991  
	 376A      3.353708   377A      3.384076   378A      3.401297  
	 379A      3.414039   380A      3.416766   381A      3.425303  
	 382A      3.430517   383A      3.435559   384A      3.470618  
	 385A      3.486498   386A      3.490258   387A      3.498903  
	 388A      3.524328   389A      3.548260   390A      3.553353  
	 391A      3.563732   392A      3.579465   393A      3.586634  
	 394A      3.603602   395A      3.608112   396A      3.635948  
	 397A      3.641990   398A      3.680998   399A      3.686734  
	 400A      3.690265   401A      3.726406   402A      3.737185  
	 403A      3.753477   404A      3.756948   405A      3.773128  
	 406A      3.793031   407A      3.812802   408A      3.834573  
	 409A      3.836812   410A      3.841885   411A      3.870739  
	 412A      3.887420   413A      3.887506   414A      3.896916  
	 415A      3.902252   416A      3.916731   417A      3.923889  
	 418A      3.931346   419A      3.959015   420A      3.961485  
	 421A      3.983787   422A      3.994505   423A      4.005608  
	 424A      4.022574   425A      4.038925   426A      4.057747  
	 427A      4.084742   428A      4.093911   429A      4.100549  
	 430A      4.115341   431A      4.132567   432A      4.138061  
	 433A      4.140758   434A      4.145522   435A      4.154954  
	 436A      4.164171   437A      4.182406   438A      4.194848  
	 439A      4.203169   440A      4.217498   441A      4.226626  
	 442A      4.228839   443A      4.245125   444A      4.280684  
	 445A      4.290868   446A      4.293091   447A      4.301211  
	 448A      4.310316   449A      4.324800   450A      4.336563  
	 451A      4.370979   452A      4.371223   453A      4.400144  
	 454A      4.416573   455A      4.436068   456A      4.451814  
	 457A      4.474341   458A      4.502700   459A      4.513535  
	 460A      4.523341   461A      4.524478   462A      4.569865  
	 463A      4.573657   464A      4.574885   465A      4.625310  
	 466A      4.649674   467A      4.685197   468A      4.695656  
	 469A      4.701623   470A      4.733818   471A      4.735810  
	 472A      4.754735   473A      4.758203   474A      4.810810  
	 475A      4.819851   476A      4.835903   477A      4.839889  
	 478A      4.843877   479A      4.877527   480A      4.903489  
	 481A      4.905802   482A      4.931798   483A      4.967450  
	 484A      4.987901   485A      4.992650   486A      5.017342  
	 487A      5.027225   488A      5.043079   489A      5.049140  
	 490A      5.056948   491A      5.059750   492A      5.089655  
	 493A      5.097114   494A      5.107915   495A      5.140102  
	 496A      5.147327   497A      5.149811   498A      5.194069  
	 499A      5.208761   500A      5.213474   501A      5.236418  
	 502A      5.236874   503A      5.278394   504A      5.299233  
	 505A      5.304869   506A      5.395965   507A      5.426913  
	 508A      5.437553   509A      5.439384   510A      5.464154  
	 511A      5.472553   512A      5.506714   513A      5.519923  
	 514A      5.539917   515A      5.560766   516A      5.588224  
	 517A      5.618418   518A      5.634263   519A      5.640272  
	 520A      5.642336   521A      5.664113   522A      5.679743  
	 523A      5.733202   524A      5.784144   525A      5.793598  
	 526A      5.804005   527A      5.852856   528A      5.877343  
	 529A      5.906016   530A      5.935925   531A      5.989461  
	 532A      6.009144   533A      6.068737   534A      6.138754  
	 535A      6.144532   536A      6.189829   537A      6.197633  
	 538A      6.229545   539A      6.241422   540A      6.262931  
	 541A      6.319252   542A      6.437971   543A      6.504562  
	 544A      6.666326   545A      6.671339   546A      6.682556  
	 547A      6.699116   548A      6.703822   549A      6.717249  
	 550A      6.735154   551A      6.872062   552A      6.891132  
	 553A      6.971461   554A      6.998991   555A      7.104865  
	 556A      7.121756   557A      7.146684   558A      7.410504  
	 559A      7.419776   560A      7.492948   561A      7.542245  
	 562A      7.582933   563A      7.629929   564A      7.871803  
	 565A      8.029032   566A      8.237317   567A      8.613937  
	 568A     15.670503   569A     16.341032   570A     16.423935  
	 571A     17.978170   572A     18.675395   573A     18.987681  
	 574A     19.391768   575A     19.482446  

	Final Occupation by Irrep:
	          A 
	DOCC [    30 ]

  Energy converged.

  @RHF Final Energy:  -361.87759174911150

   => Energetics <=

    Nuclear Repulsion Energy =            333.2153872883731083
    One-Electron Energy =               -1151.3951126733934416
    Two-Electron Energy =                 456.3021336359093993
    DFT Exchange-Correlation Energy =       0.0000000000000000
    Empirical Dispersion Energy =           0.0000000000000000
    Total Energy =                       -361.8775917491109340



Properties will be evaluated at   0.000000,   0.000000,   0.000000 Bohr
  ==> Properties <==


Properties computed using the SCF density density matrix
  Nuclear Dipole Moment: (a.u.)
     X:    -3.8012      Y:    -3.1161      Z:     0.0024

  Electronic Dipole Moment: (a.u.)
     X:     5.5441      Y:     2.6076      Z:    -0.0032

  Dipole Moment: (a.u.)
     X:     1.7429      Y:    -0.5085      Z:    -0.0008     Total:     1.8156

  Dipole Moment: (Debye)
     X:     4.4300      Y:    -1.2925      Z:    -0.0019     Total:     4.6147


  Saving occupied orbitals to File 180.

  Saving SAPT 2-DIMER file.

*** tstop() called on genome.bme.utexas.edu at Mon Nov 25 10:40:18 2013
Module time:
	user time   =     487.10 seconds =       8.12 minutes
	system time =       7.00 seconds =       0.12 minutes
	total time  =        137 seconds =       2.28 minutes
Total time:
	user time   =     487.10 seconds =       8.12 minutes
	system time =       7.00 seconds =       0.12 minutes
	total time  =        137 seconds =       2.28 minutes

  //>>>>>>>>>>>>>>>>>>>>>>>>>>>>>>>>>>>//
  //            Monomer A HF           //
  //<<<<<<<<<<<<<<<<<<<<<<<<<<<<<<<<<<<//


  No DF_BASIS_SCF auxiliary basis selected, defaulting to aug-cc-pvtz-jkfit


*** tstart() called on genome.bme.utexas.edu
*** at Mon Nov 25 10:40:18 2013


         ---------------------------------------------------------
                                   SCF
            by Justin Turney, Rob Parrish, and Andy Simmonett
                              RHF Reference
                        4 Threads,  30000 MiB Core
         ---------------------------------------------------------

  ==> Geometry <==

    Molecular point group: c1
    Full point group: C1

    Geometry (in Angstrom), charge = 0, multiplicity = 1:

       Center              X                  Y                   Z       
    ------------   -----------------  -----------------  -----------------
           O         -3.163041626136     0.288829562162     0.001553938317
           H         -2.191787818136     0.323665622162    -0.000517791683
           C         -3.513321083136    -1.077193712838     0.001321060317
           H         -4.598781946136    -1.140681030838     0.005091633317
           H         -3.150273538136    -1.605013543838    -0.885301300683
           H         -3.144030178136    -1.606874530838     0.884255385317
           N(Gh)     -0.046847421136     0.205926747162    -0.001659240683
           C(Gh)      0.649520967864     0.181491416162    -1.146378844683
           H(Gh)      0.065042370864     0.204714951162    -2.057354282683
           C(Gh)      2.039158030864     0.131748552162    -1.195064094683
           H(Gh)      2.546510378864     0.114456520162    -2.148846818683
           C(Gh)      2.749531258864     0.106035935162     0.000548932317
           H(Gh)      3.829867261864     0.068271182162     0.001398227317
           C(Gh)      2.037283806864     0.131057042162     1.195088785317
           H(Gh)      2.543082540864     0.113232715162     2.149574477317
           C(Gh)      0.647730163864     0.180806729162     1.144134700317
           H(Gh)      0.061724377864     0.203481156162     2.054253386317

  Running in c1 symmetry.

  Nuclear repulsion =   40.421907994388285

  Charge       = 0
  Multiplicity = 1
  Electrons    = 18
  Nalpha       = 9
  Nbeta        = 9

  ==> Algorithm <==

  SCF Algorithm Type is DF.
  DIIS enabled.
  MOM disabled.
  Fractional occupation disabled.
  Guess Type is GWH.
  Energy threshold   = 1.00e-08
  Density threshold  = 1.00e-08
  Integral threshold = 0.00e+00

  ==> Primary Basis <==

  Basis Set: AUG-CC-PVTZ
    Number of shells: 193
    Number of basis function: 575
    Number of Cartesian functions: 665
    Spherical Harmonics?: true
    Max angular momentum: 3

  ==> Pre-Iterations <==

   -------------------------------------------------------
    Irrep   Nso     Nmo     Nalpha   Nbeta   Ndocc  Nsocc
   -------------------------------------------------------
     A        575     575       0       0       0       0
   -------------------------------------------------------
    Total     575     575       9       9       9       0
   -------------------------------------------------------

 OEINTS: Wrapper to libmints.
   by Justin Turney

   Calculation information:
      Number of atoms:                  17
      Number of AO shells:             193
      Number of SO shells:             193
      Number of primitives:            339
      Number of atomic orbitals:       665
      Number of basis functions:       575

      Number of irreps:                  1
      Number of functions per irrep: [ 575 ]

      Overlap, kinetic, potential, dipole, and quadrupole integrals
        stored in file 35.

  ==> Integral Setup <==

  ==> DFJK: Density-Fitted J/K Matrices <==

    J tasked:                  Yes
    K tasked:                  Yes
    wK tasked:                  No
    OpenMP threads:              4
    Integrals threads:           4
    Memory (MB):             21457
    Algorithm:                Core
    Integral Cache:           LOAD
    Schwarz Cutoff:          0E+00
    Fitting Condition:       1E-12

   => Auxiliary Basis Set <=

  Basis Set: aug-cc-pvtz-jkfit
    Number of shells: 366
    Number of basis function: 1246
    Number of Cartesian functions: 1543
    Spherical Harmonics?: true
    Max angular momentum: 4

  Minimum eigenvalue in the overlap matrix is 1.9630486229E-06.
  Using Symmetric Orthogonalization.
  SCF Guess: Generalized Wolfsberg-Helmholtz.

  Guess energy:   187.78705887351410

  ==> Iterations <==

                        Total Energy        Delta E     RMS |[F,P]|

   @RHF iter   1:   384.05283820959090    3.84053e+02   1.37711e-01 
   @RHF iter   2:  -108.26645781444250   -4.92319e+02   7.24920e-03 DIIS
   @RHF iter   3:   -99.39491703596417    8.87154e+00   5.45009e-03 DIIS
   @RHF iter   4:  -113.16441966059821   -1.37695e+01   3.89325e-03 DIIS
   @RHF iter   5:  -114.61824616501568   -1.45383e+00   1.70260e-03 DIIS
   @RHF iter   6:  -115.04057159549606   -4.22325e-01   5.61703e-04 DIIS
   @RHF iter   7:  -115.09091164188638   -5.03400e-02   5.43265e-05 DIIS
   @RHF iter   8:  -115.09137987395101   -4.68232e-04   1.52561e-05 DIIS
   @RHF iter   9:  -115.09142320680436   -4.33329e-05   3.35238e-06 DIIS
   @RHF iter  10:  -115.09142769540043   -4.48860e-06   7.58502e-07 DIIS
   @RHF iter  11:  -115.09142796519311   -2.69793e-07   1.76293e-07 DIIS
   @RHF iter  12:  -115.09142797438329   -9.19019e-09   3.32235e-08 DIIS
   @RHF iter  13:  -115.09142797477486   -3.91566e-10   4.92672e-09 DIIS

  ==> Post-Iterations <==

	Orbital Energies (a.u.)
	-----------------------

	Doubly Occupied:                                                      

	   1A    -20.562118     2A    -11.270290     3A     -1.360506  
	   4A     -0.924086     5A     -0.691938     6A     -0.620845  
	   7A     -0.595983     8A     -0.504173     9A     -0.450836  

	Virtual:                                                              

	  10A      0.015587    11A      0.030137    12A      0.031664  
	  13A      0.040912    14A      0.047290    15A      0.047344  
	  16A      0.055815    17A      0.063697    18A      0.067884  
	  19A      0.075198    20A      0.083327    21A      0.091498  
	  22A      0.092929    23A      0.100584    24A      0.101492  
	  25A      0.107366    26A      0.116765    27A      0.120098  
	  28A      0.123216    29A      0.130255    30A      0.131562  
	  31A      0.138032    32A      0.138117    33A      0.145122  
	  34A      0.152416    35A      0.154498    36A      0.162726  
	  37A      0.170219    38A      0.176974    39A      0.182106  
	  40A      0.187141    41A      0.196585    42A      0.197604  
	  43A      0.206899    44A      0.212922    45A      0.223617  
	  46A      0.236076    47A      0.243348    48A      0.246243  
	  49A      0.256041    50A      0.267036    51A      0.278004  
	  52A      0.283357    53A      0.285657    54A      0.293093  
	  55A      0.295177    56A      0.295226    57A      0.298932  
	  58A      0.305830    59A      0.311861    60A      0.314151  
	  61A      0.320415    62A      0.325642    63A      0.332662  
	  64A      0.341236    65A      0.344968    66A      0.350485  
	  67A      0.358237    68A      0.361784    69A      0.364622  
	  70A      0.368960    71A      0.372122    72A      0.374572  
	  73A      0.379119    74A      0.381891    75A      0.383458  
	  76A      0.383604    77A      0.388828    78A      0.401065  
	  79A      0.409617    80A      0.413391    81A      0.416572  
	  82A      0.423015    83A      0.424309    84A      0.432898  
	  85A      0.436342    86A      0.443496    87A      0.449791  
	  88A      0.456665    89A      0.460529    90A      0.469379  
	  91A      0.470650    92A      0.484490    93A      0.485335  
	  94A      0.491570    95A      0.494344    96A      0.499101  
	  97A      0.510359    98A      0.515021    99A      0.522946  
	 100A      0.544041   101A      0.548907   102A      0.558628  
	 103A      0.568093   104A      0.569514   105A      0.576340  
	 106A      0.578281   107A      0.593048   108A      0.594689  
	 109A      0.600616   110A      0.619148   111A      0.622045  
	 112A      0.623148   113A      0.637602   114A      0.647458  
	 115A      0.649044   116A      0.667656   117A      0.672901  
	 118A      0.672950   119A      0.684314   120A      0.689073  
	 121A      0.701772   122A      0.708725   123A      0.719730  
	 124A      0.732890   125A      0.736682   126A      0.743350  
	 127A      0.743813   128A      0.748626   129A      0.758970  
	 130A      0.765196   131A      0.769888   132A      0.771185  
	 133A      0.777739   134A      0.789906   135A      0.792579  
	 136A      0.798027   137A      0.819515   138A      0.823883  
	 139A      0.836494   140A      0.836576   141A      0.849183  
	 142A      0.855163   143A      0.866501   144A      0.879504  
	 145A      0.881758   146A      0.889984   147A      0.893861  
	 148A      0.911507   149A      0.912432   150A      0.916988  
	 151A      0.929424   152A      0.934291   153A      0.957114  
	 154A      0.957733   155A      0.959889   156A      0.961566  
	 157A      0.989254   158A      0.992107   159A      1.002373  
	 160A      1.008450   161A      1.009701   162A      1.026361  
	 163A      1.032916   164A      1.039527   165A      1.050022  
	 166A      1.054897   167A      1.058593   168A      1.065907  
	 169A      1.072113   170A      1.076089   171A      1.082502  
	 172A      1.084610   173A      1.087302   174A      1.092693  
	 175A      1.094995   176A      1.101046   177A      1.108592  
	 178A      1.121899   179A      1.132537   180A      1.138626  
	 181A      1.143781   182A      1.147112   183A      1.148756  
	 184A      1.160190   185A      1.172481   186A      1.176231  
	 187A      1.177350   188A      1.186146   189A      1.192358  
	 190A      1.202015   191A      1.209304   192A      1.219706  
	 193A      1.232199   194A      1.242518   195A      1.244424  
	 196A      1.256356   197A      1.263475   198A      1.269286  
	 199A      1.280692   200A      1.280941   201A      1.290021  
	 202A      1.290575   203A      1.308920   204A      1.312999  
	 205A      1.322305   206A      1.326347   207A      1.327214  
	 208A      1.341380   209A      1.348522   210A      1.350740  
	 211A      1.365144   212A      1.378889   213A      1.381450  
	 214A      1.391158   215A      1.392844   216A      1.415143  
	 217A      1.418965   218A      1.422036   219A      1.436105  
	 220A      1.441912   221A      1.469050   222A      1.472358  
	 223A      1.481723   224A      1.490839   225A      1.497929  
	 226A      1.505627   227A      1.507181   228A      1.533252  
	 229A      1.542136   230A      1.544830   231A      1.551889  
	 232A      1.574781   233A      1.582919   234A      1.595061  
	 235A      1.595354   236A      1.598190   237A      1.610622  
	 238A      1.617463   239A      1.640647   240A      1.641338  
	 241A      1.649380   242A      1.658004   243A      1.666475  
	 244A      1.677343   245A      1.681283   246A      1.697224  
	 247A      1.699049   248A      1.714655   249A      1.717169  
	 250A      1.734630   251A      1.736221   252A      1.741931  
	 253A      1.764472   254A      1.767584   255A      1.792860  
	 256A      1.795481   257A      1.798612   258A      1.817623  
	 259A      1.825863   260A      1.835395   261A      1.874628  
	 262A      1.895897   263A      1.896583   264A      1.906209  
	 265A      1.906494   266A      1.926560   267A      1.931567  
	 268A      1.952022   269A      1.969690   270A      1.972371  
	 271A      2.003096   272A      2.020418   273A      2.024582  
	 274A      2.029685   275A      2.039278   276A      2.049373  
	 277A      2.068198   278A      2.087247   279A      2.095529  
	 280A      2.102711   281A      2.123572   282A      2.146420  
	 283A      2.147852   284A      2.177876   285A      2.190627  
	 286A      2.196690   287A      2.198747   288A      2.201541  
	 289A      2.206855   290A      2.210468   291A      2.223820  
	 292A      2.228380   293A      2.247104   294A      2.273454  
	 295A      2.281328   296A      2.292217   297A      2.309843  
	 298A      2.327621   299A      2.331379   300A      2.345631  
	 301A      2.346198   302A      2.352515   303A      2.366782  
	 304A      2.373241   305A      2.417094   306A      2.431467  
	 307A      2.432830   308A      2.449387   309A      2.460530  
	 310A      2.500412   311A      2.502317   312A      2.503584  
	 313A      2.528576   314A      2.555960   315A      2.556699  
	 316A      2.564193   317A      2.573623   318A      2.591892  
	 319A      2.608517   320A      2.618769   321A      2.623035  
	 322A      2.646001   323A      2.649112   324A      2.708267  
	 325A      2.724534   326A      2.743777   327A      2.772957  
	 328A      2.779250   329A      2.794013   330A      2.808657  
	 331A      2.837342   332A      2.850154   333A      2.861593  
	 334A      2.863626   335A      2.910268   336A      2.923058  
	 337A      2.924126   338A      2.944171   339A      2.945092  
	 340A      2.976653   341A      3.012626   342A      3.016339  
	 343A      3.070217   344A      3.103321   345A      3.123453  
	 346A      3.153441   347A      3.184475   348A      3.196999  
	 349A      3.268375   350A      3.278348   351A      3.294410  
	 352A      3.300595   353A      3.372601   354A      3.399090  
	 355A      3.405170   356A      3.482204   357A      3.545019  
	 358A      3.552758   359A      3.588796   360A      3.590452  
	 361A      3.613079   362A      3.627625   363A      3.661504  
	 364A      3.706306   365A      3.764562   366A      3.790577  
	 367A      3.803908   368A      3.870737   369A      3.879872  
	 370A      3.937747   371A      3.942146   372A      3.952619  
	 373A      3.954777   374A      3.965428   375A      3.994030  
	 376A      4.001013   377A      4.009208   378A      4.023609  
	 379A      4.031933   380A      4.053493   381A      4.057951  
	 382A      4.075053   383A      4.087208   384A      4.088087  
	 385A      4.112983   386A      4.126220   387A      4.131416  
	 388A      4.135194   389A      4.137028   390A      4.165604  
	 391A      4.169864   392A      4.208687   393A      4.219695  
	 394A      4.232247   395A      4.249424   396A      4.252972  
	 397A      4.256305   398A      4.268863   399A      4.278203  
	 400A      4.305244   401A      4.336122   402A      4.339273  
	 403A      4.350443   404A      4.372385   405A      4.373158  
	 406A      4.380289   407A      4.404471   408A      4.442310  
	 409A      4.442898   410A      4.488907   411A      4.499709  
	 412A      4.502057   413A      4.531873   414A      4.541371  
	 415A      4.558943   416A      4.574690   417A      4.579990  
	 418A      4.605665   419A      4.624621   420A      4.626563  
	 421A      4.633321   422A      4.638562   423A      4.664407  
	 424A      4.700418   425A      4.717673   426A      4.746020  
	 427A      4.784912   428A      4.794454   429A      4.794705  
	 430A      4.802315   431A      4.817028   432A      4.844161  
	 433A      4.863688   434A      4.886199   435A      4.904705  
	 436A      4.963941   437A      4.965302   438A      4.967223  
	 439A      4.995379   440A      4.999954   441A      5.004963  
	 442A      5.022064   443A      5.032531   444A      5.048811  
	 445A      5.049729   446A      5.052060   447A      5.057064  
	 448A      5.066523   449A      5.118005   450A      5.121165  
	 451A      5.160759   452A      5.161875   453A      5.163616  
	 454A      5.177580   455A      5.217595   456A      5.226262  
	 457A      5.230451   458A      5.250199   459A      5.258099  
	 460A      5.265459   461A      5.305175   462A      5.334837  
	 463A      5.338242   464A      5.412052   465A      5.442866  
	 466A      5.455938   467A      5.462044   468A      5.484111  
	 469A      5.493100   470A      5.501822   471A      5.508922  
	 472A      5.511844   473A      5.571459   474A      5.598940  
	 475A      5.604734   476A      5.619141   477A      5.628134  
	 478A      5.658106   479A      5.687257   480A      5.695843  
	 481A      5.703379   482A      5.734233   483A      5.751570  
	 484A      5.779594   485A      5.781599   486A      5.794443  
	 487A      5.820992   488A      5.868946   489A      6.012159  
	 490A      6.020588   491A      6.027946   492A      6.046504  
	 493A      6.057810   494A      6.072765   495A      6.124248  
	 496A      6.132634   497A      6.147448   498A      6.153829  
	 499A      6.193704   500A      6.215201   501A      6.239680  
	 502A      6.248441   503A      6.327098   504A      6.345305  
	 505A      6.397990   506A      6.416622   507A      6.424536  
	 508A      6.531742   509A      6.648474   510A      6.662461  
	 511A      6.673019   512A      6.682382   513A      6.734162  
	 514A      6.743782   515A      6.766043   516A      6.857452  
	 517A      6.926485   518A      6.933241   519A      6.949901  
	 520A      6.963515   521A      6.993174   522A      7.009996  
	 523A      7.071422   524A      7.081322   525A      7.090781  
	 526A      7.105478   527A      7.171493   528A      7.351923  
	 529A      7.359182   530A      7.369672   531A      7.419693  
	 532A      7.496655   533A      7.505426   534A      7.538153  
	 535A      7.542588   536A      7.549406   537A      7.558850  
	 538A      7.607617   539A      7.700548   540A      7.735246  
	 541A      7.829869   542A      7.839035   543A      7.872080  
	 544A      7.996671   545A      8.098840   546A      8.122421  
	 547A      8.138373   548A      8.213359   549A      8.258723  
	 550A      8.282708   551A      8.374562   552A      8.562583  
	 553A      8.750037   554A      8.752478   555A      9.083265  
	 556A      9.184295   557A      9.344560   558A      9.542994  
	 559A      9.899149   560A     10.034572   561A     10.207808  
	 562A     10.743266   563A     11.167755   564A     11.356442  
	 565A     11.472726   566A     12.072939   567A     12.320273  
	 568A     16.415363   569A     17.974883   570A     50.243661  
	 571A     50.612900   572A     54.337224   573A     55.153893  
	 574A     55.593685   575A     61.449277  

	Final Occupation by Irrep:
	          A 
	DOCC [     9 ]

  Energy converged.

  @RHF Final Energy:  -115.09142797477486

   => Energetics <=

    Nuclear Repulsion Energy =             40.4219079943882846
    One-Electron Energy =                -237.0651244198152483
    Two-Electron Energy =                  81.5517884506528645
    DFT Exchange-Correlation Energy =       0.0000000000000000
    Empirical Dispersion Energy =           0.0000000000000000
    Total Energy =                       -115.0914279747741062



Properties will be evaluated at   0.000000,   0.000000,   0.000000 Bohr
  ==> Properties <==


Properties computed using the SCF density density matrix
  Nuclear Dipole Moment: (a.u.)
     X:  -112.3804      Y:   -15.4607      Z:     0.0451

  Electronic Dipole Moment: (a.u.)
     X:   112.8325      Y:    14.9100      Z:    -0.0465

  Dipole Moment: (a.u.)
     X:     0.4521      Y:    -0.5507      Z:    -0.0013     Total:     0.7125

  Dipole Moment: (Debye)
     X:     1.1491      Y:    -1.3998      Z:    -0.0034     Total:     1.8110


  Saving occupied orbitals to File 180.

  Saving SAPT 2-MONOMER_A file.

*** tstop() called on genome.bme.utexas.edu at Mon Nov 25 10:41:32 2013
Module time:
	user time   =     267.63 seconds =       4.46 minutes
	system time =       4.20 seconds =       0.07 minutes
	total time  =         74 seconds =       1.23 minutes
Total time:
	user time   =     754.75 seconds =      12.58 minutes
	system time =      11.20 seconds =       0.19 minutes
	total time  =        211 seconds =       3.52 minutes

  //>>>>>>>>>>>>>>>>>>>>>>>>>>>>>>>>>>>//
  //            Monomer B HF           //
  //<<<<<<<<<<<<<<<<<<<<<<<<<<<<<<<<<<<//


  No DF_BASIS_SCF auxiliary basis selected, defaulting to aug-cc-pvtz-jkfit


*** tstart() called on genome.bme.utexas.edu
*** at Mon Nov 25 10:41:32 2013


         ---------------------------------------------------------
                                   SCF
            by Justin Turney, Rob Parrish, and Andy Simmonett
                              RHF Reference
                        4 Threads,  30000 MiB Core
         ---------------------------------------------------------

  ==> Geometry <==

    Molecular point group: c1
    Full point group: C1

    Geometry (in Angstrom), charge = 0, multiplicity = 1:

       Center              X                  Y                   Z       
    ------------   -----------------  -----------------  -----------------
           O(Gh)     -3.163041626136     0.288829562162     0.001553938317
           H(Gh)     -2.191787818136     0.323665622162    -0.000517791683
           C(Gh)     -3.513321083136    -1.077193712838     0.001321060317
           H(Gh)     -4.598781946136    -1.140681030838     0.005091633317
           H(Gh)     -3.150273538136    -1.605013543838    -0.885301300683
           H(Gh)     -3.144030178136    -1.606874530838     0.884255385317
           N         -0.046847421136     0.205926747162    -0.001659240683
           C          0.649520967864     0.181491416162    -1.146378844683
           H          0.065042370864     0.204714951162    -2.057354282683
           C          2.039158030864     0.131748552162    -1.195064094683
           H          2.546510378864     0.114456520162    -2.148846818683
           C          2.749531258864     0.106035935162     0.000548932317
           H          3.829867261864     0.068271182162     0.001398227317
           C          2.037283806864     0.131057042162     1.195088785317
           H          2.543082540864     0.113232715162     2.149574477317
           C          0.647730163864     0.180806729162     1.144134700317
           H          0.061724377864     0.203481156162     2.054253386317

  Running in c1 symmetry.

  Nuclear repulsion =  206.284267381200294

  Charge       = 0
  Multiplicity = 1
  Electrons    = 42
  Nalpha       = 21
  Nbeta        = 21

  ==> Algorithm <==

  SCF Algorithm Type is DF.
  DIIS enabled.
  MOM disabled.
  Fractional occupation disabled.
  Guess Type is GWH.
  Energy threshold   = 1.00e-08
  Density threshold  = 1.00e-08
  Integral threshold = 0.00e+00

  ==> Primary Basis <==

  Basis Set: AUG-CC-PVTZ
    Number of shells: 193
    Number of basis function: 575
    Number of Cartesian functions: 665
    Spherical Harmonics?: true
    Max angular momentum: 3

  ==> Pre-Iterations <==

   -------------------------------------------------------
    Irrep   Nso     Nmo     Nalpha   Nbeta   Ndocc  Nsocc
   -------------------------------------------------------
     A        575     575       0       0       0       0
   -------------------------------------------------------
    Total     575     575      21      21      21       0
   -------------------------------------------------------

 OEINTS: Wrapper to libmints.
   by Justin Turney

   Calculation information:
      Number of atoms:                  17
      Number of AO shells:             193
      Number of SO shells:             193
      Number of primitives:            339
      Number of atomic orbitals:       665
      Number of basis functions:       575

      Number of irreps:                  1
      Number of functions per irrep: [ 575 ]

      Overlap, kinetic, potential, dipole, and quadrupole integrals
        stored in file 35.

  ==> Integral Setup <==

  ==> DFJK: Density-Fitted J/K Matrices <==

    J tasked:                  Yes
    K tasked:                  Yes
    wK tasked:                  No
    OpenMP threads:              4
    Integrals threads:           4
    Memory (MB):             21457
    Algorithm:                Core
    Integral Cache:           LOAD
    Schwarz Cutoff:          0E+00
    Fitting Condition:       1E-12

   => Auxiliary Basis Set <=

  Basis Set: aug-cc-pvtz-jkfit
    Number of shells: 366
    Number of basis function: 1246
    Number of Cartesian functions: 1543
    Spherical Harmonics?: true
    Max angular momentum: 4

  Minimum eigenvalue in the overlap matrix is 1.9630486229E-06.
  Using Symmetric Orthogonalization.
  SCF Guess: Generalized Wolfsberg-Helmholtz.

  Guess energy:   -80.08392225673342

  ==> Iterations <==

                        Total Energy        Delta E     RMS |[F,P]|

   @RHF iter   1:   -84.74822127168531   -8.47482e+01   8.93327e-02 
   @RHF iter   2:  -237.77412612650900   -1.53026e+02   5.83988e-03 DIIS
   @RHF iter   3:  -192.55008093350338    4.52240e+01   1.48093e-02 DIIS
   @RHF iter   4:  -243.43330904471949   -5.08832e+01   4.55478e-03 DIIS
   @RHF iter   5:  -246.36196978413389   -2.92866e+00   1.39545e-03 DIIS
   @RHF iter   6:  -246.75583834955987   -3.93869e-01   2.30132e-04 DIIS
   @RHF iter   7:  -246.77341956274276   -1.75812e-02   1.35166e-04 DIIS
   @RHF iter   8:  -246.77707392783267   -3.65437e-03   6.45072e-05 DIIS
   @RHF iter   9:  -246.77852222944696   -1.44830e-03   1.89402e-05 DIIS
   @RHF iter  10:  -246.77876971562281   -2.47486e-04   9.72357e-06 DIIS
   @RHF iter  11:  -246.77882431327973   -5.45977e-05   3.56847e-06 DIIS
   @RHF iter  12:  -246.77883854978572   -1.42365e-05   1.13488e-06 DIIS
   @RHF iter  13:  -246.77883937914666   -8.29361e-07   3.34648e-07 DIIS
   @RHF iter  14:  -246.77883942045978   -4.13131e-08   9.36997e-08 DIIS
   @RHF iter  15:  -246.77883942242019   -1.96042e-09   1.45533e-08 DIIS
   @RHF iter  16:  -246.77883942252080   -1.00613e-10   3.82553e-09 DIIS

  ==> Post-Iterations <==

	Orbital Energies (a.u.)
	-----------------------

	Doubly Occupied:                                                      

	   1A    -15.566657     2A    -11.275256     3A    -11.275239  
	   4A    -11.260445     5A    -11.242466     6A    -11.242414  
	   7A     -1.256602     8A     -1.089682     9A     -1.034759  
	  10A     -0.859648    11A     -0.856468    12A     -0.722521  
	  13A     -0.660912    14A     -0.654823    15A     -0.599765  
	  16A     -0.577237    17A     -0.541423    18A     -0.521080  
	  19A     -0.418480    20A     -0.383785    21A     -0.348573  

	Virtual:                                                              

	  22A      0.025290    23A      0.030790    24A      0.032860  
	  25A      0.043576    26A      0.047374    27A      0.050460  
	  28A      0.058333    29A      0.066662    30A      0.080370  
	  31A      0.082861    32A      0.090338    33A      0.095211  
	  34A      0.100293    35A      0.103779    36A      0.110258  
	  37A      0.113159    38A      0.114809    39A      0.120550  
	  40A      0.122816    41A      0.124965    42A      0.127181  
	  43A      0.135344    44A      0.135563    45A      0.140259  
	  46A      0.150071    47A      0.150645    48A      0.152727  
	  49A      0.163598    50A      0.165328    51A      0.172587  
	  52A      0.179137    53A      0.187672    54A      0.215033  
	  55A      0.217941    56A      0.237415    57A      0.240585  
	  58A      0.245024    59A      0.245211    60A      0.256080  
	  61A      0.256774    62A      0.265216    63A      0.266939  
	  64A      0.268557    65A      0.290754    66A      0.291583  
	  67A      0.292950    68A      0.293123    69A      0.298739  
	  70A      0.299474    71A      0.306301    72A      0.309205  
	  73A      0.317458    74A      0.320430    75A      0.327347  
	  76A      0.329224    77A      0.338024    78A      0.339233  
	  79A      0.339423    80A      0.351707    81A      0.352910  
	  82A      0.364510    83A      0.365685    84A      0.370120  
	  85A      0.382157    86A      0.385943    87A      0.389678  
	  88A      0.394832    89A      0.410379    90A      0.420886  
	  91A      0.422092    92A      0.432120    93A      0.433045  
	  94A      0.433774    95A      0.440858    96A      0.453920  
	  97A      0.454983    98A      0.457179    99A      0.463341  
	 100A      0.463824   101A      0.470118   102A      0.475245  
	 103A      0.488396   104A      0.491351   105A      0.491717  
	 106A      0.493693   107A      0.500634   108A      0.505205  
	 109A      0.511846   110A      0.518478   111A      0.523623  
	 112A      0.525306   113A      0.530788   114A      0.533448  
	 115A      0.534760   116A      0.541704   117A      0.547467  
	 118A      0.551566   119A      0.561160   120A      0.571600  
	 121A      0.578491   122A      0.593486   123A      0.606224  
	 124A      0.618365   125A      0.620010   126A      0.633218  
	 127A      0.636370   128A      0.641486   129A      0.650139  
	 130A      0.656022   131A      0.657670   132A      0.672328  
	 133A      0.673528   134A      0.689176   135A      0.697762  
	 136A      0.703126   137A      0.722655   138A      0.723813  
	 139A      0.729299   140A      0.731965   141A      0.755388  
	 142A      0.757370   143A      0.767988   144A      0.771478  
	 145A      0.800603   146A      0.811856   147A      0.812151  
	 148A      0.819464   149A      0.819563   150A      0.829920  
	 151A      0.846568   152A      0.849285   153A      0.856578  
	 154A      0.864433   155A      0.875028   156A      0.883005  
	 157A      0.888867   158A      0.900913   159A      0.901103  
	 160A      0.906833   161A      0.917973   162A      0.929077  
	 163A      0.929626   164A      0.940315   165A      0.940902  
	 166A      0.951385   167A      0.960344   168A      0.971362  
	 169A      0.975459   170A      0.983235   171A      0.987014  
	 172A      0.997724   173A      1.003788   174A      1.005182  
	 175A      1.008889   176A      1.013068   177A      1.016164  
	 178A      1.019919   179A      1.024478   180A      1.031646  
	 181A      1.032284   182A      1.039483   183A      1.052273  
	 184A      1.056385   185A      1.063192   186A      1.064684  
	 187A      1.080700   188A      1.084168   189A      1.086842  
	 190A      1.092434   191A      1.093729   192A      1.102471  
	 193A      1.104889   194A      1.107268   195A      1.126088  
	 196A      1.131205   197A      1.137451   198A      1.150993  
	 199A      1.155742   200A      1.161150   201A      1.162394  
	 202A      1.173600   203A      1.174003   204A      1.178435  
	 205A      1.188839   206A      1.190050   207A      1.193406  
	 208A      1.202404   209A      1.203271   210A      1.207049  
	 211A      1.218589   212A      1.226444   213A      1.237160  
	 214A      1.237434   215A      1.243696   216A      1.243905  
	 217A      1.255764   218A      1.261005   219A      1.267699  
	 220A      1.277347   221A      1.284425   222A      1.286984  
	 223A      1.299173   224A      1.318571   225A      1.321894  
	 226A      1.336895   227A      1.348711   228A      1.370575  
	 229A      1.373637   230A      1.378577   231A      1.382502  
	 232A      1.404939   233A      1.408086   234A      1.423517  
	 235A      1.427836   236A      1.432659   237A      1.447832  
	 238A      1.466487   239A      1.475004   240A      1.492994  
	 241A      1.507511   242A      1.509956   243A      1.517940  
	 244A      1.527578   245A      1.536518   246A      1.537315  
	 247A      1.563081   248A      1.570516   249A      1.571924  
	 250A      1.593746   251A      1.605190   252A      1.609035  
	 253A      1.649113   254A      1.661317   255A      1.670459  
	 256A      1.687054   257A      1.701465   258A      1.704252  
	 259A      1.710249   260A      1.721940   261A      1.735095  
	 262A      1.740278   263A      1.744052   264A      1.748448  
	 265A      1.768074   266A      1.782012   267A      1.789981  
	 268A      1.794818   269A      1.814326   270A      1.817711  
	 271A      1.835412   272A      1.837730   273A      1.859000  
	 274A      1.869537   275A      1.883417   276A      1.884940  
	 277A      1.885668   278A      1.902584   279A      1.907452  
	 280A      1.915335   281A      1.924928   282A      1.932479  
	 283A      1.954797   284A      1.966821   285A      1.977868  
	 286A      1.982205   287A      1.990831   288A      2.005719  
	 289A      2.027097   290A      2.032066   291A      2.040714  
	 292A      2.045081   293A      2.054746   294A      2.056981  
	 295A      2.066352   296A      2.072024   297A      2.093938  
	 298A      2.098660   299A      2.110977   300A      2.149828  
	 301A      2.150781   302A      2.173073   303A      2.179784  
	 304A      2.186101   305A      2.201080   306A      2.210182  
	 307A      2.227468   308A      2.228506   309A      2.242825  
	 310A      2.244301   311A      2.258203   312A      2.264782  
	 313A      2.294363   314A      2.313651   315A      2.340764  
	 316A      2.362880   317A      2.374762   318A      2.390438  
	 319A      2.408484   320A      2.431434   321A      2.437143  
	 322A      2.453234   323A      2.454097   324A      2.460891  
	 325A      2.461661   326A      2.473772   327A      2.498633  
	 328A      2.504188   329A      2.566683   330A      2.572171  
	 331A      2.613953   332A      2.640823   333A      2.668349  
	 334A      2.690200   335A      2.699114   336A      2.715649  
	 337A      2.723048   338A      2.726310   339A      2.761093  
	 340A      2.796173   341A      2.815126   342A      2.824001  
	 343A      2.831935   344A      2.899812   345A      2.907630  
	 346A      2.935219   347A      2.948643   348A      2.961131  
	 349A      2.964670   350A      3.004900   351A      3.006115  
	 352A      3.061715   353A      3.068565   354A      3.090851  
	 355A      3.124105   356A      3.150630   357A      3.178550  
	 358A      3.191844   359A      3.255397   360A      3.259528  
	 361A      3.307507   362A      3.312346   363A      3.321840  
	 364A      3.329980   365A      3.366715   366A      3.379360  
	 367A      3.396175   368A      3.425802   369A      3.433428  
	 370A      3.437302   371A      3.438236   372A      3.466625  
	 373A      3.469553   374A      3.478723   375A      3.493330  
	 376A      3.514348   377A      3.519911   378A      3.535637  
	 379A      3.553330   380A      3.557890   381A      3.572313  
	 382A      3.573847   383A      3.576507   384A      3.597602  
	 385A      3.625719   386A      3.656044   387A      3.693537  
	 388A      3.702522   389A      3.705386   390A      3.741751  
	 391A      3.762912   392A      3.768613   393A      3.784838  
	 394A      3.802862   395A      3.808218   396A      3.847495  
	 397A      3.849604   398A      3.870496   399A      3.881534  
	 400A      3.900690   401A      3.901699   402A      3.911363  
	 403A      3.935312   404A      3.942158   405A      3.969481  
	 406A      3.970840   407A      4.002976   408A      4.013218  
	 409A      4.029997   410A      4.051189   411A      4.061755  
	 412A      4.078900   413A      4.092996   414A      4.110093  
	 415A      4.132610   416A      4.139700   417A      4.148270  
	 418A      4.150877   419A      4.162018   420A      4.165935  
	 421A      4.179274   422A      4.196451   423A      4.200451  
	 424A      4.207874   425A      4.223182   426A      4.236459  
	 427A      4.238430   428A      4.248868   429A      4.291899  
	 430A      4.293541   431A      4.303910   432A      4.342277  
	 433A      4.377194   434A      4.405338   435A      4.425067  
	 436A      4.446838   437A      4.446960   438A      4.459949  
	 439A      4.468505   440A      4.479524   441A      4.513644  
	 442A      4.518830   443A      4.529759   444A      4.533735  
	 445A      4.536704   446A      4.547421   447A      4.550674  
	 448A      4.572060   449A      4.588620   450A      4.648334  
	 451A      4.682284   452A      4.696393   453A      4.705680  
	 454A      4.707472   455A      4.713945   456A      4.756631  
	 457A      4.764870   458A      4.813126   459A      4.842690  
	 460A      4.850741   461A      4.860551   462A      4.860718  
	 463A      4.886292   464A      4.912674   465A      4.915738  
	 466A      4.941742   467A      4.952570   468A      4.979210  
	 469A      4.996784   470A      5.024450   471A      5.040495  
	 472A      5.049686   473A      5.053323   474A      5.069022  
	 475A      5.083616   476A      5.101824   477A      5.117642  
	 478A      5.118049   479A      5.138203   480A      5.153886  
	 481A      5.163344   482A      5.200976   483A      5.213033  
	 484A      5.224087   485A      5.237971   486A      5.257182  
	 487A      5.288258   488A      5.328873   489A      5.344796  
	 490A      5.356458   491A      5.408641   492A      5.423600  
	 493A      5.431858   494A      5.439744   495A      5.448951  
	 496A      5.476634   497A      5.479128   498A      5.485444  
	 499A      5.493945   500A      5.500790   501A      5.537613  
	 502A      5.538112   503A      5.581654   504A      5.622197  
	 505A      5.639243   506A      5.662833   507A      5.672419  
	 508A      5.761017   509A      5.765295   510A      5.807364  
	 511A      5.817304   512A      5.856453   513A      5.867164  
	 514A      5.882153   515A      5.890886   516A      5.905228  
	 517A      5.919054   518A      5.949666   519A      6.016272  
	 520A      6.084734   521A      6.142818   522A      6.154938  
	 523A      6.187572   524A      6.222463   525A      6.240174  
	 526A      6.254068   527A      6.324301   528A      6.330803  
	 529A      6.438935   530A      6.485849   531A      6.517035  
	 532A      6.543354   533A      6.683681   534A      6.700985  
	 535A      6.724447   536A      6.745888   537A      6.837597  
	 538A      6.838659   539A      6.888589   540A      6.918271  
	 541A      7.110635   542A      7.153768   543A      7.175980  
	 544A      7.289156   545A      7.506908   546A      7.731553  
	 547A      7.752604   548A      7.836384   549A      7.904132  
	 550A      7.924088   551A      8.090232   552A      8.140402  
	 553A      8.188062   554A      8.262660   555A      8.381370  
	 556A      8.638193   557A      8.992092   558A      9.925363  
	 559A     10.085798   560A     10.407234   561A     10.438864  
	 562A     10.656428   563A     11.055179   564A     11.936937  
	 565A     12.304995   566A     13.220905   567A     14.324191  
	 568A     15.701462   569A     16.352646   570A     18.652274  
	 571A     19.001451   572A     19.400957   573A     19.495921  
	 574A     52.982895   575A     66.882052  

	Final Occupation by Irrep:
	          A 
	DOCC [    21 ]

  Energy converged.

  @RHF Final Energy:  -246.77883942252080

   => Energetics <=

    Nuclear Repulsion Energy =            206.2842673812002943
    One-Electron Energy =                -741.3497459027233845
    Two-Electron Energy =                 288.2866390990041054
    DFT Exchange-Correlation Energy =       0.0000000000000000
    Empirical Dispersion Energy =           0.0000000000000000
    Total Energy =                       -246.7788394225190132



Properties will be evaluated at   0.000000,   0.000000,   0.000000 Bohr
  ==> Properties <==


Properties computed using the SCF density density matrix
  Nuclear Dipole Moment: (a.u.)
     X:   108.5792      Y:    12.3446      Z:    -0.0427

  Electronic Dipole Moment: (a.u.)
     X:  -107.6694      Y:   -12.3756      Z:     0.0434

  Dipole Moment: (a.u.)
     X:     0.9098      Y:    -0.0310      Z:     0.0007     Total:     0.9103

  Dipole Moment: (Debye)
     X:     2.3125      Y:    -0.0789      Z:     0.0018     Total:     2.3138


  Saving occupied orbitals to File 180.

  Saving SAPT 2-MONOMER_B file.

*** tstop() called on genome.bme.utexas.edu at Mon Nov 25 10:43:05 2013
Module time:
	user time   =     343.61 seconds =       5.73 minutes
	system time =       3.41 seconds =       0.06 minutes
	total time  =         93 seconds =       1.55 minutes
Total time:
	user time   =    1098.38 seconds =      18.31 minutes
	system time =      14.61 seconds =       0.24 minutes
	total time  =        304 seconds =       5.07 minutes
  No DF_BASIS_SAPT auxiliary basis selected, defaulting to aug-cc-pvtz-ri

  //>>>>>>>>>>>>>>>>>>>>>>>>>>>>>>>>>>>//
  //               SAPT2+              //
  //<<<<<<<<<<<<<<<<<<<<<<<<<<<<<<<<<<<//


*** tstart() called on genome.bme.utexas.edu
*** at Mon Nov 25 10:43:05 2013

        SAPT2+  
    Ed Hohenstein
     6 June 2009

      Orbital Information
  --------------------------
    NSO        =       575
    NMO        =       575
    NRI        =      1262
    NOCC A     =         9
    NOCC B     =        21
    FOCC A     =         2
    FOCC B     =         6
    NVIR A     =       566
    NVIR B     =       554

    Estimated memory usage: 6625.0 MB

    Elst10,r            =    -0.012827843239 H
    Exch10 (S^2)        =     0.009138096454 H
    Exch10              =     0.009200322072 H
    Ind20,r (A<-B)      =    -0.001201801958 H
    Ind20,r (B<-A)      =    -0.003675149078 H
    Ind20,r             =    -0.004876951036 H
    Exch-Ind20,r (A<-B) =     0.000503560663 H
    Exch-Ind20,r (B<-A) =     0.002070296503 H
    Exch-Ind20,r        =     0.002573857166 H
    Disp20              =    -0.005418704853 H
    Exch-Disp20         =     0.000807476830 H
    Elst12,r            =    -0.000249699292 H
    Exch11              =     0.000120984896 H
    Exch12              =     0.001444440939 H
    Ind22               =    -0.000738824667 H
    Disp21              =     0.000523142757 H
    Disp22 (SDQ)        =    -0.000076995170 H

    (i =   1 of  15)       1860 seconds
    (i =   2 of  15)       3911 seconds
    (i =   3 of  15)       6185 seconds
    (i =   4 of  15)       8085 seconds
    (i =   5 of  15)       9944 seconds
    (i =   6 of  15)      12156 seconds
    (i =   7 of  15)      14465 seconds
    (i =   8 of  15)      16495 seconds
    (i =   9 of  15)      18623 seconds
    (i =  10 of  15)      20700 seconds
    (i =  11 of  15)      22961 seconds
    (i =  12 of  15)      25057 seconds
    (i =  13 of  15)      27118 seconds
    (i =  14 of  15)      29333 seconds
    (i =  15 of  15)      31357 seconds

    Disp220 (T)         =    -0.000523674775 H

    (i =   1 of   7)       5318 seconds
    (i =   2 of   7)      10883 seconds
    (i =   3 of   7)      16388 seconds
    (i =   4 of   7)      21976 seconds
    (i =   5 of   7)      26788 seconds
    (i =   6 of   7)      32238 seconds
    (i =   7 of   7)      37908 seconds

    Disp202 (T)         =    -0.000576839926 H

    Disp22 (T)          =    -0.001100514701 H

    SAPT Results  
  -----------------------------------------------------------------------
    Electrostatics         -13.07754253 mH      -8.20628217 kcal mol^-1
      Elst10,r             -12.82784324 mH      -8.04959350 kcal mol^-1
      Elst12,r              -0.24969929 mH      -0.15668868 kcal mol^-1

    Exchange                10.76574791 mH       6.75560909 kcal mol^-1
      Exch10                 9.20032207 mH       5.77328950 kcal mol^-1
      Exch10(S^2)            9.13809645 mH       5.73424234 kcal mol^-1
      Exch11(S^2)            0.12098490 mH       0.07591917 kcal mol^-1
      Exch12(S^2)            1.44444094 mH       0.90640041 kcal mol^-1

    Induction               -4.04573359 mH      -2.53873626 kcal mol^-1
      Ind20,r               -4.87695104 mH      -3.06033311 kcal mol^-1
      Ind22                 -0.73882467 mH      -0.46361950 kcal mol^-1
      Exch-Ind20,r           2.57385717 mH       1.61511982 kcal mol^-1
      Exch-Ind22             0.38992173 mH       0.24467959 kcal mol^-1
      delta HF,r (2)        -1.39373678 mH      -0.87458307 kcal mol^-1

    Dispersion              -5.26559514 mH      -3.30421097 kcal mol^-1
      Disp20                -5.41870485 mH      -3.40028877 kcal mol^-1
      Disp21                 0.52314276 mH       0.32827705 kcal mol^-1
      Disp22 (SDQ)          -0.07699517 mH      -0.04831520 kcal mol^-1
      Disp22 (T)            -1.10051470 mH      -0.69058343 kcal mol^-1
      Exch-Disp20            0.80747683 mH       0.50669938 kcal mol^-1

    Total HF                -7.32435182 mH      -4.59610035 kcal mol^-1
    Total SAPT0            -11.93557984 mH      -7.48968974 kcal mol^-1
    Total SAPT2            -10.96875624 mH      -6.88299874 kcal mol^-1
    Total SAPT2+           -11.62312335 mH      -7.29362032 kcal mol^-1

*** tstop() called on genome.bme.utexas.edu at Tue Nov 26 10:28:07 2013
Module time:
	user time   =  258244.72 seconds =    4304.08 minutes
	system time =    1142.02 seconds =      19.03 minutes
	total time  =      85502 seconds =    1425.03 minutes
Total time:
	user time   =  259343.11 seconds =    4322.39 minutes
	system time =    1156.63 seconds =      19.28 minutes
	total time  =      85806 seconds =    1430.10 minutes

*** PSI4 exiting successfully. Buy a developer a beer!
