    -----------------------------------------------------------------------
          PSI4: An Open-Source Ab Initio Electronic Structure Package
                              PSI 4.0.0-beta4 Driver

    J. M. Turney, A. C. Simmonett, R. M. Parrish, E. G. Hohenstein,
    F. A. Evangelista, J. T. Fermann, B. J. Mintz, L. A. Burns, J. J. Wilke,
    M. L. Abrams, N. J. Russ, M. L. Leininger, C. L. Janssen, E. T. Seidl,
    W. D. Allen, H. F. Schaefer, R. A. King, E. F. Valeev, C. D. Sherrill,
    and T. D. Crawford, WIREs Comput. Mol. Sci., (2011) (doi: 10.1002/wcms.93)

                         Additional Contributions by
    A. E. DePrince, M. Saitow, U. Bozkaya, A. Yu. Sokolov
    -----------------------------------------------------------------------

    Process ID:  23100
    PSI4DATADIR: /home/xzhu216/psi4/psi4-install/share/psi

    Using LocalCommunicator (Number of processes = 1)

    Memory level set to 256.000 MB

  ==> Input File <==

--------------------------------------------------------------------------
#psi4
#
memory 7 gb

molecule MeOH_Pyridine {
0 1
    O    -0.627651774     0.087467269     0.001471285
    H     0.343602034     0.122303329    -0.000600445
    C    -0.977931231    -1.278556006     0.001238407
    H    -2.063392094    -1.342043324     0.005008980
    H    -0.614883686    -1.806375837    -0.885383954
    H    -0.608640326    -1.808236824     0.884172732
--
0 1
    N     1.903486068     0.036679043    -0.001430551
    C     2.599854457     0.012243712    -1.146150155
    H     2.015375860     0.035467247    -2.057125593
    C     3.989491520    -0.037499152    -1.194835405
    H     4.496843868    -0.054791184    -2.148618129
    C     4.699864748    -0.063211769     0.000777622
    H     5.780200751    -0.100976522     0.001626917
    C     3.987617296    -0.038190662     1.195317475
    H     4.493416030    -0.056014989     2.149803167
    C     2.598063653     0.011559025     1.144363390
    H     2.012057867     0.034233452     2.054482076
units angstrom
no_reorient  #important for SAPT in psi4, default
symmetry c1  #important for SAPT in psi4, default
}

set {
basis aug-cc-pVTZ
scf_type DF
freeze_core True
}
energy('sapt2+')
--------------------------------------------------------------------------

  Memory set to   7.000 GiB by Python script.

  //>>>>>>>>>>>>>>>>>>>>>>>>>>>>>>>>>>>//
  //              Dimer HF             //
  //<<<<<<<<<<<<<<<<<<<<<<<<<<<<<<<<<<<//


  No DF_BASIS_SCF auxiliary basis selected, defaulting to aug-cc-pvtz-jkfit


*** tstart() called on node117.bme.utexas.edu
*** at Fri Feb 14 14:56:24 2014


         ---------------------------------------------------------
                                   SCF
            by Justin Turney, Rob Parrish, and Andy Simmonett
                              RHF Reference
                        4 Threads,   7000 MiB Core
         ---------------------------------------------------------

  ==> Geometry <==

    Molecular point group: c1
    Full point group: C1

    Geometry (in Angstrom), charge = 0, multiplicity = 1:

       Center              X                  Y                   Z       
    ------------   -----------------  -----------------  -----------------
           O         -2.746684356432     0.265975110114     0.001332370056
           H         -1.775430548432     0.300811170114    -0.000739359944
           C         -3.096963813432    -1.100048164886     0.001099492056
           H         -4.182424676432    -1.163535482886     0.004870065056
           H         -2.733916268432    -1.627867995886    -0.885522868944
           H         -2.727672908432    -1.629728982886     0.884033817056
           N         -0.215546514432     0.215186884114    -0.001569465944
           C          0.480821874568     0.190751553114    -1.146289069944
           H         -0.103656722432     0.213975088114    -2.057264507944
           C          1.870458937568     0.141008689114    -1.194974319944
           H          2.377811285568     0.123716657114    -2.148757043944
           C          2.580832165568     0.115296072114     0.000638707056
           H          3.661168168568     0.077531319114     0.001488002056
           C          1.868584713568     0.140317179114     1.195178560056
           H          2.374383447568     0.122492852114     2.149664252056
           C          0.479031070568     0.190066866114     1.144224475056
           H         -0.106974715432     0.212741293114     2.054343161056

  Running in c1 symmetry.

  Nuclear repulsion =  345.904324128883786

  Charge       = 0
  Multiplicity = 1
  Electrons    = 60
  Nalpha       = 30
  Nbeta        = 30

  ==> Algorithm <==

  SCF Algorithm Type is DF.
  DIIS enabled.
  MOM disabled.
  Fractional occupation disabled.
  Guess Type is CORE.
  Energy threshold   = 1.00e-08
  Density threshold  = 1.00e-08
  Integral threshold = 0.00e+00

  ==> Primary Basis <==

  Basis Set: AUG-CC-PVTZ
    Number of shells: 193
    Number of basis function: 575
    Number of Cartesian functions: 665
    Spherical Harmonics?: true
    Max angular momentum: 3

  ==> Pre-Iterations <==

   -------------------------------------------------------
    Irrep   Nso     Nmo     Nalpha   Nbeta   Ndocc  Nsocc
   -------------------------------------------------------
     A        575     575       0       0       0       0
   -------------------------------------------------------
    Total     575     575      30      30      30       0
   -------------------------------------------------------

 OEINTS: Wrapper to libmints.
   by Justin Turney

   Calculation information:
      Number of atoms:                  17
      Number of AO shells:             193
      Number of SO shells:             193
      Number of primitives:            339
      Number of atomic orbitals:       665
      Number of basis functions:       575

      Number of irreps:                  1
      Number of functions per irrep: [ 575 ]

      Overlap, kinetic, potential, dipole, and quadrupole integrals
        stored in file 35.

  ==> Integral Setup <==

  ==> DFJK: Density-Fitted J/K Matrices <==

    J tasked:                  Yes
    K tasked:                  Yes
    wK tasked:                  No
    OpenMP threads:              4
    Integrals threads:           4
    Memory (MB):              5006
    Algorithm:                Core
    Integral Cache:           SAVE
    Schwarz Cutoff:          0E+00
    Fitting Condition:       1E-12

   => Auxiliary Basis Set <=

  Basis Set: aug-cc-pvtz-jkfit
    Number of shells: 366
    Number of basis function: 1246
    Number of Cartesian functions: 1543
    Spherical Harmonics?: true
    Max angular momentum: 4

  Minimum eigenvalue in the overlap matrix is 1.8340986514E-06.
  Using Symmetric Orthogonalization.
  SCF Guess: Core (One-Electron) Hamiltonian.

  Guess energy:  -296.71407213193504

  ==> Iterations <==

                        Total Energy        Delta E     RMS |[F,P]|

   @RHF iter   1:  -255.35731573644773   -2.55357e+02   2.73392e-02 
   @RHF iter   2:  -135.15910762578875    1.20198e+02   2.45960e-02 DIIS
   @RHF iter   3:  -238.15008883968142   -1.02991e+02   1.94825e-02 DIIS
   @RHF iter   4:  -256.58646686609825   -1.84364e+01   2.13986e-02 DIIS
   @RHF iter   5:  -347.89469126338338   -9.13082e+01   5.49376e-03 DIIS
   @RHF iter   6:  -244.55742004494653    1.03337e+02   1.69536e-02 DIIS
   @RHF iter   7:  -308.45951334838992   -6.39021e+01   1.15978e-02 DIIS
   @RHF iter   8:  -342.78443213086007   -3.43249e+01   6.97291e-03 DIIS
   @RHF iter   9:  -361.62128235467310   -1.88369e+01   1.15998e-03 DIIS
   @RHF iter  10:  -361.80283403904230   -1.81552e-01   5.80316e-04 DIIS
   @RHF iter  11:  -361.85140370726208   -4.85697e-02   2.42144e-04 DIIS
   @RHF iter  12:  -361.86571951571500   -1.43158e-02   6.39358e-05 DIIS
   @RHF iter  13:  -361.86693491980350   -1.21540e-03   2.42854e-05 DIIS
   @RHF iter  14:  -361.86710796683076   -1.73047e-04   9.75497e-06 DIIS
   @RHF iter  15:  -361.86715209372971   -4.41269e-05   3.28682e-06 DIIS
   @RHF iter  16:  -361.86716018055256   -8.08682e-06   1.49207e-06 DIIS
   @RHF iter  17:  -361.86716207508698   -1.89453e-06   7.03734e-07 DIIS
   @RHF iter  18:  -361.86716240510839   -3.30021e-07   2.34659e-07 DIIS
   @RHF iter  19:  -361.86716243138608   -2.62777e-08   6.42067e-08 DIIS
   @RHF iter  20:  -361.86716243295871   -1.57263e-09   2.16655e-08 DIIS
   @RHF iter  21:  -361.86716243309434   -1.35628e-10   4.59586e-09 DIIS

  ==> Post-Iterations <==

	Orbital Energies (a.u.)
	-----------------------

	Doubly Occupied:                                                      

	   1A    -20.492890     2A    -15.588866     3A    -11.296191  
	   4A    -11.296172     5A    -11.278558     6A    -11.258788  
	   7A    -11.258739     8A    -11.237018     9A     -1.310943  
	  10A     -1.279464    11A     -1.109681    12A     -1.053543  
	  13A     -0.891346    14A     -0.877425    15A     -0.877007  
	  16A     -0.746963    17A     -0.681542    18A     -0.676828  
	  19A     -0.663025    20A     -0.617248    21A     -0.589269  
	  22A     -0.581342    23A     -0.565778    24A     -0.549221  
	  25A     -0.538729    26A     -0.485171    27A     -0.419539  
	  28A     -0.405873    29A     -0.401576    30A     -0.365508  

	Virtual:                                                              

	  31A      0.020532    32A      0.029373    33A      0.035548  
	  34A      0.045882    35A      0.048380    36A      0.053635  
	  37A      0.061188    38A      0.067374    39A      0.072145  
	  40A      0.080198    41A      0.083648    42A      0.088662  
	  43A      0.099263    44A      0.103603    45A      0.109556  
	  46A      0.110321    47A      0.118573    48A      0.120331  
	  49A      0.121509    50A      0.132299    51A      0.134563  
	  52A      0.135374    53A      0.139954    54A      0.143993  
	  55A      0.149543    56A      0.150042    57A      0.162991  
	  58A      0.164090    59A      0.166553    60A      0.170868  
	  61A      0.194823    62A      0.218827    63A      0.227134  
	  64A      0.235944    65A      0.236277    66A      0.237476  
	  67A      0.239115    68A      0.245773    69A      0.251715  
	  70A      0.261556    71A      0.268403    72A      0.273446  
	  73A      0.284096    74A      0.287416    75A      0.287552  
	  76A      0.294001    77A      0.298907    78A      0.299668  
	  79A      0.309213    80A      0.312689    81A      0.314889  
	  82A      0.319195    83A      0.322640    84A      0.329090  
	  85A      0.332267    86A      0.342389    87A      0.342458  
	  88A      0.352994    89A      0.360281    90A      0.363318  
	  91A      0.367042    92A      0.382108    93A      0.384018  
	  94A      0.391018    95A      0.394837    96A      0.397569  
	  97A      0.407394    98A      0.416539    99A      0.424341  
	 100A      0.425123   101A      0.429072   102A      0.442758  
	 103A      0.446546   104A      0.448535   105A      0.450117  
	 106A      0.452803   107A      0.456132   108A      0.464953  
	 109A      0.476677   110A      0.477194   111A      0.481165  
	 112A      0.482934   113A      0.489329   114A      0.494122  
	 115A      0.498081   116A      0.499650   117A      0.508875  
	 118A      0.514920   119A      0.516767   120A      0.523586  
	 121A      0.529556   122A      0.534688   123A      0.537925  
	 124A      0.538863   125A      0.540800   126A      0.549444  
	 127A      0.552342   128A      0.568639   129A      0.581328  
	 130A      0.585316   131A      0.609386   132A      0.613156  
	 133A      0.619254   134A      0.625414   135A      0.627931  
	 136A      0.632158   137A      0.638416   138A      0.646107  
	 139A      0.654744   140A      0.677794   141A      0.684306  
	 142A      0.692778   143A      0.700267   144A      0.704195  
	 145A      0.712810   146A      0.719199   147A      0.737566  
	 148A      0.744650   149A      0.755895   150A      0.756548  
	 151A      0.777501   152A      0.787403   153A      0.788633  
	 154A      0.794292   155A      0.807427   156A      0.808409  
	 157A      0.812990   158A      0.815943   159A      0.817133  
	 160A      0.837016   161A      0.837979   162A      0.846860  
	 163A      0.848761   164A      0.860285   165A      0.860982  
	 166A      0.876326   167A      0.879981   168A      0.889670  
	 169A      0.902155   170A      0.903727   171A      0.904119  
	 172A      0.925866   173A      0.926356   174A      0.931956  
	 175A      0.935041   176A      0.942211   177A      0.958667  
	 178A      0.964426   179A      0.966906   180A      0.971871  
	 181A      0.979369   182A      0.985021   183A      0.993414  
	 184A      0.995922   185A      1.005423   186A      1.009026  
	 187A      1.010802   188A      1.015827   189A      1.018167  
	 190A      1.030962   191A      1.042880   192A      1.051819  
	 193A      1.055888   194A      1.063320   195A      1.069787  
	 196A      1.075918   197A      1.077992   198A      1.086452  
	 199A      1.087863   200A      1.093318   201A      1.103221  
	 202A      1.107343   203A      1.111780   204A      1.116588  
	 205A      1.124014   206A      1.126629   207A      1.144909  
	 208A      1.159284   209A      1.163991   210A      1.169357  
	 211A      1.173295   212A      1.175803   213A      1.182217  
	 214A      1.183644   215A      1.195977   216A      1.198907  
	 217A      1.208608   218A      1.215741   219A      1.222089  
	 220A      1.232083   221A      1.233609   222A      1.237885  
	 223A      1.247888   224A      1.248360   225A      1.250276  
	 226A      1.258753   227A      1.270910   228A      1.271556  
	 229A      1.289736   230A      1.295894   231A      1.312176  
	 232A      1.336114   233A      1.346087   234A      1.372289  
	 235A      1.374706   236A      1.381039   237A      1.387200  
	 238A      1.393585   239A      1.406204   240A      1.408207  
	 241A      1.422875   242A      1.425535   243A      1.448039  
	 244A      1.449757   245A      1.468666   246A      1.479266  
	 247A      1.491348   248A      1.493920   249A      1.495790  
	 250A      1.499823   251A      1.502713   252A      1.517941  
	 253A      1.527560   254A      1.536825   255A      1.562130  
	 256A      1.576223   257A      1.595436   258A      1.603895  
	 259A      1.615956   260A      1.647060   261A      1.649997  
	 262A      1.659539   263A      1.665396   264A      1.677869  
	 265A      1.682292   266A      1.693962   267A      1.704476  
	 268A      1.705661   269A      1.709851   270A      1.711029  
	 271A      1.719047   272A      1.739347   273A      1.743565  
	 274A      1.757799   275A      1.758592   276A      1.762935  
	 277A      1.785044   278A      1.792128   279A      1.803740  
	 280A      1.822899   281A      1.824829   282A      1.831762  
	 283A      1.836308   284A      1.853047   285A      1.858728  
	 286A      1.878188   287A      1.903522   288A      1.905086  
	 289A      1.910659   290A      1.939739   291A      1.950580  
	 292A      1.969019   293A      1.979705   294A      1.984494  
	 295A      2.010376   296A      2.011206   297A      2.013596  
	 298A      2.016853   299A      2.028060   300A      2.032101  
	 301A      2.036326   302A      2.042064   303A      2.058383  
	 304A      2.070618   305A      2.077449   306A      2.080427  
	 307A      2.094084   308A      2.100584   309A      2.138837  
	 310A      2.142069   311A      2.143393   312A      2.183101  
	 313A      2.194454   314A      2.201404   315A      2.230820  
	 316A      2.234297   317A      2.237812   318A      2.238740  
	 319A      2.243356   320A      2.258895   321A      2.260019  
	 322A      2.306161   323A      2.329820   324A      2.337840  
	 325A      2.366779   326A      2.390845   327A      2.391742  
	 328A      2.426940   329A      2.428556   330A      2.457655  
	 331A      2.461914   332A      2.481339   333A      2.493714  
	 334A      2.514288   335A      2.545497   336A      2.546888  
	 337A      2.568892   338A      2.599555   339A      2.604443  
	 340A      2.656457   341A      2.703616   342A      2.706993  
	 343A      2.722038   344A      2.741400   345A      2.765555  
	 346A      2.784282   347A      2.809142   348A      2.817919  
	 349A      2.826221   350A      2.867153   351A      2.892625  
	 352A      2.922371   353A      2.929300   354A      2.946248  
	 355A      2.951356   356A      2.964335   357A      2.987831  
	 358A      3.001194   359A      3.005140   360A      3.054133  
	 361A      3.104701   362A      3.138255   363A      3.147623  
	 364A      3.160393   365A      3.177126   366A      3.177341  
	 367A      3.241611   368A      3.251448   369A      3.277337  
	 370A      3.301053   371A      3.323945   372A      3.324813  
	 373A      3.345363   374A      3.349635   375A      3.366627  
	 376A      3.373669   377A      3.396773   378A      3.418812  
	 379A      3.430168   380A      3.445780   381A      3.450758  
	 382A      3.453349   383A      3.476932   384A      3.500344  
	 385A      3.501651   386A      3.517684   387A      3.522246  
	 388A      3.554654   389A      3.562289   390A      3.566880  
	 391A      3.598827   392A      3.633654   393A      3.646626  
	 394A      3.658305   395A      3.669298   396A      3.675977  
	 397A      3.680524   398A      3.702520   399A      3.711601  
	 400A      3.726162   401A      3.743483   402A      3.744076  
	 403A      3.783430   404A      3.790948   405A      3.794742  
	 406A      3.801352   407A      3.832211   408A      3.851297  
	 409A      3.856622   410A      3.861042   411A      3.885909  
	 412A      3.893514   413A      3.911675   414A      3.919493  
	 415A      3.923828   416A      3.926283   417A      3.949951  
	 418A      3.969010   419A      3.974628   420A      4.000506  
	 421A      4.005600   422A      4.023398   423A      4.029316  
	 424A      4.038909   425A      4.071870   426A      4.087049  
	 427A      4.094189   428A      4.103708   429A      4.124945  
	 430A      4.127063   431A      4.132830   432A      4.141336  
	 433A      4.151402   434A      4.170078   435A      4.180410  
	 436A      4.203602   437A      4.211562   438A      4.211702  
	 439A      4.240743   440A      4.242261   441A      4.260213  
	 442A      4.272200   443A      4.282247   444A      4.294703  
	 445A      4.321968   446A      4.326159   447A      4.336200  
	 448A      4.357321   449A      4.360194   450A      4.390206  
	 451A      4.405558   452A      4.416217   453A      4.416898  
	 454A      4.440971   455A      4.455637   456A      4.494616  
	 457A      4.510319   458A      4.530118   459A      4.543306  
	 460A      4.553918   461A      4.558892   462A      4.591157  
	 463A      4.617909   464A      4.648009   465A      4.652166  
	 466A      4.687974   467A      4.719115   468A      4.720028  
	 469A      4.751870   470A      4.759754   471A      4.765629  
	 472A      4.791389   473A      4.799079   474A      4.828952  
	 475A      4.845110   476A      4.854332   477A      4.879102  
	 478A      4.894160   479A      4.906610   480A      4.914689  
	 481A      4.932589   482A      4.957102   483A      4.985238  
	 484A      4.991838   485A      5.025204   486A      5.041126  
	 487A      5.045600   488A      5.061634   489A      5.083352  
	 490A      5.088421   491A      5.094197   492A      5.108451  
	 493A      5.129861   494A      5.140662   495A      5.149028  
	 496A      5.162545   497A      5.179398   498A      5.201752  
	 499A      5.209350   500A      5.267805   501A      5.271670  
	 502A      5.298446   503A      5.312480   504A      5.364199  
	 505A      5.380226   506A      5.417794   507A      5.435483  
	 508A      5.454845   509A      5.477747   510A      5.506086  
	 511A      5.510862   512A      5.533805   513A      5.578139  
	 514A      5.611535   515A      5.621813   516A      5.635717  
	 517A      5.661374   518A      5.679876   519A      5.720977  
	 520A      5.741170   521A      5.791398   522A      5.799477  
	 523A      5.831301   524A      5.838911   525A      5.861392  
	 526A      5.917574   527A      5.933645   528A      5.946947  
	 529A      5.967183   530A      5.985563   531A      6.011849  
	 532A      6.071257   533A      6.124325   534A      6.169578  
	 535A      6.186803   536A      6.216188   537A      6.234124  
	 538A      6.267891   539A      6.290033   540A      6.368910  
	 541A      6.417127   542A      6.500265   543A      6.563570  
	 544A      6.665487   545A      6.709255   546A      6.709975  
	 547A      6.740808   548A      6.746704   549A      6.762662  
	 550A      6.821057   551A      6.907238   552A      7.048629  
	 553A      7.049203   554A      7.073116   555A      7.129118  
	 556A      7.145851   557A      7.176376   558A      7.463566  
	 559A      7.483504   560A      7.658571   561A      7.677170  
	 562A      7.721794   563A      7.780612   564A      7.961470  
	 565A      8.176884   566A      8.367372   567A      8.881264  
	 568A     15.826042   569A     16.363187   570A     17.008362  
	 571A     18.192085   572A     18.824000   573A     19.300943  
	 574A     19.580934   575A     19.634188  

	Final Occupation by Irrep:
	          A 
	DOCC [    30 ]

  Energy converged.

  @RHF Final Energy:  -361.86716243309434

   => Energetics <=

    Nuclear Repulsion Energy =            345.9043241288837862
    One-Electron Energy =               -1176.7544841874173471
    Two-Electron Energy =                 468.9829976254416692
    DFT Exchange-Correlation Energy =       0.0000000000000000
    Empirical Dispersion Energy =           0.0000000000000000
    Total Energy =                       -361.8671624330918917



Properties will be evaluated at   0.000000,   0.000000,   0.000000 Bohr
  ==> Properties <==


Properties computed using the SCF density density matrix
  Nuclear Dipole Moment: (a.u.)
     X:    -3.0281      Y:    -3.1585      Z:     0.0020

  Electronic Dipole Moment: (a.u.)
     X:     5.0828      Y:     2.7219      Z:    -0.0029

  Dipole Moment: (a.u.)
     X:     2.0547      Y:    -0.4366      Z:    -0.0009     Total:     2.1005

  Dipole Moment: (Debye)
     X:     5.2225      Y:    -1.1097      Z:    -0.0024     Total:     5.3391


  Saving occupied orbitals to File 180.

  Saving SAPT 2-DIMER file.

*** tstop() called on node117.bme.utexas.edu at Fri Feb 14 15:00:15 2014
Module time:
	user time   =     866.90 seconds =      14.45 minutes
	system time =      10.29 seconds =       0.17 minutes
	total time  =        231 seconds =       3.85 minutes
Total time:
	user time   =     866.90 seconds =      14.45 minutes
	system time =      10.29 seconds =       0.17 minutes
	total time  =        231 seconds =       3.85 minutes

  //>>>>>>>>>>>>>>>>>>>>>>>>>>>>>>>>>>>//
  //            Monomer A HF           //
  //<<<<<<<<<<<<<<<<<<<<<<<<<<<<<<<<<<<//


  No DF_BASIS_SCF auxiliary basis selected, defaulting to aug-cc-pvtz-jkfit


*** tstart() called on node117.bme.utexas.edu
*** at Fri Feb 14 15:00:15 2014


         ---------------------------------------------------------
                                   SCF
            by Justin Turney, Rob Parrish, and Andy Simmonett
                              RHF Reference
                        4 Threads,   7000 MiB Core
         ---------------------------------------------------------

  ==> Geometry <==

    Molecular point group: c1
    Full point group: C1

    Geometry (in Angstrom), charge = 0, multiplicity = 1:

       Center              X                  Y                   Z       
    ------------   -----------------  -----------------  -----------------
           O         -2.746684356432     0.265975110114     0.001332370056
           H         -1.775430548432     0.300811170114    -0.000739359944
           C         -3.096963813432    -1.100048164886     0.001099492056
           H         -4.182424676432    -1.163535482886     0.004870065056
           H         -2.733916268432    -1.627867995886    -0.885522868944
           H         -2.727672908432    -1.629728982886     0.884033817056
           N(Gh)     -0.215546514432     0.215186884114    -0.001569465944
           C(Gh)      0.480821874568     0.190751553114    -1.146289069944
           H(Gh)     -0.103656722432     0.213975088114    -2.057264507944
           C(Gh)      1.870458937568     0.141008689114    -1.194974319944
           H(Gh)      2.377811285568     0.123716657114    -2.148757043944
           C(Gh)      2.580832165568     0.115296072114     0.000638707056
           H(Gh)      3.661168168568     0.077531319114     0.001488002056
           C(Gh)      1.868584713568     0.140317179114     1.195178560056
           H(Gh)      2.374383447568     0.122492852114     2.149664252056
           C(Gh)      0.479031070568     0.190066866114     1.144224475056
           H(Gh)     -0.106974715432     0.212741293114     2.054343161056

  Running in c1 symmetry.

  Nuclear repulsion =   40.421907994388285

  Charge       = 0
  Multiplicity = 1
  Electrons    = 18
  Nalpha       = 9
  Nbeta        = 9

  ==> Algorithm <==

  SCF Algorithm Type is DF.
  DIIS enabled.
  MOM disabled.
  Fractional occupation disabled.
  Guess Type is CORE.
  Energy threshold   = 1.00e-08
  Density threshold  = 1.00e-08
  Integral threshold = 0.00e+00

  ==> Primary Basis <==

  Basis Set: AUG-CC-PVTZ
    Number of shells: 193
    Number of basis function: 575
    Number of Cartesian functions: 665
    Spherical Harmonics?: true
    Max angular momentum: 3

  ==> Pre-Iterations <==

   -------------------------------------------------------
    Irrep   Nso     Nmo     Nalpha   Nbeta   Ndocc  Nsocc
   -------------------------------------------------------
     A        575     575       0       0       0       0
   -------------------------------------------------------
    Total     575     575       9       9       9       0
   -------------------------------------------------------

 OEINTS: Wrapper to libmints.
   by Justin Turney

   Calculation information:
      Number of atoms:                  17
      Number of AO shells:             193
      Number of SO shells:             193
      Number of primitives:            339
      Number of atomic orbitals:       665
      Number of basis functions:       575

      Number of irreps:                  1
      Number of functions per irrep: [ 575 ]

      Overlap, kinetic, potential, dipole, and quadrupole integrals
        stored in file 35.

  ==> Integral Setup <==

  ==> DFJK: Density-Fitted J/K Matrices <==

    J tasked:                  Yes
    K tasked:                  Yes
    wK tasked:                  No
    OpenMP threads:              4
    Integrals threads:           4
    Memory (MB):              5006
    Algorithm:                Core
    Integral Cache:           LOAD
    Schwarz Cutoff:          0E+00
    Fitting Condition:       1E-12

   => Auxiliary Basis Set <=

  Basis Set: aug-cc-pvtz-jkfit
    Number of shells: 366
    Number of basis function: 1246
    Number of Cartesian functions: 1543
    Spherical Harmonics?: true
    Max angular momentum: 4

  Minimum eigenvalue in the overlap matrix is 1.8340986512E-06.
  Using Symmetric Orthogonalization.
  SCF Guess: Core (One-Electron) Hamiltonian.

  Guess energy:   -92.22062242054400

  ==> Iterations <==

                        Total Energy        Delta E     RMS |[F,P]|

   @RHF iter   1:   -89.35798214736698   -8.93580e+01   1.64497e-02 
   @RHF iter   2:   -88.26595551226967    1.09203e+00   5.56277e-03 DIIS
   @RHF iter   3:  -105.02338968674687   -1.67574e+01   8.88498e-03 DIIS
   @RHF iter   4:  -109.97839662299134   -4.95501e+00   6.25531e-03 DIIS
   @RHF iter   5:  -112.95704141791580   -2.97864e+00   3.93717e-03 DIIS
   @RHF iter   6:  -114.84711540586730   -1.89007e+00   1.18457e-03 DIIS
   @RHF iter   7:  -115.06970749848480   -2.22592e-01   3.79379e-04 DIIS
   @RHF iter   8:  -115.09052764872243   -2.08202e-02   9.00146e-05 DIIS
   @RHF iter   9:  -115.09146481721535   -9.37168e-04   1.01689e-05 DIIS
   @RHF iter  10:  -115.09149571081153   -3.08936e-05   1.79656e-06 DIIS
   @RHF iter  11:  -115.09149693640904   -1.22560e-06   4.27308e-07 DIIS
   @RHF iter  12:  -115.09149701147916   -7.50701e-08   9.52126e-08 DIIS
   @RHF iter  13:  -115.09149701574361   -4.26445e-09   1.98127e-08 DIIS
   @RHF iter  14:  -115.09149701590192   -1.58309e-10   5.34503e-09 DIIS

  ==> Post-Iterations <==

	Orbital Energies (a.u.)
	-----------------------

	Doubly Occupied:                                                      

	   1A    -20.562072     2A    -11.270285     3A     -1.360481  
	   4A     -0.924077     5A     -0.691927     6A     -0.620837  
	   7A     -0.595968     8A     -0.504162     9A     -0.450826  

	Virtual:                                                              

	  10A      0.015944    11A      0.030366    12A      0.032402  
	  13A      0.041313    14A      0.047312    15A      0.048156  
	  16A      0.056687    17A      0.063958    18A      0.068805  
	  19A      0.075362    20A      0.081530    21A      0.092632  
	  22A      0.094969    23A      0.102055    24A      0.104634  
	  25A      0.109747    26A      0.116371    27A      0.122325  
	  28A      0.125538    29A      0.131915    30A      0.132426  
	  31A      0.138781    32A      0.140660    33A      0.146868  
	  34A      0.156313    35A      0.157311    36A      0.165631  
	  37A      0.170629    38A      0.176997    39A      0.187097  
	  40A      0.192951    41A      0.196048    42A      0.198931  
	  43A      0.209550    44A      0.220690    45A      0.224535  
	  46A      0.237695    47A      0.247011    48A      0.257648  
	  49A      0.259724    50A      0.267769    51A      0.282094  
	  52A      0.283590    53A      0.294878    54A      0.295133  
	  55A      0.298653    56A      0.300093    57A      0.307353  
	  58A      0.312787    59A      0.317200    60A      0.319142  
	  61A      0.322249    62A      0.330846    63A      0.338122  
	  64A      0.340784    65A      0.351124    66A      0.357073  
	  67A      0.360937    68A      0.366359    69A      0.368702  
	  70A      0.373835    71A      0.376544    72A      0.383423  
	  73A      0.383737    74A      0.389001    75A      0.390253  
	  76A      0.393717    77A      0.393962    78A      0.408491  
	  79A      0.414571    80A      0.419899    81A      0.420863  
	  82A      0.426493    83A      0.430071    84A      0.441845  
	  85A      0.444041    86A      0.456954    87A      0.460990  
	  88A      0.463052    89A      0.468642    90A      0.475480  
	  91A      0.482711    92A      0.492360    93A      0.501280  
	  94A      0.503453    95A      0.507090    96A      0.516930  
	  97A      0.519464    98A      0.529826    99A      0.542607  
	 100A      0.559100   101A      0.560191   102A      0.565830  
	 103A      0.570833   104A      0.574150   105A      0.581396  
	 106A      0.586793   107A      0.593453   108A      0.603369  
	 109A      0.609850   110A      0.625177   111A      0.627979  
	 112A      0.633457   113A      0.660391   114A      0.660826  
	 115A      0.672645   116A      0.676362   117A      0.679421  
	 118A      0.684414   119A      0.697682   120A      0.699926  
	 121A      0.701737   122A      0.720419   123A      0.721036  
	 124A      0.726340   125A      0.740262   126A      0.745184  
	 127A      0.754228   128A      0.755300   129A      0.764275  
	 130A      0.769931   131A      0.781871   132A      0.783081  
	 133A      0.784739   134A      0.792190   135A      0.797880  
	 136A      0.810010   137A      0.828671   138A      0.831308  
	 139A      0.847645   140A      0.857810   141A      0.864855  
	 142A      0.869752   143A      0.871406   144A      0.886802  
	 145A      0.896899   146A      0.899597   147A      0.911268  
	 148A      0.926619   149A      0.937773   150A      0.941633  
	 151A      0.949780   152A      0.964183   153A      0.973049  
	 154A      0.974967   155A      0.984062   156A      0.985534  
	 157A      0.994149   158A      1.003493   159A      1.012172  
	 160A      1.020123   161A      1.021237   162A      1.027480  
	 163A      1.040462   164A      1.057579   165A      1.060502  
	 166A      1.061657   167A      1.070069   168A      1.078673  
	 169A      1.083586   170A      1.083816   171A      1.088187  
	 172A      1.098685   173A      1.101629   174A      1.102996  
	 175A      1.107106   176A      1.122406   177A      1.122631  
	 178A      1.138170   179A      1.145155   180A      1.148911  
	 181A      1.156870   182A      1.164931   183A      1.180787  
	 184A      1.181826   185A      1.188330   186A      1.192114  
	 187A      1.207260   188A      1.210956   189A      1.215411  
	 190A      1.233422   191A      1.237615   192A      1.247357  
	 193A      1.264192   194A      1.265448   195A      1.265892  
	 196A      1.275352   197A      1.285498   198A      1.296694  
	 199A      1.297285   200A      1.303243   201A      1.305420  
	 202A      1.309996   203A      1.317090   204A      1.331952  
	 205A      1.340663   206A      1.344693   207A      1.351065  
	 208A      1.358058   209A      1.375765   210A      1.378917  
	 211A      1.392129   212A      1.409281   213A      1.415921  
	 214A      1.418486   215A      1.427188   216A      1.433479  
	 217A      1.459221   218A      1.469410   219A      1.471818  
	 220A      1.482113   221A      1.482517   222A      1.487161  
	 223A      1.493496   224A      1.507455   225A      1.515867  
	 226A      1.525048   227A      1.531226   228A      1.541439  
	 229A      1.557947   230A      1.559895   231A      1.568599  
	 232A      1.584104   233A      1.595239   234A      1.613806  
	 235A      1.618318   236A      1.632033   237A      1.640191  
	 238A      1.640850   239A      1.655597   240A      1.661587  
	 241A      1.675448   242A      1.681104   243A      1.688916  
	 244A      1.699574   245A      1.711326   246A      1.712584  
	 247A      1.722393   248A      1.727998   249A      1.734547  
	 250A      1.750544   251A      1.766881   252A      1.777719  
	 253A      1.783000   254A      1.785580   255A      1.809983  
	 256A      1.828670   257A      1.831051   258A      1.846116  
	 259A      1.873417   260A      1.884654   261A      1.896708  
	 262A      1.903920   263A      1.909583   264A      1.912721  
	 265A      1.947828   266A      1.970733   267A      1.984126  
	 268A      1.985524   269A      2.001239   270A      2.011454  
	 271A      2.015586   272A      2.023616   273A      2.029980  
	 274A      2.062208   275A      2.065639   276A      2.091575  
	 277A      2.101123   278A      2.126295   279A      2.143107  
	 280A      2.146207   281A      2.147333   282A      2.190440  
	 283A      2.192971   284A      2.194432   285A      2.198378  
	 286A      2.217536   287A      2.226676   288A      2.229089  
	 289A      2.231764   290A      2.246531   291A      2.270409  
	 292A      2.278657   293A      2.284332   294A      2.298331  
	 295A      2.307472   296A      2.327426   297A      2.343651  
	 298A      2.348686   299A      2.352640   300A      2.367931  
	 301A      2.371351   302A      2.392632   303A      2.430770  
	 304A      2.439857   305A      2.442540   306A      2.454372  
	 307A      2.455439   308A      2.483330   309A      2.500481  
	 310A      2.520887   311A      2.542756   312A      2.555084  
	 313A      2.588544   314A      2.595685   315A      2.606548  
	 316A      2.617185   317A      2.632027   318A      2.643722  
	 319A      2.650822   320A      2.667748   321A      2.688297  
	 322A      2.704909   323A      2.720784   324A      2.730293  
	 325A      2.766455   326A      2.777221   327A      2.806452  
	 328A      2.814967   329A      2.827618   330A      2.843842  
	 331A      2.847195   332A      2.878583   333A      2.915745  
	 334A      2.917477   335A      2.966583   336A      2.967459  
	 337A      2.978390   338A      2.998362   339A      3.010944  
	 340A      3.031522   341A      3.041874   342A      3.084704  
	 343A      3.101799   344A      3.117439   345A      3.199821  
	 346A      3.240605   347A      3.275984   348A      3.280414  
	 349A      3.299627   350A      3.342149   351A      3.347857  
	 352A      3.375550   353A      3.417558   354A      3.448760  
	 355A      3.522861   356A      3.544401   357A      3.553072  
	 358A      3.593913   359A      3.613083   360A      3.618551  
	 361A      3.656624   362A      3.666939   363A      3.688091  
	 364A      3.726445   365A      3.807044   366A      3.813838  
	 367A      3.823950   368A      3.890485   369A      3.940349  
	 370A      3.951983   371A      3.965398   372A      3.968661  
	 373A      3.992288   374A      4.002370   375A      4.014284  
	 376A      4.026337   377A      4.032728   378A      4.038358  
	 379A      4.060845   380A      4.063018   381A      4.070357  
	 382A      4.077082   383A      4.096853   384A      4.098820  
	 385A      4.129264   386A      4.129942   387A      4.156478  
	 388A      4.160849   389A      4.169303   390A      4.186666  
	 391A      4.196081   392A      4.236837   393A      4.246837  
	 394A      4.260779   395A      4.271838   396A      4.275213  
	 397A      4.294041   398A      4.313403   399A      4.320153  
	 400A      4.328735   401A      4.368728   402A      4.381197  
	 403A      4.386603   404A      4.404714   405A      4.417007  
	 406A      4.424621   407A      4.450415   408A      4.498080  
	 409A      4.501824   410A      4.502007   411A      4.520009  
	 412A      4.538932   413A      4.565848   414A      4.575717  
	 415A      4.590442   416A      4.611675   417A      4.614903  
	 418A      4.638263   419A      4.644449   420A      4.644602  
	 421A      4.659675   422A      4.670018   423A      4.688444  
	 424A      4.737549   425A      4.773452   426A      4.784373  
	 427A      4.804893   428A      4.804992   429A      4.819304  
	 430A      4.841035   431A      4.861880   432A      4.866484  
	 433A      4.909271   434A      4.926314   435A      4.938672  
	 436A      4.972426   437A      4.978784   438A      5.012841  
	 439A      5.013700   440A      5.023543   441A      5.030024  
	 442A      5.047766   443A      5.050119   444A      5.052722  
	 445A      5.055917   446A      5.063036   447A      5.094909  
	 448A      5.096347   449A      5.128571   450A      5.164001  
	 451A      5.164693   452A      5.190363   453A      5.203630  
	 454A      5.219242   455A      5.227543   456A      5.231408  
	 457A      5.273249   458A      5.290820   459A      5.307486  
	 460A      5.322547   461A      5.335265   462A      5.379663  
	 463A      5.401951   464A      5.444260   465A      5.451854  
	 466A      5.467163   467A      5.471654   468A      5.486882  
	 469A      5.500831   470A      5.518926   471A      5.573213  
	 472A      5.588733   473A      5.626064   474A      5.638741  
	 475A      5.643675   476A      5.644663   477A      5.703009  
	 478A      5.705485   479A      5.706361   480A      5.746644  
	 481A      5.768665   482A      5.779556   483A      5.788290  
	 484A      5.791365   485A      5.822256   486A      5.837976  
	 487A      5.873760   488A      5.929313   489A      6.034158  
	 490A      6.043756   491A      6.052556   492A      6.058240  
	 493A      6.115618   494A      6.119747   495A      6.144675  
	 496A      6.152990   497A      6.180448   498A      6.210740  
	 499A      6.258152   500A      6.278287   501A      6.301272  
	 502A      6.374863   503A      6.378546   504A      6.386099  
	 505A      6.416991   506A      6.454028   507A      6.476421  
	 508A      6.591466   509A      6.677142   510A      6.689352  
	 511A      6.700723   512A      6.727581   513A      6.747120  
	 514A      6.762197   515A      6.779616   516A      6.894108  
	 517A      6.927956   518A      6.952171   519A      6.991468  
	 520A      6.995763   521A      7.011594   522A      7.021491  
	 523A      7.076055   524A      7.093891   525A      7.124313  
	 526A      7.141827   527A      7.194317   528A      7.414916  
	 529A      7.437882   530A      7.458022   531A      7.502917  
	 532A      7.536862   533A      7.539662   534A      7.595912  
	 535A      7.601279   536A      7.648766   537A      7.683140  
	 538A      7.708660   539A      7.715315   540A      7.836451  
	 541A      7.874715   542A      7.876204   543A      7.908866  
	 544A      8.080706   545A      8.142687   546A      8.160060  
	 547A      8.202026   548A      8.268337   549A      8.306721  
	 550A      8.376566   551A      8.393229   552A      8.737999  
	 553A      8.751279   554A      9.040075   555A      9.151705  
	 556A      9.216592   557A      9.364238   558A      9.554163  
	 559A      9.908276   560A     10.078399   561A     10.239968  
	 562A     10.760211   563A     11.221337   564A     11.392020  
	 565A     11.495965   566A     12.324087   567A     12.343627  
	 568A     17.042788   569A     18.189544   570A     50.288099  
	 571A     50.834147   572A     54.605457   573A     55.403511  
	 574A     55.888409   575A     62.078008  

	Final Occupation by Irrep:
	          A 
	DOCC [     9 ]

  Energy converged.

  @RHF Final Energy:  -115.09149701590192

   => Energetics <=

    Nuclear Repulsion Energy =             40.4219079943882846
    One-Electron Energy =                -237.0655541109802016
    Two-Electron Energy =                  81.5521491006900874
    DFT Exchange-Correlation Energy =       0.0000000000000000
    Empirical Dispersion Energy =           0.0000000000000000
    Total Energy =                       -115.0914970159018367



Properties will be evaluated at   0.000000,   0.000000,   0.000000 Bohr
  ==> Properties <==


Properties computed using the SCF density density matrix
  Nuclear Dipole Moment: (a.u.)
     X:   -98.2180      Y:   -16.2381      Z:     0.0376

  Electronic Dipole Moment: (a.u.)
     X:    98.6701      Y:    15.6876      Z:    -0.0389

  Dipole Moment: (a.u.)
     X:     0.4522      Y:    -0.5505      Z:    -0.0013     Total:     0.7124

  Dipole Moment: (Debye)
     X:     1.1493      Y:    -1.3992      Z:    -0.0034     Total:     1.8107


  Saving occupied orbitals to File 180.

  Saving SAPT 2-MONOMER_A file.

*** tstop() called on node117.bme.utexas.edu at Fri Feb 14 15:02:15 2014
Module time:
	user time   =     454.12 seconds =       7.57 minutes
	system time =       4.55 seconds =       0.08 minutes
	total time  =        120 seconds =       2.00 minutes
Total time:
	user time   =    1321.05 seconds =      22.02 minutes
	system time =      14.84 seconds =       0.25 minutes
	total time  =        351 seconds =       5.85 minutes

  //>>>>>>>>>>>>>>>>>>>>>>>>>>>>>>>>>>>//
  //            Monomer B HF           //
  //<<<<<<<<<<<<<<<<<<<<<<<<<<<<<<<<<<<//


  No DF_BASIS_SCF auxiliary basis selected, defaulting to aug-cc-pvtz-jkfit


*** tstart() called on node117.bme.utexas.edu
*** at Fri Feb 14 15:02:15 2014


         ---------------------------------------------------------
                                   SCF
            by Justin Turney, Rob Parrish, and Andy Simmonett
                              RHF Reference
                        4 Threads,   7000 MiB Core
         ---------------------------------------------------------

  ==> Geometry <==

    Molecular point group: c1
    Full point group: C1

    Geometry (in Angstrom), charge = 0, multiplicity = 1:

       Center              X                  Y                   Z       
    ------------   -----------------  -----------------  -----------------
           O(Gh)     -2.746684356432     0.265975110114     0.001332370056
           H(Gh)     -1.775430548432     0.300811170114    -0.000739359944
           C(Gh)     -3.096963813432    -1.100048164886     0.001099492056
           H(Gh)     -4.182424676432    -1.163535482886     0.004870065056
           H(Gh)     -2.733916268432    -1.627867995886    -0.885522868944
           H(Gh)     -2.727672908432    -1.629728982886     0.884033817056
           N         -0.215546514432     0.215186884114    -0.001569465944
           C          0.480821874568     0.190751553114    -1.146289069944
           H         -0.103656722432     0.213975088114    -2.057264507944
           C          1.870458937568     0.141008689114    -1.194974319944
           H          2.377811285568     0.123716657114    -2.148757043944
           C          2.580832165568     0.115296072114     0.000638707056
           H          3.661168168568     0.077531319114     0.001488002056
           C          1.868584713568     0.140317179114     1.195178560056
           H          2.374383447568     0.122492852114     2.149664252056
           C          0.479031070568     0.190066866114     1.144224475056
           H         -0.106974715432     0.212741293114     2.054343161056

  Running in c1 symmetry.

  Nuclear repulsion =  206.284267381200294

  Charge       = 0
  Multiplicity = 1
  Electrons    = 42
  Nalpha       = 21
  Nbeta        = 21

  ==> Algorithm <==

  SCF Algorithm Type is DF.
  DIIS enabled.
  MOM disabled.
  Fractional occupation disabled.
  Guess Type is CORE.
  Energy threshold   = 1.00e-08
  Density threshold  = 1.00e-08
  Integral threshold = 0.00e+00

  ==> Primary Basis <==

  Basis Set: AUG-CC-PVTZ
    Number of shells: 193
    Number of basis function: 575
    Number of Cartesian functions: 665
    Spherical Harmonics?: true
    Max angular momentum: 3

  ==> Pre-Iterations <==

   -------------------------------------------------------
    Irrep   Nso     Nmo     Nalpha   Nbeta   Ndocc  Nsocc
   -------------------------------------------------------
     A        575     575       0       0       0       0
   -------------------------------------------------------
    Total     575     575      21      21      21       0
   -------------------------------------------------------

 OEINTS: Wrapper to libmints.
   by Justin Turney

   Calculation information:
      Number of atoms:                  17
      Number of AO shells:             193
      Number of SO shells:             193
      Number of primitives:            339
      Number of atomic orbitals:       665
      Number of basis functions:       575

      Number of irreps:                  1
      Number of functions per irrep: [ 575 ]

      Overlap, kinetic, potential, dipole, and quadrupole integrals
        stored in file 35.

  ==> Integral Setup <==

  ==> DFJK: Density-Fitted J/K Matrices <==

    J tasked:                  Yes
    K tasked:                  Yes
    wK tasked:                  No
    OpenMP threads:              4
    Integrals threads:           4
    Memory (MB):              5006
    Algorithm:                Core
    Integral Cache:           LOAD
    Schwarz Cutoff:          0E+00
    Fitting Condition:       1E-12

   => Auxiliary Basis Set <=

  Basis Set: aug-cc-pvtz-jkfit
    Number of shells: 366
    Number of basis function: 1246
    Number of Cartesian functions: 1543
    Spherical Harmonics?: true
    Max angular momentum: 4

  Minimum eigenvalue in the overlap matrix is 1.8340986512E-06.
  Using Symmetric Orthogonalization.
  SCF Guess: Core (One-Electron) Hamiltonian.

  Guess energy:  -194.55533098209511

  ==> Iterations <==

                        Total Energy        Delta E     RMS |[F,P]|

   @RHF iter   1:  -191.89058561632268   -1.91891e+02   1.94354e-02 
   @RHF iter   2:  -177.68577336312430    1.42048e+01   1.09995e-02 DIIS
   @RHF iter   3:  -211.41488083344129   -3.37291e+01   1.23980e-02 DIIS
   @RHF iter   4:  -240.95238903775200   -2.95375e+01   4.66480e-03 DIIS
   @RHF iter   5:  -246.18103022285979   -5.22864e+00   1.80099e-03 DIIS
   @RHF iter   6:  -246.71677668118693   -5.35746e-01   5.61710e-04 DIIS
   @RHF iter   7:  -246.77365932580707   -5.68826e-02   1.27557e-04 DIIS
   @RHF iter   8:  -246.77759528964836   -3.93596e-03   4.96464e-05 DIIS
   @RHF iter   9:  -246.77857044938085   -9.75160e-04   2.55195e-05 DIIS
   @RHF iter  10:  -246.77880476902973   -2.34320e-04   1.02548e-05 DIIS
   @RHF iter  11:  -246.77888410269426   -7.93337e-05   4.39341e-06 DIIS
   @RHF iter  12:  -246.77889863465495   -1.45320e-05   1.83829e-06 DIIS
   @RHF iter  13:  -246.77890089859326   -2.26394e-06   6.86085e-07 DIIS
   @RHF iter  14:  -246.77890109641484   -1.97822e-07   2.54763e-07 DIIS
   @RHF iter  15:  -246.77890111926112   -2.28463e-08   4.96911e-08 DIIS
   @RHF iter  16:  -246.77890112020000   -9.38883e-10   1.32181e-08 DIIS
   @RHF iter  17:  -246.77890112026469   -6.46878e-11   4.90594e-09 DIIS

  ==> Post-Iterations <==

	Orbital Energies (a.u.)
	-----------------------

	Doubly Occupied:                                                      

	   1A    -15.566648     2A    -11.275249     3A    -11.275231  
	   4A    -11.260443     5A    -11.242465     6A    -11.242413  
	   7A     -1.256591     8A     -1.089678     9A     -1.034753  
	  10A     -0.859644    11A     -0.856459    12A     -0.722518  
	  13A     -0.660902    14A     -0.654818    15A     -0.599760  
	  16A     -0.577235    17A     -0.541423    18A     -0.521074  
	  19A     -0.418478    20A     -0.383782    21A     -0.348571  

	Virtual:                                                              

	  22A      0.025286    23A      0.031725    24A      0.032858  
	  25A      0.044297    26A      0.047770    27A      0.049882  
	  28A      0.059786    29A      0.066947    30A      0.078875  
	  31A      0.083768    32A      0.089841    33A      0.096014  
	  34A      0.100226    35A      0.103917    36A      0.112913  
	  37A      0.114989    38A      0.115101    39A      0.122119  
	  40A      0.124097    41A      0.125815    42A      0.128256  
	  43A      0.136555    44A      0.138051    45A      0.144599  
	  46A      0.152450    47A      0.152740    48A      0.153888  
	  49A      0.164646    50A      0.165344    51A      0.174523  
	  52A      0.185160    53A      0.191654    54A      0.223612  
	  55A      0.225439    56A      0.237760    57A      0.242615  
	  58A      0.243367    59A      0.246758    60A      0.258504  
	  61A      0.261181    62A      0.264429    63A      0.271673  
	  64A      0.272616    65A      0.293486    66A      0.294549  
	  67A      0.296376    68A      0.301515    69A      0.303028  
	  70A      0.306616    71A      0.308694    72A      0.315198  
	  73A      0.321568    74A      0.322690    75A      0.331153  
	  76A      0.333212    77A      0.340241    78A      0.344725  
	  79A      0.349675    80A      0.353012    81A      0.356292  
	  82A      0.370839    83A      0.370883    84A      0.381158  
	  85A      0.386724    86A      0.388838    87A      0.397350  
	  88A      0.405198    89A      0.422142    90A      0.425750  
	  91A      0.434102    92A      0.435918    93A      0.437757  
	  94A      0.439644    95A      0.447696    96A      0.459178  
	  97A      0.459459    98A      0.464210    99A      0.472498  
	 100A      0.476956   101A      0.480990   102A      0.488052  
	 103A      0.490747   104A      0.492955   105A      0.497623  
	 106A      0.498882   107A      0.504206   108A      0.507937  
	 109A      0.525520   110A      0.526806   111A      0.532695  
	 112A      0.537638   113A      0.538761   114A      0.544942  
	 115A      0.549922   116A      0.552880   117A      0.555752  
	 118A      0.561230   119A      0.575283   120A      0.583996  
	 121A      0.596962   122A      0.609065   123A      0.612084  
	 124A      0.624452   125A      0.630736   126A      0.639108  
	 127A      0.640841   128A      0.649597   129A      0.650234  
	 130A      0.661803   131A      0.675781   132A      0.685234  
	 133A      0.691172   134A      0.692356   135A      0.709202  
	 136A      0.715714   137A      0.725235   138A      0.733638  
	 139A      0.734269   140A      0.737827   141A      0.763147  
	 142A      0.768067   143A      0.771836   144A      0.792985  
	 145A      0.808836   146A      0.817144   147A      0.822198  
	 148A      0.825070   149A      0.826377   150A      0.833015  
	 151A      0.851295   152A      0.862843   153A      0.875905  
	 154A      0.879359   155A      0.887056   156A      0.888130  
	 157A      0.899768   158A      0.903173   159A      0.915740  
	 160A      0.927139   161A      0.934050   162A      0.936003  
	 163A      0.938569   164A      0.944951   165A      0.958404  
	 166A      0.965413   167A      0.974955   168A      0.978519  
	 169A      0.984814   170A      0.990804   171A      0.996310  
	 172A      0.999482   173A      1.012593   174A      1.014047  
	 175A      1.021480   176A      1.025809   177A      1.027647  
	 178A      1.033994   179A      1.035952   180A      1.049147  
	 181A      1.056814   182A      1.057901   183A      1.064467  
	 184A      1.071928   185A      1.078199   186A      1.079352  
	 187A      1.085141   188A      1.096289   189A      1.096404  
	 190A      1.102743   191A      1.102883   192A      1.118926  
	 193A      1.122745   194A      1.138201   195A      1.139685  
	 196A      1.161115   197A      1.167136   198A      1.175329  
	 199A      1.179052   200A      1.183594   201A      1.188451  
	 202A      1.191378   203A      1.192564   204A      1.195520  
	 205A      1.196421   206A      1.206285   207A      1.210912  
	 208A      1.213195   209A      1.217357   210A      1.222742  
	 211A      1.239128   212A      1.242072   213A      1.244477  
	 214A      1.259119   215A      1.266666   216A      1.271178  
	 217A      1.275894   218A      1.285770   219A      1.290492  
	 220A      1.294447   221A      1.295546   222A      1.307444  
	 223A      1.335994   224A      1.340273   225A      1.348959  
	 226A      1.363640   227A      1.375112   228A      1.386362  
	 229A      1.396731   230A      1.407360   231A      1.414225  
	 232A      1.420655   233A      1.445730   234A      1.449967  
	 235A      1.454087   236A      1.473786   237A      1.498268  
	 238A      1.502384   239A      1.507511   240A      1.508724  
	 241A      1.519743   242A      1.526262   243A      1.528822  
	 244A      1.544670   245A      1.553460   246A      1.568542  
	 247A      1.576418   248A      1.594059   249A      1.612171  
	 250A      1.630523   251A      1.637813   252A      1.649449  
	 253A      1.659717   254A      1.695832   255A      1.710615  
	 256A      1.711886   257A      1.714698   258A      1.725608  
	 259A      1.726703   260A      1.736122   261A      1.750084  
	 262A      1.754776   263A      1.767009   264A      1.799485  
	 265A      1.809306   266A      1.819208   267A      1.820052  
	 268A      1.833298   269A      1.839528   270A      1.861394  
	 271A      1.861892   272A      1.871920   273A      1.878455  
	 274A      1.881318   275A      1.898531   276A      1.901541  
	 277A      1.923473   278A      1.936626   279A      1.937852  
	 280A      1.958481   281A      1.969798   282A      1.975385  
	 283A      1.979720   284A      1.995189   285A      2.023778  
	 286A      2.033933   287A      2.034617   288A      2.042017  
	 289A      2.049275   290A      2.053439   291A      2.058577  
	 292A      2.073581   293A      2.081572   294A      2.094734  
	 295A      2.109858   296A      2.110360   297A      2.121789  
	 298A      2.155995   299A      2.158579   300A      2.161718  
	 301A      2.179208   302A      2.200133   303A      2.200524  
	 304A      2.223445   305A      2.233839   306A      2.239440  
	 307A      2.255812   308A      2.259220   309A      2.277922  
	 310A      2.283441   311A      2.303659   312A      2.325622  
	 313A      2.346811   314A      2.368096   315A      2.374817  
	 316A      2.383050   317A      2.394042   318A      2.431972  
	 319A      2.435324   320A      2.460576   321A      2.462491  
	 322A      2.474561   323A      2.489072   324A      2.507682  
	 325A      2.535042   326A      2.539610   327A      2.568964  
	 328A      2.578507   329A      2.581499   330A      2.618420  
	 331A      2.636002   332A      2.682749   333A      2.716258  
	 334A      2.730769   335A      2.744492   336A      2.770585  
	 337A      2.788228   338A      2.808723   339A      2.835715  
	 340A      2.841984   341A      2.859923   342A      2.869813  
	 343A      2.902321   344A      2.932019   345A      2.954957  
	 346A      2.979769   347A      2.982348   348A      3.009178  
	 349A      3.017494   350A      3.035430   351A      3.082596  
	 352A      3.111868   353A      3.118534   354A      3.132209  
	 355A      3.170025   356A      3.181509   357A      3.196099  
	 358A      3.207577   359A      3.271216   360A      3.285972  
	 361A      3.322634   362A      3.340030   363A      3.372951  
	 364A      3.378754   365A      3.383171   366A      3.390689  
	 367A      3.407437   368A      3.431470   369A      3.447033  
	 370A      3.465820   371A      3.483640   372A      3.489922  
	 373A      3.506884   374A      3.519240   375A      3.527100  
	 376A      3.527173   377A      3.540952   378A      3.568394  
	 379A      3.578931   380A      3.579387   381A      3.595244  
	 382A      3.618321   383A      3.630015   384A      3.683196  
	 385A      3.691904   386A      3.713219   387A      3.727285  
	 388A      3.737763   389A      3.779809   390A      3.792811  
	 391A      3.813255   392A      3.813696   393A      3.821868  
	 394A      3.827311   395A      3.849503   396A      3.854713  
	 397A      3.877068   398A      3.903583   399A      3.906683  
	 400A      3.914670   401A      3.918928   402A      3.959863  
	 403A      3.960885   404A      3.968217   405A      3.999922  
	 406A      4.020695   407A      4.043241   408A      4.048587  
	 409A      4.056682   410A      4.086118   411A      4.099791  
	 412A      4.107102   413A      4.116465   414A      4.138681  
	 415A      4.147546   416A      4.162214   417A      4.181468  
	 418A      4.189000   419A      4.190549   420A      4.211618  
	 421A      4.226447   422A      4.240905   423A      4.250974  
	 424A      4.256492   425A      4.263163   426A      4.265939  
	 427A      4.270871   428A      4.304195   429A      4.311012  
	 430A      4.345481   431A      4.354644   432A      4.369310  
	 433A      4.383396   434A      4.413661   435A      4.429489  
	 436A      4.459384   437A      4.476944   438A      4.480914  
	 439A      4.484030   440A      4.509580   441A      4.512628  
	 442A      4.539672   443A      4.562521   444A      4.568835  
	 445A      4.573616   446A      4.581568   447A      4.597208  
	 448A      4.616383   449A      4.619320   450A      4.700615  
	 451A      4.704287   452A      4.721214   453A      4.742096  
	 454A      4.752499   455A      4.766893   456A      4.782674  
	 457A      4.791254   458A      4.840173   459A      4.857798  
	 460A      4.881946   461A      4.886737   462A      4.903678  
	 463A      4.905895   464A      4.920864   465A      4.935820  
	 466A      4.957388   467A      4.986877   468A      5.000915  
	 469A      5.035629   470A      5.049695   471A      5.060211  
	 472A      5.066565   473A      5.075955   474A      5.103361  
	 475A      5.114767   476A      5.124764   477A      5.140588  
	 478A      5.148944   479A      5.184946   480A      5.200787  
	 481A      5.213006   482A      5.226712   483A      5.255496  
	 484A      5.300888   485A      5.307105   486A      5.308805  
	 487A      5.320372   488A      5.365554   489A      5.381768  
	 490A      5.392370   491A      5.420570   492A      5.426859  
	 493A      5.453825   494A      5.468573   495A      5.489769  
	 496A      5.503280   497A      5.528120   498A      5.529670  
	 499A      5.550524   500A      5.594826   501A      5.598851  
	 502A      5.637169   503A      5.659119   504A      5.687901  
	 505A      5.702402   506A      5.781627   507A      5.809871  
	 508A      5.832038   509A      5.849638   510A      5.850874  
	 511A      5.867490   512A      5.896057   513A      5.910825  
	 514A      5.940181   515A      5.967564   516A      6.008787  
	 517A      6.031490   518A      6.052106   519A      6.091506  
	 520A      6.123325   521A      6.159662   522A      6.221986  
	 523A      6.237260   524A      6.265007   525A      6.272150  
	 526A      6.282800   527A      6.390713   528A      6.410783  
	 529A      6.521028   530A      6.530996   531A      6.591211  
	 532A      6.689048   533A      6.708465   534A      6.740528  
	 535A      6.773788   536A      6.785212   537A      6.854458  
	 538A      6.879522   539A      6.936686   540A      7.092082  
	 541A      7.151911   542A      7.173343   543A      7.358322  
	 544A      7.430817   545A      7.517354   546A      7.754185  
	 547A      7.782842   548A      7.866990   549A      7.958643  
	 550A      7.986951   551A      8.134506   552A      8.172008  
	 553A      8.241411   554A      8.329466   555A      8.590543  
	 556A      8.744782   557A      9.139521   558A      9.984162  
	 559A     10.181699   560A     10.482146   561A     10.515209  
	 562A     10.705209   563A     11.137484   564A     12.155788  
	 565A     12.704326   566A     13.277616   567A     14.444696  
	 568A     15.867033   569A     16.381965   570A     18.839400  
	 571A     19.284447   572A     19.583644   573A     19.653358  
	 574A     53.187868   575A     68.149347  

	Final Occupation by Irrep:
	          A 
	DOCC [    21 ]

  Energy converged.

  @RHF Final Energy:  -246.77890112026469

   => Energetics <=

    Nuclear Repulsion Energy =            206.2842673812002943
    One-Electron Energy =                -741.3500694574504450
    Two-Electron Energy =                 288.2869009559863116
    DFT Exchange-Correlation Energy =       0.0000000000000000
    Empirical Dispersion Energy =           0.0000000000000000
    Total Energy =                       -246.7789011202638676



Properties will be evaluated at   0.000000,   0.000000,   0.000000 Bohr
  ==> Properties <==


Properties computed using the SCF density density matrix
  Nuclear Dipole Moment: (a.u.)
     X:    95.1898      Y:    13.0796      Z:    -0.0356

  Electronic Dipole Moment: (a.u.)
     X:   -94.2800      Y:   -13.1106      Z:     0.0363

  Dipole Moment: (a.u.)
     X:     0.9098      Y:    -0.0310      Z:     0.0007     Total:     0.9104

  Dipole Moment: (Debye)
     X:     2.3126      Y:    -0.0788      Z:     0.0018     Total:     2.3139


  Saving occupied orbitals to File 180.

  Saving SAPT 2-MONOMER_B file.

*** tstop() called on node117.bme.utexas.edu at Fri Feb 14 15:04:52 2014
Module time:
	user time   =     590.27 seconds =       9.84 minutes
	system time =       5.79 seconds =       0.10 minutes
	total time  =        157 seconds =       2.62 minutes
Total time:
	user time   =    1911.35 seconds =      31.86 minutes
	system time =      20.63 seconds =       0.34 minutes
	total time  =        508 seconds =       8.47 minutes
  No DF_BASIS_SAPT auxiliary basis selected, defaulting to aug-cc-pvtz-ri

  //>>>>>>>>>>>>>>>>>>>>>>>>>>>>>>>>>>>//
  //               SAPT2+              //
  //<<<<<<<<<<<<<<<<<<<<<<<<<<<<<<<<<<<//


*** tstart() called on node117.bme.utexas.edu
*** at Fri Feb 14 15:04:52 2014

        SAPT2+  
    Ed Hohenstein
     6 June 2009

      Orbital Information
  --------------------------
    NSO        =       575
    NMO        =       575
    NRI        =      1262
    NOCC A     =         9
    NOCC B     =        21
    FOCC A     =         2
    FOCC B     =         6
    NVIR A     =       566
    NVIR B     =       554

    Estimated memory usage: 6625.0 MB

    Elst10,r            =    -0.040681558839 H
    Exch10 (S^2)        =     0.061643251882 H
    Exch10              =     0.063993957041 H
    Ind20,r (A<-B)      =    -0.010161098722 H
    Ind20,r (B<-A)      =    -0.022564001243 H
    Ind20,r             =    -0.032725099965 H
    Exch-Ind20,r (A<-B) =     0.008094735769 H
    Exch-Ind20,r (B<-A) =     0.013062298464 H
    Exch-Ind20,r        =     0.021157034233 H
    Disp20              =    -0.017839390847 H
    Exch-Disp20         =     0.004041100944 H
    Elst12,r            =    -0.001230498584 H
    Exch11              =     0.001031323830 H
    Exch12              =     0.004475967271 H
    Ind22               =    -0.004336624155 H
    Disp21              =     0.002196113526 H
    Disp22 (SDQ)        =    -0.000256175863 H

    (i =   1 of  15)       1926 seconds
    (i =   2 of  15)       3854 seconds
    (i =   3 of  15)       5781 seconds
    (i =   4 of  15)       7709 seconds
    (i =   5 of  15)       9636 seconds
    (i =   6 of  15)      11564 seconds
    (i =   7 of  15)      13490 seconds
    (i =   8 of  15)      15416 seconds
    (i =   9 of  15)      17342 seconds
    (i =  10 of  15)      19269 seconds
    (i =  11 of  15)      21197 seconds
    (i =  12 of  15)      23126 seconds
    (i =  13 of  15)      25053 seconds
    (i =  14 of  15)      26981 seconds
    (i =  15 of  15)      28908 seconds

    Disp220 (T)         =    -0.001567225384 H

    (i =   1 of   7)       7303 seconds
    (i =   2 of   7)      14602 seconds
    (i =   3 of   7)      21909 seconds
    (i =   4 of   7)      29213 seconds
    (i =   5 of   7)      36517 seconds
    (i =   6 of   7)      43819 seconds
    (i =   7 of   7)      51119 seconds

    Disp202 (T)         =    -0.001617468551 H

    Disp22 (T)          =    -0.003184693935 H

    SAPT Results  
  -----------------------------------------------------------------------
    Electrostatics         -41.91205742 mH     -26.30021420 kcal mol^-1
      Elst10,r             -40.68155884 mH     -25.52806465 kcal mol^-1
      Elst12,r              -1.23049858 mH      -0.77214955 kcal mol^-1

    Exchange                69.50124814 mH      43.61269347 kcal mol^-1
      Exch10                63.99395704 mH      40.15681599 kcal mol^-1
      Exch10(S^2)           61.64325188 mH      38.68172617 kcal mol^-1
      Exch11(S^2)            1.03132383 mH       0.64716550 kcal mol^-1
      Exch12(S^2)            4.47596727 mH       2.80871198 kcal mol^-1

    Induction              -21.60965770 mH     -13.56026550 kcal mol^-1
      Ind20,r              -32.72509996 mH     -20.53531112 kcal mol^-1
      Ind22                 -4.33662416 mH      -2.72127286 kcal mol^-1
      Exch-Ind20,r          21.15703423 mH      13.27623997 kcal mol^-1
      Exch-Ind22             2.80366159 mH       1.75932428 kcal mol^-1
      delta HF,r (2)        -8.50862940 mH      -5.33924578 kcal mol^-1

    Dispersion             -15.04304617 mH      -9.43965438 kcal mol^-1
      Disp20               -17.83939085 mH     -11.19438723 kcal mol^-1
      Disp21                 2.19611353 mH       1.37808210 kcal mol^-1
      Disp22 (SDQ)          -0.25617586 mH      -0.16075279 kcal mol^-1
      Disp22 (T)            -3.18469393 mH      -1.99842570 kcal mol^-1
      Exch-Disp20            4.04110094 mH       2.53582923 kcal mol^-1

    Total HF                 3.23570307 mH       2.03043442 kcal mol^-1
    Total SAPT0            -10.56258683 mH      -6.62812358 kcal mol^-1
    Total SAPT2             -7.81875688 mH      -4.90634422 kcal mol^-1
    Total SAPT2+            -9.06351315 mH      -5.68744061 kcal mol^-1

*** tstop() called on node117.bme.utexas.edu at Sat Feb 15 18:50:05 2014
Module time:
	user time   =  345685.27 seconds =    5761.42 minutes
	system time =     556.67 seconds =       9.28 minutes
	total time  =      99913 seconds =    1665.22 minutes
Total time:
	user time   =  347596.63 seconds =    5793.28 minutes
	system time =     577.30 seconds =       9.62 minutes
	total time  =     100421 seconds =    1673.68 minutes

*** PSI4 exiting successfully. Buy a developer a beer!
