    -----------------------------------------------------------------------
          PSI4: An Open-Source Ab Initio Electronic Structure Package
                              PSI 4.0.0-beta4 Driver

    J. M. Turney, A. C. Simmonett, R. M. Parrish, E. G. Hohenstein,
    F. A. Evangelista, J. T. Fermann, B. J. Mintz, L. A. Burns, J. J. Wilke,
    M. L. Abrams, N. J. Russ, M. L. Leininger, C. L. Janssen, E. T. Seidl,
    W. D. Allen, H. F. Schaefer, R. A. King, E. F. Valeev, C. D. Sherrill,
    and T. D. Crawford, WIREs Comput. Mol. Sci., (2011) (doi: 10.1002/wcms.93)

                         Additional Contributions by
    A. E. DePrince, M. Saitow, U. Bozkaya, A. Yu. Sokolov
    -----------------------------------------------------------------------

    Process ID:   5095
    PSI4DATADIR: /home/xzhu216/psi4/psi4-install/share/psi

    Using LocalCommunicator (Number of processes = 1)

    Memory level set to 256.000 MB

  ==> Input File <==

--------------------------------------------------------------------------
#psi4
#
memory 20 gb

molecule AcOH_AcOH {
0 1
C   -1.061709204   1.297140572   0.292060003
O   -0.358161116   2.270458613   0.531812668
O   -0.589303516   0.094917758   0.003788813
H    0.404435659   0.127722621   0.018411838
C   -2.558427798   1.342549823   0.296257320
H   -2.895997978   2.347464002   0.518316340
H   -2.932889278   1.022390451  -0.672995551
H   -2.937211960   0.644910433   1.039557084
--
0 1
C    2.630513912   1.107716378   0.269968222
O    1.926895547   0.134401890   0.030180620
O    2.158087578   2.310151766   0.557746693
H    1.164299038   2.277253532   0.543346189
C    4.127226360   1.061813632   0.268003827
H    4.464805924   0.060494439   0.030478332
H    4.508724905   1.772166571  -0.461465071
H    4.498742671   1.364508149   1.244059188
units angstrom
no_reorient  #important for SAPT in psi4, default
symmetry c1  #important for SAPT in psi4, default
}

set {
basis aug-cc-pVTZ
scf_type DF
freeze_core True
}
energy('sapt2+')
--------------------------------------------------------------------------

  Memory set to  20.000 GiB by Python script.

  //>>>>>>>>>>>>>>>>>>>>>>>>>>>>>>>>>>>//
  //              Dimer HF             //
  //<<<<<<<<<<<<<<<<<<<<<<<<<<<<<<<<<<<//


  No DF_BASIS_SCF auxiliary basis selected, defaulting to aug-cc-pvtz-jkfit


*** tstart() called on node31.bme.utexas.edu
*** at Fri Oct  4 10:32:46 2013


         ---------------------------------------------------------
                                   SCF
            by Justin Turney, Rob Parrish, and Andy Simmonett
                              RHF Reference
                        8 Threads,  20000 MiB Core
         ---------------------------------------------------------

  ==> Geometry <==

    Molecular point group: c1
    Full point group: C1

    Geometry (in Angstrom), charge = 0, multiplicity = 1:

       Center              X                  Y                   Z       
    ------------   -----------------  -----------------  -----------------
           C         -1.846096227289     0.094753768237     0.010795633337
           O         -1.142548139289     1.068071809237     0.250548298337
           O         -1.373690539289    -1.107469045763    -0.277475556663
           H         -0.379951364289    -1.074664182763    -0.262852531663
           C         -3.342814821289     0.140163019237     0.014992950337
           H         -3.680385001289     1.145077198237     0.237051970337
           H         -3.717276301289    -0.179996352763    -0.954259920663
           H         -3.721598983289    -0.557476370763     0.758292714337
           C          1.846126888711    -0.094670425763    -0.011296147663
           O          1.142508523711    -1.067984913763    -0.251083749663
           O          1.373700554711     1.107764962237     0.276482323337
           H          0.379912014711     1.074866728237     0.262081819337
           C          3.342839336711    -0.140573171763    -0.013260542663
           H          3.680418900711    -1.141892364763    -0.250786037663
           H          3.724337881711     0.569779767237    -0.742729440663
           H          3.714355647711     0.162121345237     0.962794818337

  Running in c1 symmetry.

  Nuclear repulsion =  387.585107006535736

  Charge       = 0
  Multiplicity = 1
  Electrons    = 64
  Nalpha       = 32
  Nbeta        = 32

  ==> Algorithm <==

  SCF Algorithm Type is DF.
  DIIS enabled.
  MOM disabled.
  Fractional occupation disabled.
  Guess Type is CORE.
  Energy threshold   = 1.00e-08
  Density threshold  = 1.00e-08
  Integral threshold = 0.00e+00

  ==> Primary Basis <==

  Basis Set: AUG-CC-PVTZ
    Number of shells: 184
    Number of basis function: 552
    Number of Cartesian functions: 640
    Spherical Harmonics?: true
    Max angular momentum: 3

  ==> Pre-Iterations <==

   -------------------------------------------------------
    Irrep   Nso     Nmo     Nalpha   Nbeta   Ndocc  Nsocc
   -------------------------------------------------------
     A        552     552       0       0       0       0
   -------------------------------------------------------
    Total     552     552      32      32      32       0
   -------------------------------------------------------

 OEINTS: Wrapper to libmints.
   by Justin Turney

   Calculation information:
      Number of atoms:                  16
      Number of AO shells:             184
      Number of SO shells:             184
      Number of primitives:            328
      Number of atomic orbitals:       640
      Number of basis functions:       552

      Number of irreps:                  1
      Number of functions per irrep: [ 552 ]

      Overlap, kinetic, potential, dipole, and quadrupole integrals
        stored in file 35.

  ==> Integral Setup <==

  ==> DFJK: Density-Fitted J/K Matrices <==

    J tasked:                  Yes
    K tasked:                  Yes
    wK tasked:                  No
    OpenMP threads:              8
    Integrals threads:           8
    Memory (MB):             14305
    Algorithm:                Core
    Integral Cache:           SAVE
    Schwarz Cutoff:          0E+00
    Fitting Condition:       1E-12

   => Auxiliary Basis Set <=

  Basis Set: aug-cc-pvtz-jkfit
    Number of shells: 352
    Number of basis function: 1200
    Number of Cartesian functions: 1488
    Spherical Harmonics?: true
    Max angular momentum: 4

  Minimum eigenvalue in the overlap matrix is 6.2142667109E-06.
  Using Symmetric Orthogonalization.
  SCF Guess: Core (One-Electron) Hamiltonian.

  Guess energy:  -376.97122292583822

  ==> Iterations <==

                        Total Energy        Delta E     RMS |[F,P]|

   @RHF iter   1:  -339.25789072970292   -3.39258e+02   3.36033e-02 
   @RHF iter   2:  -274.63815084528392    6.46197e+01   1.98678e-02 DIIS
   @RHF iter   3:  -389.07145541024488   -1.14433e+02   1.58123e-02 DIIS
   @RHF iter   4:  -445.54267081932778   -5.64712e+01   7.67306e-03 DIIS
   @RHF iter   5:  -455.04388877253371   -9.50122e+00   2.28073e-03 DIIS
   @RHF iter   6:  -455.63958823608709   -5.95699e-01   1.13325e-03 DIIS
   @RHF iter   7:  -455.77990196503742   -1.40314e-01   4.86050e-04 DIIS
   @RHF iter   8:  -455.82548660667953   -4.55846e-02   5.85026e-05 DIIS
   @RHF iter   9:  -455.82636917288244   -8.82566e-04   1.59035e-05 DIIS
   @RHF iter  10:  -455.82644255245668   -7.33796e-05   6.40076e-06 DIIS
   @RHF iter  11:  -455.82645042028548   -7.86783e-06   2.98556e-06 DIIS
   @RHF iter  12:  -455.82645193469239   -1.51441e-06   5.77862e-07 DIIS
   @RHF iter  13:  -455.82645203432742   -9.96350e-08   1.51942e-07 DIIS
   @RHF iter  14:  -455.82645204157438   -7.24697e-09   4.07652e-08 DIIS
   @RHF iter  15:  -455.82645204210758   -5.33191e-10   1.15691e-08 DIIS
   @RHF iter  16:  -455.82645204215544   -4.78622e-11   3.48838e-09 DIIS

  ==> Post-Iterations <==

	Orbital Energies (a.u.)
	-----------------------

	Doubly Occupied:                                                      

	   1A    -20.590276     2A    -20.590270     3A    -20.560241  
	   4A    -20.560228     5A    -11.398154     6A    -11.398135  
	   7A    -11.243693     8A    -11.243688     9A     -1.475060  
	  10A     -1.455408    11A     -1.375779    12A     -1.353582  
	  13A     -1.036542    14A     -1.024884    15A     -0.845176  
	  16A     -0.815044    17A     -0.758449    18A     -0.697046  
	  19A     -0.683016    20A     -0.673180    21A     -0.656392  
	  22A     -0.647340    23A     -0.592629    24A     -0.582196  
	  25A     -0.573036    26A     -0.561405    27A     -0.555724  
	  28A     -0.555167    29A     -0.496737    30A     -0.480228  
	  31A     -0.475381    32A     -0.454757  

	Virtual:                                                              

	  33A      0.028886    34A      0.031415    35A      0.043771  
	  36A      0.045646    37A      0.050817    38A      0.052394  
	  39A      0.055163    40A      0.077429    41A      0.086639  
	  42A      0.099378    43A      0.101549    44A      0.119382  
	  45A      0.120752    46A      0.121177    47A      0.130178  
	  48A      0.131098    49A      0.136280    50A      0.141235  
	  51A      0.142142    52A      0.147766    53A      0.148872  
	  54A      0.158301    55A      0.167573    56A      0.178285  
	  57A      0.183061    58A      0.191283    59A      0.196872  
	  60A      0.199108    61A      0.209748    62A      0.210036  
	  63A      0.233753    64A      0.235621    65A      0.238178  
	  66A      0.238887    67A      0.251273    68A      0.258045  
	  69A      0.265774    70A      0.279549    71A      0.287899  
	  72A      0.288314    73A      0.294730    74A      0.313819  
	  75A      0.318208    76A      0.326451    77A      0.327074  
	  78A      0.329264    79A      0.333374    80A      0.333772  
	  81A      0.346065    82A      0.349184    83A      0.351141  
	  84A      0.361315    85A      0.364482    86A      0.366950  
	  87A      0.376654    88A      0.378986    89A      0.387817  
	  90A      0.389476    91A      0.406507    92A      0.408517  
	  93A      0.420850    94A      0.427106    95A      0.428762  
	  96A      0.429957    97A      0.430461    98A      0.442635  
	  99A      0.448527   100A      0.456331   101A      0.465839  
	 102A      0.474039   103A      0.476004   104A      0.476440  
	 105A      0.476976   106A      0.489583   107A      0.489859  
	 108A      0.493731   109A      0.508330   110A      0.509132  
	 111A      0.515340   112A      0.518035   113A      0.527918  
	 114A      0.546673   115A      0.549883   116A      0.550690  
	 117A      0.551795   118A      0.562910   119A      0.565513  
	 120A      0.579532   121A      0.580150   122A      0.588566  
	 123A      0.590437   124A      0.600930   125A      0.622397  
	 126A      0.626037   127A      0.638327   128A      0.657126  
	 129A      0.673529   130A      0.684763   131A      0.695726  
	 132A      0.718306   133A      0.723875   134A      0.740842  
	 135A      0.762622   136A      0.768745   137A      0.772144  
	 138A      0.780781   139A      0.784591   140A      0.790711  
	 141A      0.792264   142A      0.797938   143A      0.810751  
	 144A      0.812085   145A      0.813709   146A      0.826682  
	 147A      0.827358   148A      0.829732   149A      0.833711  
	 150A      0.854894   151A      0.864654   152A      0.869485  
	 153A      0.872073   154A      0.890256   155A      0.901360  
	 156A      0.904592   157A      0.909710   158A      0.911809  
	 159A      0.915430   160A      0.920614   161A      0.921472  
	 162A      0.931185   163A      0.938077   164A      0.946882  
	 165A      0.963094   166A      0.978391   167A      0.980581  
	 168A      0.983893   169A      0.992136   170A      0.992901  
	 171A      1.008458   172A      1.014988   173A      1.017453  
	 174A      1.022153   175A      1.036911   176A      1.038541  
	 177A      1.038676   178A      1.043435   179A      1.050963  
	 180A      1.073278   181A      1.074697   182A      1.081020  
	 183A      1.096284   184A      1.107606   185A      1.117171  
	 186A      1.118250   187A      1.121823   188A      1.126068  
	 189A      1.144727   190A      1.145115   191A      1.149158  
	 192A      1.172324   193A      1.177814   194A      1.194573  
	 195A      1.194689   196A      1.202181   197A      1.205765  
	 198A      1.221459   199A      1.229681   200A      1.230021  
	 201A      1.246794   202A      1.251970   203A      1.254189  
	 204A      1.283116   205A      1.293055   206A      1.293999  
	 207A      1.304138   208A      1.314735   209A      1.316896  
	 210A      1.333384   211A      1.350831   212A      1.352886  
	 213A      1.354809   214A      1.356764   215A      1.380787  
	 216A      1.412313   217A      1.412624   218A      1.429055  
	 219A      1.453497   220A      1.458085   221A      1.470995  
	 222A      1.476677   223A      1.492859   224A      1.499540  
	 225A      1.515694   226A      1.524681   227A      1.541495  
	 228A      1.553727   229A      1.554466   230A      1.555930  
	 231A      1.565781   232A      1.577228   233A      1.592653  
	 234A      1.602090   235A      1.602603   236A      1.613390  
	 237A      1.630244   238A      1.642467   239A      1.643944  
	 240A      1.645819   241A      1.665187   242A      1.669977  
	 243A      1.672030   244A      1.691919   245A      1.703453  
	 246A      1.707048   247A      1.716896   248A      1.726865  
	 249A      1.729230   250A      1.734429   251A      1.748997  
	 252A      1.764688   253A      1.765452   254A      1.782147  
	 255A      1.785806   256A      1.790947   257A      1.818905  
	 258A      1.821300   259A      1.854863   260A      1.856626  
	 261A      1.861844   262A      1.866024   263A      1.885294  
	 264A      1.907829   265A      1.923983   266A      1.929345  
	 267A      1.940376   268A      1.955206   269A      1.964918  
	 270A      1.969166   271A      1.970285   272A      1.983174  
	 273A      1.985729   274A      2.014188   275A      2.078062  
	 276A      2.087392   277A      2.099909   278A      2.105839  
	 279A      2.116691   280A      2.142824   281A      2.154267  
	 282A      2.174784   283A      2.187758   284A      2.196927  
	 285A      2.198832   286A      2.200064   287A      2.233014  
	 288A      2.237288   289A      2.240252   290A      2.287308  
	 291A      2.288671   292A      2.312250   293A      2.326069  
	 294A      2.359916   295A      2.364235   296A      2.401425  
	 297A      2.403481   298A      2.408379   299A      2.460257  
	 300A      2.475026   301A      2.497917   302A      2.552390  
	 303A      2.570848   304A      2.579731   305A      2.580266  
	 306A      2.592084   307A      2.596551   308A      2.611606  
	 309A      2.617218   310A      2.630433   311A      2.656862  
	 312A      2.657810   313A      2.691732   314A      2.700321  
	 315A      2.719206   316A      2.730566   317A      2.742648  
	 318A      2.762048   319A      2.803054   320A      2.810238  
	 321A      2.812544   322A      2.819052   323A      2.825991  
	 324A      2.846611   325A      2.871145   326A      2.880129  
	 327A      2.904919   328A      2.916509   329A      2.926966  
	 330A      2.939797   331A      2.961983   332A      2.986846  
	 333A      2.992023   334A      3.014793   335A      3.021981  
	 336A      3.032489   337A      3.065350   338A      3.130773  
	 339A      3.130869   340A      3.200101   341A      3.203876  
	 342A      3.213374   343A      3.224586   344A      3.230497  
	 345A      3.256217   346A      3.271294   347A      3.286166  
	 348A      3.297698   349A      3.306182   350A      3.324544  
	 351A      3.378944   352A      3.393966   353A      3.433600  
	 354A      3.484871   355A      3.485361   356A      3.495510  
	 357A      3.503803   358A      3.517555   359A      3.539179  
	 360A      3.541735   361A      3.581573   362A      3.608769  
	 363A      3.620969   364A      3.622448   365A      3.646333  
	 366A      3.654326   367A      3.656216   368A      3.670837  
	 369A      3.680716   370A      3.684262   371A      3.699824  
	 372A      3.703196   373A      3.706899   374A      3.748763  
	 375A      3.857725   376A      3.858182   377A      3.861675  
	 378A      3.877475   379A      3.895047   380A      3.897204  
	 381A      3.913535   382A      3.929154   383A      3.953133  
	 384A      3.961381   385A      3.965138   386A      3.972544  
	 387A      3.975949   388A      4.021902   389A      4.041310  
	 390A      4.053610   391A      4.073805   392A      4.081590  
	 393A      4.084200   394A      4.090014   395A      4.098616  
	 396A      4.109399   397A      4.133138   398A      4.147825  
	 399A      4.162414   400A      4.175340   401A      4.182069  
	 402A      4.197431   403A      4.246757   404A      4.259108  
	 405A      4.294484   406A      4.304172   407A      4.308370  
	 408A      4.331969   409A      4.340789   410A      4.357106  
	 411A      4.395556   412A      4.407503   413A      4.418901  
	 414A      4.434341   415A      4.467559   416A      4.472498  
	 417A      4.477515   418A      4.501312   419A      4.528467  
	 420A      4.568447   421A      4.569186   422A      4.610504  
	 423A      4.628530   424A      4.640847   425A      4.656280  
	 426A      4.685088   427A      4.706257   428A      4.707865  
	 429A      4.717069   430A      4.721647   431A      4.787874  
	 432A      4.789960   433A      4.801654   434A      4.803606  
	 435A      4.827981   436A      4.829120   437A      4.832684  
	 438A      4.868570   439A      4.871571   440A      4.879047  
	 441A      4.936172   442A      5.017179   443A      5.029239  
	 444A      5.030890   445A      5.070285   446A      5.073474  
	 447A      5.087711   448A      5.128757   449A      5.130154  
	 450A      5.138663   451A      5.142155   452A      5.148297  
	 453A      5.208290   454A      5.244005   455A      5.265076  
	 456A      5.280104   457A      5.288507   458A      5.351397  
	 459A      5.363784   460A      5.385608   461A      5.388297  
	 462A      5.454185   463A      5.522908   464A      5.523560  
	 465A      5.541929   466A      5.590038   467A      5.631696  
	 468A      5.640334   469A      5.655693   470A      5.691123  
	 471A      5.703132   472A      5.711683   473A      5.740351  
	 474A      5.772593   475A      5.838463   476A      5.882590  
	 477A      5.898046   478A      5.966137   479A      6.028565  
	 480A      6.049160   481A      6.066778   482A      6.120228  
	 483A      6.126368   484A      6.127242   485A      6.151020  
	 486A      6.157697   487A      6.266950   488A      6.272294  
	 489A      6.426059   490A      6.430334   491A      6.624225  
	 492A      6.661203   493A      6.682987   494A      6.703805  
	 495A      6.745397   496A      6.764372   497A      6.811168  
	 498A      6.830557   499A      6.856941   500A      6.905187  
	 501A      6.911754   502A      6.938697   503A      6.963275  
	 504A      7.007832   505A      7.011806   506A      7.031694  
	 507A      7.097510   508A      7.150593   509A      7.178708  
	 510A      7.209646   511A      7.258558   512A      7.258810  
	 513A      7.284761   514A      7.308525   515A      7.380927  
	 516A      7.381435   517A      7.411885   518A      7.417456  
	 519A      7.446234   520A      7.468937   521A      7.487554  
	 522A      7.505389   523A      7.539720   524A      7.553936  
	 525A      7.589001   526A      7.624540   527A      7.720255  
	 528A      7.744918   529A      7.776198   530A      7.810918  
	 531A      7.811685   532A      7.820792   533A      7.825912  
	 534A      7.919096   535A      7.985766   536A      8.064984  
	 537A      8.170443   538A      8.171774   539A      8.298702  
	 540A      8.309011   541A      8.476893   542A      8.537237  
	 543A      9.053537   544A      9.064310   545A     15.601675  
	 546A     15.911562   547A     16.287908   548A     16.825431  
	 549A     17.797979   550A     17.993663   551A     19.943069  
	 552A     20.283184  

	Final Occupation by Irrep:
	          A 
	DOCC [    32 ]

  Energy converged.

  @RHF Final Energy:  -455.82645204215544

   => Energetics <=

    Nuclear Repulsion Energy =            387.5851070065357362
    One-Electron Energy =               -1394.0054268572503133
    Two-Electron Energy =                 550.5938678085607307
    DFT Exchange-Correlation Energy =       0.0000000000000000
    Empirical Dispersion Energy =           0.0000000000000000
    Total Energy =                       -455.8264520421538464



Properties will be evaluated at   0.000000,   0.000000,   0.000000 Bohr
  ==> Properties <==


Properties computed using the SCF density density matrix
  Nuclear Dipole Moment: (a.u.)
     X:    -0.0002      Y:    -0.0020      Z:     0.0090

  Electronic Dipole Moment: (a.u.)
     X:     0.0003      Y:     0.0016      Z:    -0.0073

  Dipole Moment: (a.u.)
     X:     0.0001      Y:    -0.0005      Z:     0.0016     Total:     0.0017

  Dipole Moment: (Debye)
     X:     0.0003      Y:    -0.0012      Z:     0.0042     Total:     0.0044


  Saving occupied orbitals to File 180.

  Saving SAPT 2-DIMER file.

*** tstop() called on node31.bme.utexas.edu at Fri Oct  4 10:34:24 2013
Module time:
	user time   =     680.94 seconds =      11.35 minutes
	system time =       6.28 seconds =       0.10 minutes
	total time  =         98 seconds =       1.63 minutes
Total time:
	user time   =     680.94 seconds =      11.35 minutes
	system time =       6.28 seconds =       0.10 minutes
	total time  =         98 seconds =       1.63 minutes

  //>>>>>>>>>>>>>>>>>>>>>>>>>>>>>>>>>>>//
  //            Monomer A HF           //
  //<<<<<<<<<<<<<<<<<<<<<<<<<<<<<<<<<<<//


  No DF_BASIS_SCF auxiliary basis selected, defaulting to aug-cc-pvtz-jkfit


*** tstart() called on node31.bme.utexas.edu
*** at Fri Oct  4 10:34:24 2013


         ---------------------------------------------------------
                                   SCF
            by Justin Turney, Rob Parrish, and Andy Simmonett
                              RHF Reference
                        8 Threads,  20000 MiB Core
         ---------------------------------------------------------

  ==> Geometry <==

    Molecular point group: c1
    Full point group: C1

    Geometry (in Angstrom), charge = 0, multiplicity = 1:

       Center              X                  Y                   Z       
    ------------   -----------------  -----------------  -----------------
           C         -1.846096227289     0.094753768237     0.010795633337
           O         -1.142548139289     1.068071809237     0.250548298337
           O         -1.373690539289    -1.107469045763    -0.277475556663
           H         -0.379951364289    -1.074664182763    -0.262852531663
           C         -3.342814821289     0.140163019237     0.014992950337
           H         -3.680385001289     1.145077198237     0.237051970337
           H         -3.717276301289    -0.179996352763    -0.954259920663
           H         -3.721598983289    -0.557476370763     0.758292714337
           C(Gh)      1.846126888711    -0.094670425763    -0.011296147663
           O(Gh)      1.142508523711    -1.067984913763    -0.251083749663
           O(Gh)      1.373700554711     1.107764962237     0.276482323337
           H(Gh)      0.379912014711     1.074866728237     0.262081819337
           C(Gh)      3.342839336711    -0.140573171763    -0.013260542663
           H(Gh)      3.680418900711    -1.141892364763    -0.250786037663
           H(Gh)      3.724337881711     0.569779767237    -0.742729440663
           H(Gh)      3.714355647711     0.162121345237     0.962794818337

  Running in c1 symmetry.

  Nuclear repulsion =  121.353542000831112

  Charge       = 0
  Multiplicity = 1
  Electrons    = 32
  Nalpha       = 16
  Nbeta        = 16

  ==> Algorithm <==

  SCF Algorithm Type is DF.
  DIIS enabled.
  MOM disabled.
  Fractional occupation disabled.
  Guess Type is CORE.
  Energy threshold   = 1.00e-08
  Density threshold  = 1.00e-08
  Integral threshold = 0.00e+00

  ==> Primary Basis <==

  Basis Set: AUG-CC-PVTZ
    Number of shells: 184
    Number of basis function: 552
    Number of Cartesian functions: 640
    Spherical Harmonics?: true
    Max angular momentum: 3

  ==> Pre-Iterations <==

   -------------------------------------------------------
    Irrep   Nso     Nmo     Nalpha   Nbeta   Ndocc  Nsocc
   -------------------------------------------------------
     A        552     552       0       0       0       0
   -------------------------------------------------------
    Total     552     552      16      16      16       0
   -------------------------------------------------------

 OEINTS: Wrapper to libmints.
   by Justin Turney

   Calculation information:
      Number of atoms:                  16
      Number of AO shells:             184
      Number of SO shells:             184
      Number of primitives:            328
      Number of atomic orbitals:       640
      Number of basis functions:       552

      Number of irreps:                  1
      Number of functions per irrep: [ 552 ]

      Overlap, kinetic, potential, dipole, and quadrupole integrals
        stored in file 35.

  ==> Integral Setup <==

  ==> DFJK: Density-Fitted J/K Matrices <==

    J tasked:                  Yes
    K tasked:                  Yes
    wK tasked:                  No
    OpenMP threads:              8
    Integrals threads:           8
    Memory (MB):             14305
    Algorithm:                Core
    Integral Cache:           LOAD
    Schwarz Cutoff:          0E+00
    Fitting Condition:       1E-12

   => Auxiliary Basis Set <=

  Basis Set: aug-cc-pvtz-jkfit
    Number of shells: 352
    Number of basis function: 1200
    Number of Cartesian functions: 1488
    Spherical Harmonics?: true
    Max angular momentum: 4

  Minimum eigenvalue in the overlap matrix is 6.2142667107E-06.
  Using Symmetric Orthogonalization.
  SCF Guess: Core (One-Electron) Hamiltonian.

  Guess energy:  -183.32973046056964

  ==> Iterations <==

                        Total Energy        Delta E     RMS |[F,P]|

   @RHF iter   1:  -170.68764407862130   -1.70688e+02   2.38518e-02 
   @RHF iter   2:  -145.23870482755456    2.54489e+01   1.41105e-02 DIIS
   @RHF iter   3:  -199.94799112939722   -5.47093e+01   1.04690e-02 DIIS
   @RHF iter   4:  -224.72273674691189   -2.47747e+01   4.71052e-03 DIIS
   @RHF iter   5:  -227.36980988294823   -2.64707e+00   2.15225e-03 DIIS
   @RHF iter   6:  -227.85890877131612   -4.89099e-01   5.58154e-04 DIIS
   @RHF iter   7:  -227.89491880646199   -3.60100e-02   2.13246e-04 DIIS
   @RHF iter   8:  -227.90170937171422   -6.79057e-03   6.11075e-05 DIIS
   @RHF iter   9:  -227.90275469535965   -1.04532e-03   1.78847e-05 DIIS
   @RHF iter  10:  -227.90291323667537   -1.58541e-04   6.47641e-06 DIIS
   @RHF iter  11:  -227.90293022875727   -1.69921e-05   2.43517e-06 DIIS
   @RHF iter  12:  -227.90293261718176   -2.38842e-06   7.70485e-07 DIIS
   @RHF iter  13:  -227.90293283556468   -2.18383e-07   2.44934e-07 DIIS
   @RHF iter  14:  -227.90293285892648   -2.33618e-08   5.68445e-08 DIIS
   @RHF iter  15:  -227.90293286025462   -1.32815e-09   1.64241e-08 DIIS
   @RHF iter  16:  -227.90293286035387   -9.92486e-11   3.92711e-09 DIIS

  ==> Post-Iterations <==

	Orbital Energies (a.u.)
	-----------------------

	Doubly Occupied:                                                      

	   1A    -20.624984     2A    -20.545221     3A    -11.389356  
	   4A    -11.243645     5A     -1.471745     6A     -1.354646  
	   7A     -1.028766     8A     -0.833699     9A     -0.705206  
	  10A     -0.682427    11A     -0.656285    12A     -0.580177  
	  13A     -0.572696    14A     -0.565060    15A     -0.477813  
	  16A     -0.452405  

	Virtual:                                                              

	  17A      0.020823    18A      0.029686    19A      0.040627  
	  20A      0.042359    21A      0.051334    22A      0.051397  
	  23A      0.052370    24A      0.074842    25A      0.081044  
	  26A      0.088629    27A      0.094244    28A      0.099509  
	  29A      0.116828    30A      0.117149    31A      0.122312  
	  32A      0.128271    33A      0.128830    34A      0.133324  
	  35A      0.138949    36A      0.142652    37A      0.147830  
	  38A      0.159956    39A      0.161572    40A      0.170511  
	  41A      0.184393    42A      0.193055    43A      0.197023  
	  44A      0.197917    45A      0.210940    46A      0.211974  
	  47A      0.214740    48A      0.223389    49A      0.234232  
	  50A      0.239428    51A      0.244274    52A      0.253562  
	  53A      0.260739    54A      0.266782    55A      0.270173  
	  56A      0.286939    57A      0.293594    58A      0.295787  
	  59A      0.309767    60A      0.310012    61A      0.322624  
	  62A      0.325689    63A      0.331381    64A      0.333125  
	  65A      0.338908    66A      0.342065    67A      0.359337  
	  68A      0.363167    69A      0.366865    70A      0.371677  
	  71A      0.379659    72A      0.380341    73A      0.385763  
	  74A      0.392167    75A      0.400875    76A      0.407498  
	  77A      0.408444    78A      0.420104    79A      0.426850  
	  80A      0.436387    81A      0.444393    82A      0.447783  
	  83A      0.448672    84A      0.449081    85A      0.455491  
	  86A      0.457184    87A      0.468938    88A      0.472554  
	  89A      0.474884    90A      0.484423    91A      0.498353  
	  92A      0.499440    93A      0.509705    94A      0.512844  
	  95A      0.514942    96A      0.528146    97A      0.542110  
	  98A      0.543588    99A      0.548426   100A      0.554574  
	 101A      0.554955   102A      0.572059   103A      0.582637  
	 104A      0.586244   105A      0.600816   106A      0.608761  
	 107A      0.620863   108A      0.622313   109A      0.629703  
	 110A      0.652685   111A      0.656553   112A      0.663940  
	 113A      0.668044   114A      0.688410   115A      0.692264  
	 116A      0.704327   117A      0.717384   118A      0.726305  
	 119A      0.738113   120A      0.761427   121A      0.771286  
	 122A      0.775805   123A      0.788381   124A      0.804233  
	 125A      0.807123   126A      0.811980   127A      0.813180  
	 128A      0.818256   129A      0.824736   130A      0.833384  
	 131A      0.843868   132A      0.865745   133A      0.877911  
	 134A      0.879779   135A      0.889687   136A      0.890835  
	 137A      0.909910   138A      0.917545   139A      0.919312  
	 140A      0.923118   141A      0.933082   142A      0.942067  
	 143A      0.947729   144A      0.949862   145A      0.955492  
	 146A      0.963169   147A      0.975954   148A      0.977671  
	 149A      0.984869   150A      0.992489   151A      0.999787  
	 152A      1.008007   153A      1.010286   154A      1.027535  
	 155A      1.039635   156A      1.040380   157A      1.046144  
	 158A      1.050211   159A      1.064369   160A      1.067974  
	 161A      1.070792   162A      1.076356   163A      1.096234  
	 164A      1.096648   165A      1.099523   166A      1.116861  
	 167A      1.120296   168A      1.121043   169A      1.131349  
	 170A      1.137625   171A      1.145627   172A      1.161274  
	 173A      1.165504   174A      1.176394   175A      1.177199  
	 176A      1.191065   177A      1.197793   178A      1.223403  
	 179A      1.225245   180A      1.227258   181A      1.230697  
	 182A      1.243296   183A      1.253939   184A      1.269213  
	 185A      1.269817   186A      1.281552   187A      1.285879  
	 188A      1.290526   189A      1.291243   190A      1.305804  
	 191A      1.319047   192A      1.326002   193A      1.336664  
	 194A      1.342404   195A      1.357610   196A      1.369441  
	 197A      1.376086   198A      1.380124   199A      1.391097  
	 200A      1.403118   201A      1.411105   202A      1.412496  
	 203A      1.438578   204A      1.453540   205A      1.462546  
	 206A      1.476795   207A      1.514633   208A      1.515435  
	 209A      1.523704   210A      1.539208   211A      1.542546  
	 212A      1.554263   213A      1.575896   214A      1.579492  
	 215A      1.588949   216A      1.601746   217A      1.618074  
	 218A      1.625794   219A      1.645452   220A      1.646258  
	 221A      1.669576   222A      1.675611   223A      1.682004  
	 224A      1.703951   225A      1.705832   226A      1.717150  
	 227A      1.722268   228A      1.725354   229A      1.756339  
	 230A      1.758946   231A      1.781385   232A      1.781845  
	 233A      1.785197   234A      1.795056   235A      1.810165  
	 236A      1.820467   237A      1.836746   238A      1.840070  
	 239A      1.848388   240A      1.857320   241A      1.869571  
	 242A      1.894510   243A      1.903122   244A      1.913515  
	 245A      1.926768   246A      1.933833   247A      1.939149  
	 248A      1.949131   249A      1.961252   250A      1.979228  
	 251A      1.988127   252A      2.005697   253A      2.034148  
	 254A      2.046736   255A      2.060559   256A      2.082598  
	 257A      2.098426   258A      2.107211   259A      2.111690  
	 260A      2.139622   261A      2.142463   262A      2.155794  
	 263A      2.163022   264A      2.179899   265A      2.189763  
	 266A      2.207393   267A      2.209157   268A      2.222060  
	 269A      2.223308   270A      2.243053   271A      2.268385  
	 272A      2.271876   273A      2.296853   274A      2.306649  
	 275A      2.337233   276A      2.352896   277A      2.380153  
	 278A      2.399187   279A      2.403135   280A      2.438348  
	 281A      2.459825   282A      2.490340   283A      2.498645  
	 284A      2.514350   285A      2.540867   286A      2.561966  
	 287A      2.586158   288A      2.620880   289A      2.622405  
	 290A      2.632438   291A      2.649411   292A      2.663387  
	 293A      2.670912   294A      2.672577   295A      2.684913  
	 296A      2.696872   297A      2.718289   298A      2.729860  
	 299A      2.750415   300A      2.766968   301A      2.776550  
	 302A      2.807911   303A      2.811207   304A      2.831001  
	 305A      2.839599   306A      2.851157   307A      2.854771  
	 308A      2.867273   309A      2.898125   310A      2.903999  
	 311A      2.907398   312A      2.934333   313A      2.955618  
	 314A      2.978381   315A      3.011119   316A      3.013337  
	 317A      3.022219   318A      3.041862   319A      3.069514  
	 320A      3.110154   321A      3.126860   322A      3.143937  
	 323A      3.171095   324A      3.173726   325A      3.201203  
	 326A      3.224649   327A      3.250726   328A      3.286455  
	 329A      3.307352   330A      3.341414   331A      3.344176  
	 332A      3.357837   333A      3.386506   334A      3.395608  
	 335A      3.446694   336A      3.466250   337A      3.473285  
	 338A      3.489183   339A      3.535903   340A      3.538935  
	 341A      3.566223   342A      3.600007   343A      3.604785  
	 344A      3.621265   345A      3.623595   346A      3.658218  
	 347A      3.664237   348A      3.692797   349A      3.705556  
	 350A      3.716114   351A      3.740182   352A      3.758709  
	 353A      3.817532   354A      3.833973   355A      3.883154  
	 356A      3.891224   357A      3.915359   358A      3.924355  
	 359A      3.952858   360A      3.954102   361A      3.988437  
	 362A      3.998241   363A      4.017044   364A      4.032361  
	 365A      4.065095   366A      4.069192   367A      4.098054  
	 368A      4.100991   369A      4.105358   370A      4.131449  
	 371A      4.140422   372A      4.143955   373A      4.160305  
	 374A      4.191359   375A      4.193563   376A      4.229235  
	 377A      4.238482   378A      4.271766   379A      4.280571  
	 380A      4.305185   381A      4.311296   382A      4.334459  
	 383A      4.367938   384A      4.385667   385A      4.399070  
	 386A      4.432415   387A      4.458901   388A      4.479257  
	 389A      4.482050   390A      4.518764   391A      4.530845  
	 392A      4.544164   393A      4.570324   394A      4.595530  
	 395A      4.597589   396A      4.604440   397A      4.624847  
	 398A      4.625313   399A      4.654512   400A      4.672353  
	 401A      4.695224   402A      4.721682   403A      4.736417  
	 404A      4.760880   405A      4.771173   406A      4.772270  
	 407A      4.801301   408A      4.807717   409A      4.830403  
	 410A      4.835665   411A      4.867659   412A      4.895555  
	 413A      4.925693   414A      4.960556   415A      4.963054  
	 416A      4.978153   417A      5.013564   418A      5.044946  
	 419A      5.068196   420A      5.072762   421A      5.105373  
	 422A      5.121722   423A      5.130597   424A      5.139505  
	 425A      5.175753   426A      5.198310   427A      5.224989  
	 428A      5.227551   429A      5.288049   430A      5.301513  
	 431A      5.333060   432A      5.359510   433A      5.364571  
	 434A      5.386148   435A      5.399490   436A      5.431200  
	 437A      5.457226   438A      5.457466   439A      5.493209  
	 440A      5.495299   441A      5.523760   442A      5.526601  
	 443A      5.574399   444A      5.587646   445A      5.598499  
	 446A      5.628396   447A      5.645909   448A      5.694035  
	 449A      5.709263   450A      5.726498   451A      5.752319  
	 452A      5.790789   453A      5.903118   454A      5.943433  
	 455A      5.982733   456A      5.987324   457A      6.025815  
	 458A      6.043157   459A      6.099601   460A      6.124324  
	 461A      6.149308   462A      6.155518   463A      6.233003  
	 464A      6.250042   465A      6.257841   466A      6.313867  
	 467A      6.385645   468A      6.455171   469A      6.478351  
	 470A      6.638122   471A      6.691471   472A      6.703769  
	 473A      6.712534   474A      6.744699   475A      6.812938  
	 476A      6.837326   477A      6.879908   478A      6.916084  
	 479A      6.942003   480A      7.007935   481A      7.028465  
	 482A      7.115869   483A      7.170588   484A      7.201213  
	 485A      7.205379   486A      7.256263   487A      7.341698  
	 488A      7.355416   489A      7.396748   490A      7.403093  
	 491A      7.436272   492A      7.496670   493A      7.533462  
	 494A      7.618649   495A      7.668117   496A      7.696872  
	 497A      7.719715   498A      7.760692   499A      7.786008  
	 500A      7.789993   501A      7.836425   502A      7.839686  
	 503A      7.847289   504A      7.889555   505A      7.900774  
	 506A      7.948056   507A      7.997657   508A      8.050558  
	 509A      8.084601   510A      8.118842   511A      8.151349  
	 512A      8.202990   513A      8.255949   514A      8.281356  
	 515A      8.317422   516A      8.374218   517A      8.452899  
	 518A      8.537000   519A      8.597014   520A      8.645982  
	 521A      8.839030   522A      9.042720   523A      9.198180  
	 524A      9.218912   525A      9.794960   526A      9.924553  
	 527A      9.965486   528A     10.056470   529A     10.090418  
	 530A     10.140961   531A     10.319717   532A     10.443359  
	 533A     10.656911   534A     10.777248   535A     11.072716  
	 536A     11.265503   537A     11.939323   538A     11.983731  
	 539A     12.440953   540A     12.683456   541A     13.276936  
	 542A     13.616595   543A     14.029911   544A     14.539660  
	 545A     15.792509   546A     16.649134   547A     17.875063  
	 548A     20.098192   549A     51.922546   550A     54.413923  
	 551A     66.110629   552A     69.979060  

	Final Occupation by Irrep:
	          A 
	DOCC [    16 ]

  Energy converged.

  @RHF Final Energy:  -227.90293286035387

   => Energetics <=

    Nuclear Repulsion Energy =            121.3535420008311121
    One-Electron Energy =                -552.1446866651540404
    Two-Electron Energy =                 202.8882118039700231
    DFT Exchange-Correlation Energy =       0.0000000000000000
    Empirical Dispersion Energy =           0.0000000000000000
    Total Energy =                       -227.9029328603529052



Properties will be evaluated at   0.000000,   0.000000,   0.000000 Bohr
  ==> Properties <==


Properties computed using the SCF density density matrix
  Nuclear Dipole Moment: (a.u.)
     X:  -118.6041      Y:     0.8074      Z:    -0.5338

  Electronic Dipole Moment: (a.u.)
     X:   118.1658      Y:    -1.5468      Z:     0.3543

  Dipole Moment: (a.u.)
     X:    -0.4383      Y:    -0.7394      Z:    -0.1795     Total:     0.8780

  Dipole Moment: (Debye)
     X:    -1.1140      Y:    -1.8793      Z:    -0.4563     Total:     2.2318


  Saving occupied orbitals to File 180.

  Saving SAPT 2-MONOMER_A file.

*** tstop() called on node31.bme.utexas.edu at Fri Oct  4 10:35:36 2013
Module time:
	user time   =     532.27 seconds =       8.87 minutes
	system time =       4.44 seconds =       0.07 minutes
	total time  =         72 seconds =       1.20 minutes
Total time:
	user time   =    1213.23 seconds =      20.22 minutes
	system time =      10.72 seconds =       0.18 minutes
	total time  =        170 seconds =       2.83 minutes

  //>>>>>>>>>>>>>>>>>>>>>>>>>>>>>>>>>>>//
  //            Monomer B HF           //
  //<<<<<<<<<<<<<<<<<<<<<<<<<<<<<<<<<<<//


  No DF_BASIS_SCF auxiliary basis selected, defaulting to aug-cc-pvtz-jkfit


*** tstart() called on node31.bme.utexas.edu
*** at Fri Oct  4 10:35:36 2013


         ---------------------------------------------------------
                                   SCF
            by Justin Turney, Rob Parrish, and Andy Simmonett
                              RHF Reference
                        8 Threads,  20000 MiB Core
         ---------------------------------------------------------

  ==> Geometry <==

    Molecular point group: c1
    Full point group: C1

    Geometry (in Angstrom), charge = 0, multiplicity = 1:

       Center              X                  Y                   Z       
    ------------   -----------------  -----------------  -----------------
           C(Gh)     -1.846096227289     0.094753768237     0.010795633337
           O(Gh)     -1.142548139289     1.068071809237     0.250548298337
           O(Gh)     -1.373690539289    -1.107469045763    -0.277475556663
           H(Gh)     -0.379951364289    -1.074664182763    -0.262852531663
           C(Gh)     -3.342814821289     0.140163019237     0.014992950337
           H(Gh)     -3.680385001289     1.145077198237     0.237051970337
           H(Gh)     -3.717276301289    -0.179996352763    -0.954259920663
           H(Gh)     -3.721598983289    -0.557476370763     0.758292714337
           C          1.846126888711    -0.094670425763    -0.011296147663
           O          1.142508523711    -1.067984913763    -0.251083749663
           O          1.373700554711     1.107764962237     0.276482323337
           H          0.379912014711     1.074866728237     0.262081819337
           C          3.342839336711    -0.140573171763    -0.013260542663
           H          3.680418900711    -1.141892364763    -0.250786037663
           H          3.724337881711     0.569779767237    -0.742729440663
           H          3.714355647711     0.162121345237     0.962794818337

  Running in c1 symmetry.

  Nuclear repulsion =  121.350375293972832

  Charge       = 0
  Multiplicity = 1
  Electrons    = 32
  Nalpha       = 16
  Nbeta        = 16

  ==> Algorithm <==

  SCF Algorithm Type is DF.
  DIIS enabled.
  MOM disabled.
  Fractional occupation disabled.
  Guess Type is CORE.
  Energy threshold   = 1.00e-08
  Density threshold  = 1.00e-08
  Integral threshold = 0.00e+00

  ==> Primary Basis <==

  Basis Set: AUG-CC-PVTZ
    Number of shells: 184
    Number of basis function: 552
    Number of Cartesian functions: 640
    Spherical Harmonics?: true
    Max angular momentum: 3

  ==> Pre-Iterations <==

   -------------------------------------------------------
    Irrep   Nso     Nmo     Nalpha   Nbeta   Ndocc  Nsocc
   -------------------------------------------------------
     A        552     552       0       0       0       0
   -------------------------------------------------------
    Total     552     552      16      16      16       0
   -------------------------------------------------------

 OEINTS: Wrapper to libmints.
   by Justin Turney

   Calculation information:
      Number of atoms:                  16
      Number of AO shells:             184
      Number of SO shells:             184
      Number of primitives:            328
      Number of atomic orbitals:       640
      Number of basis functions:       552

      Number of irreps:                  1
      Number of functions per irrep: [ 552 ]

      Overlap, kinetic, potential, dipole, and quadrupole integrals
        stored in file 35.

  ==> Integral Setup <==

  ==> DFJK: Density-Fitted J/K Matrices <==

    J tasked:                  Yes
    K tasked:                  Yes
    wK tasked:                  No
    OpenMP threads:              8
    Integrals threads:           8
    Memory (MB):             14305
    Algorithm:                Core
    Integral Cache:           LOAD
    Schwarz Cutoff:          0E+00
    Fitting Condition:       1E-12

   => Auxiliary Basis Set <=

  Basis Set: aug-cc-pvtz-jkfit
    Number of shells: 352
    Number of basis function: 1200
    Number of Cartesian functions: 1488
    Spherical Harmonics?: true
    Max angular momentum: 4

  Minimum eigenvalue in the overlap matrix is 6.2142667107E-06.
  Using Symmetric Orthogonalization.
  SCF Guess: Core (One-Electron) Hamiltonian.

  Guess energy:  -183.32848354897021

  ==> Iterations <==

                        Total Energy        Delta E     RMS |[F,P]|

   @RHF iter   1:  -170.68881023001535   -1.70689e+02   2.38516e-02 
   @RHF iter   2:  -145.23892044293916    2.54499e+01   1.41108e-02 DIIS
   @RHF iter   3:  -199.94821846904489   -5.47093e+01   1.04686e-02 DIIS
   @RHF iter   4:  -224.72183442438092   -2.47736e+01   4.71133e-03 DIIS
   @RHF iter   5:  -227.36913001779118   -2.64730e+00   2.15358e-03 DIIS
   @RHF iter   6:  -227.85884731308937   -4.89717e-01   5.58481e-04 DIIS
   @RHF iter   7:  -227.89489810752718   -3.60508e-02   2.13411e-04 DIIS
   @RHF iter   8:  -227.90169920459385   -6.80110e-03   6.11279e-05 DIIS
   @RHF iter   9:  -227.90274590284247   -1.04670e-03   1.78968e-05 DIIS
   @RHF iter  10:  -227.90290465684296   -1.58754e-04   6.48125e-06 DIIS
   @RHF iter  11:  -227.90292167901316   -1.70222e-05   2.43571e-06 DIIS
   @RHF iter  12:  -227.90292406903342   -2.39002e-06   7.71002e-07 DIIS
   @RHF iter  13:  -227.90292428792486   -2.18891e-07   2.44955e-07 DIIS
   @RHF iter  14:  -227.90292431128370   -2.33588e-08   5.68522e-08 DIIS
   @RHF iter  15:  -227.90292431261258   -1.32889e-09   1.64349e-08 DIIS
   @RHF iter  16:  -227.90292431270922   -9.66338e-11   3.93310e-09 DIIS

  ==> Post-Iterations <==

	Orbital Energies (a.u.)
	-----------------------

	Doubly Occupied:                                                      

	   1A    -20.624980     2A    -20.545238     3A    -11.389375  
	   4A    -11.243639     5A     -1.471691     6A     -1.354623  
	   7A     -1.028785     8A     -0.833665     9A     -0.705193  
	  10A     -0.682413    11A     -0.656269    12A     -0.580188  
	  13A     -0.572705    14A     -0.565072    15A     -0.477812  
	  16A     -0.452411  

	Virtual:                                                              

	  17A      0.020824    18A      0.029685    19A      0.040629  
	  20A      0.042357    21A      0.051314    22A      0.051417  
	  23A      0.052369    24A      0.074841    25A      0.081044  
	  26A      0.088628    27A      0.094244    28A      0.099514  
	  29A      0.116813    30A      0.117158    31A      0.122320  
	  32A      0.128295    33A      0.128797    34A      0.133329  
	  35A      0.138950    36A      0.142650    37A      0.147833  
	  38A      0.159947    39A      0.161566    40A      0.170516  
	  41A      0.184393    42A      0.193011    43A      0.197027  
	  44A      0.197954    45A      0.210886    46A      0.212027  
	  47A      0.214744    48A      0.223379    49A      0.234231  
	  50A      0.239425    51A      0.244274    52A      0.253553  
	  53A      0.260741    54A      0.266779    55A      0.270197  
	  56A      0.286932    57A      0.293585    58A      0.295795  
	  59A      0.309794    60A      0.310008    61A      0.322616  
	  62A      0.325692    63A      0.331380    64A      0.333124  
	  65A      0.338993    66A      0.341974    67A      0.359331  
	  68A      0.363166    69A      0.366851    70A      0.371690  
	  71A      0.379598    72A      0.380381    73A      0.385749  
	  74A      0.392185    75A      0.400863    76A      0.407511  
	  77A      0.408449    78A      0.420107    79A      0.426873  
	  80A      0.436376    81A      0.444386    82A      0.447713  
	  83A      0.448643    84A      0.449133    85A      0.455494  
	  86A      0.457234    87A      0.468995    88A      0.472530  
	  89A      0.474872    90A      0.484393    91A      0.498350  
	  92A      0.499454    93A      0.509675    94A      0.512811  
	  95A      0.514961    96A      0.528151    97A      0.542164  
	  98A      0.543548    99A      0.548421   100A      0.554526  
	 101A      0.555006   102A      0.572035   103A      0.582644  
	 104A      0.586419   105A      0.600613   106A      0.608752  
	 107A      0.620869   108A      0.622237   109A      0.629758  
	 110A      0.652728   111A      0.656557   112A      0.663967  
	 113A      0.667994   114A      0.688410   115A      0.692278  
	 116A      0.704296   117A      0.717382   118A      0.726311  
	 119A      0.738114   120A      0.761424   121A      0.771245  
	 122A      0.775821   123A      0.788390   124A      0.804190  
	 125A      0.807125   126A      0.811975   127A      0.813256  
	 128A      0.818261   129A      0.824721   130A      0.833350  
	 131A      0.843839   132A      0.865736   133A      0.877898  
	 134A      0.879759   135A      0.889742   136A      0.890787  
	 137A      0.909967   138A      0.917694   139A      0.919116  
	 140A      0.923143   141A      0.933028   142A      0.942077  
	 143A      0.947589   144A      0.950015   145A      0.955509  
	 146A      0.963169   147A      0.976146   148A      0.977571  
	 149A      0.984868   150A      0.992477   151A      0.999779  
	 152A      1.008276   153A      1.010058   154A      1.027552  
	 155A      1.039627   156A      1.040428   157A      1.046239  
	 158A      1.050144   159A      1.064313   160A      1.067935  
	 161A      1.070808   162A      1.076335   163A      1.096036  
	 164A      1.096709   165A      1.099622   166A      1.116881  
	 167A      1.120461   168A      1.120931   169A      1.131374  
	 170A      1.137567   171A      1.145647   172A      1.161238  
	 173A      1.165480   174A      1.176086   175A      1.177437  
	 176A      1.191186   177A      1.197650   178A      1.223317  
	 179A      1.225509   180A      1.227044   181A      1.230748  
	 182A      1.243218   183A      1.253878   184A      1.269247  
	 185A      1.269907   186A      1.281558   187A      1.285919  
	 188A      1.290652   189A      1.291303   190A      1.305817  
	 191A      1.319087   192A      1.326156   193A      1.336566  
	 194A      1.342323   195A      1.357645   196A      1.369420  
	 197A      1.376090   198A      1.380049   199A      1.391101  
	 200A      1.403128   201A      1.411211   202A      1.412229  
	 203A      1.438559   204A      1.453550   205A      1.462581  
	 206A      1.476841   207A      1.514315   208A      1.515736  
	 209A      1.523694   210A      1.539151   211A      1.542575  
	 212A      1.554195   213A      1.575970   214A      1.579567  
	 215A      1.588840   216A      1.601773   217A      1.618144  
	 218A      1.625727   219A      1.645418   220A      1.646183  
	 221A      1.669597   222A      1.675656   223A      1.681975  
	 224A      1.703772   225A      1.705854   226A      1.717063  
	 227A      1.722419   228A      1.725344   229A      1.756201  
	 230A      1.759097   231A      1.781168   232A      1.781847  
	 233A      1.785482   234A      1.794976   235A      1.810207  
	 236A      1.820537   237A      1.836742   238A      1.840227  
	 239A      1.848402   240A      1.857184   241A      1.869603  
	 242A      1.894449   243A      1.903137   244A      1.913512  
	 245A      1.926717   246A      1.933868   247A      1.939134  
	 248A      1.949173   249A      1.961301   250A      1.979211  
	 251A      1.988201   252A      2.005670   253A      2.034068  
	 254A      2.046846   255A      2.060578   256A      2.082562  
	 257A      2.098501   258A      2.107125   259A      2.111729  
	 260A      2.140059   261A      2.142146   262A      2.155806  
	 263A      2.162972   264A      2.179932   265A      2.189760  
	 266A      2.206551   267A      2.209990   268A      2.222470  
	 269A      2.222947   270A      2.243025   271A      2.268616  
	 272A      2.271651   273A      2.296787   274A      2.306660  
	 275A      2.337237   276A      2.352869   277A      2.380265  
	 278A      2.399415   279A      2.402685   280A      2.438241  
	 281A      2.459840   282A      2.490227   283A      2.498691  
	 284A      2.514439   285A      2.540897   286A      2.561891  
	 287A      2.586113   288A      2.621111   289A      2.622067  
	 290A      2.632417   291A      2.649389   292A      2.663232  
	 293A      2.670863   294A      2.672737   295A      2.684958  
	 296A      2.696963   297A      2.718296   298A      2.729886  
	 299A      2.750428   300A      2.766963   301A      2.776588  
	 302A      2.808100   303A      2.810960   304A      2.830885  
	 305A      2.839572   306A      2.851174   307A      2.854784  
	 308A      2.867362   309A      2.898104   310A      2.903862  
	 311A      2.907524   312A      2.934366   313A      2.955596  
	 314A      2.978322   315A      3.011814   316A      3.012777  
	 317A      3.022226   318A      3.041824   319A      3.069608  
	 320A      3.110206   321A      3.126843   322A      3.143937  
	 323A      3.170963   324A      3.174016   325A      3.201163  
	 326A      3.224638   327A      3.250769   328A      3.286383  
	 329A      3.307529   330A      3.341430   331A      3.344175  
	 332A      3.357734   333A      3.387102   334A      3.394874  
	 335A      3.446728   336A      3.466322   337A      3.473260  
	 338A      3.489248   339A      3.536053   340A      3.538712  
	 341A      3.566252   342A      3.599962   343A      3.604817  
	 344A      3.621315   345A      3.623563   346A      3.658218  
	 347A      3.664207   348A      3.692679   349A      3.705506  
	 350A      3.716089   351A      3.740165   352A      3.758780  
	 353A      3.817626   354A      3.834035   355A      3.883139  
	 356A      3.891176   357A      3.915278   358A      3.924446  
	 359A      3.952878   360A      3.954092   361A      3.988450  
	 362A      3.998242   363A      4.017074   364A      4.032359  
	 365A      4.065279   366A      4.069002   367A      4.098179  
	 368A      4.101017   369A      4.105324   370A      4.131474  
	 371A      4.140292   372A      4.143958   373A      4.160329  
	 374A      4.191386   375A      4.193517   376A      4.229246  
	 377A      4.238467   378A      4.271698   379A      4.280646  
	 380A      4.305123   381A      4.311290   382A      4.334469  
	 383A      4.367887   384A      4.385833   385A      4.398922  
	 386A      4.432308   387A      4.458935   388A      4.480359  
	 389A      4.480967   390A      4.518666   391A      4.530837  
	 392A      4.544073   393A      4.570422   394A      4.595570  
	 395A      4.597388   396A      4.604683   397A      4.623642  
	 398A      4.626417   399A      4.654518   400A      4.672396  
	 401A      4.695316   402A      4.721640   403A      4.736450  
	 404A      4.760766   405A      4.771355   406A      4.772324  
	 407A      4.801159   408A      4.807752   409A      4.830381  
	 410A      4.835467   411A      4.867686   412A      4.895541  
	 413A      4.925646   414A      4.960059   415A      4.963459  
	 416A      4.978162   417A      5.013637   418A      5.045027  
	 419A      5.068305   420A      5.072819   421A      5.105436  
	 422A      5.121870   423A      5.130595   424A      5.139424  
	 425A      5.175705   426A      5.198221   427A      5.225037  
	 428A      5.227526   429A      5.288168   430A      5.301653  
	 431A      5.332938   432A      5.359530   433A      5.364544  
	 434A      5.386016   435A      5.399510   436A      5.431121  
	 437A      5.456073   438A      5.458694   439A      5.493322  
	 440A      5.495307   441A      5.523497   442A      5.526755  
	 443A      5.574404   444A      5.587661   445A      5.598570  
	 446A      5.628401   447A      5.646161   448A      5.694118  
	 449A      5.709332   450A      5.726416   451A      5.752355  
	 452A      5.790810   453A      5.903169   454A      5.943386  
	 455A      5.982588   456A      5.987344   457A      6.025782  
	 458A      6.043187   459A      6.099708   460A      6.124387  
	 461A      6.149329   462A      6.155558   463A      6.232649  
	 464A      6.249765   465A      6.257892   466A      6.313998  
	 467A      6.385734   468A      6.455200   469A      6.478419  
	 470A      6.638102   471A      6.691474   472A      6.703766  
	 473A      6.712768   474A      6.744704   475A      6.813006  
	 476A      6.837282   477A      6.879907   478A      6.916032  
	 479A      6.941996   480A      7.007835   481A      7.028504  
	 482A      7.115794   483A      7.170597   484A      7.200720  
	 485A      7.205854   486A      7.256182   487A      7.341686  
	 488A      7.355351   489A      7.396702   490A      7.402999  
	 491A      7.436245   492A      7.496614   493A      7.533413  
	 494A      7.618566   495A      7.668016   496A      7.696897  
	 497A      7.719691   498A      7.760584   499A      7.785949  
	 500A      7.790056   501A      7.836390   502A      7.839460  
	 503A      7.847225   504A      7.889581   505A      7.900615  
	 506A      7.948029   507A      7.997531   508A      8.050658  
	 509A      8.084474   510A      8.118912   511A      8.151360  
	 512A      8.202938   513A      8.255945   514A      8.281420  
	 515A      8.317290   516A      8.374211   517A      8.452970  
	 518A      8.537012   519A      8.597001   520A      8.646071  
	 521A      8.838844   522A      9.042962   523A      9.198463  
	 524A      9.218980   525A      9.795013   526A      9.924610  
	 527A      9.965584   528A     10.056541   529A     10.090501  
	 530A     10.140958   531A     10.319985   532A     10.443360  
	 533A     10.656592   534A     10.777274   535A     11.072847  
	 536A     11.265764   537A     11.939476   538A     11.983940  
	 539A     12.441324   540A     12.683651   541A     13.277337  
	 542A     13.617068   543A     14.030077   544A     14.539932  
	 545A     15.791355   546A     16.647630   547A     17.875240  
	 548A     20.098093   549A     51.924795   550A     54.411750  
	 551A     66.113162   552A     69.981555  

	Final Occupation by Irrep:
	          A 
	DOCC [    16 ]

  Energy converged.

  @RHF Final Energy:  -227.90292431270922

   => Energetics <=

    Nuclear Repulsion Energy =            121.3503752939728315
    One-Electron Energy =                -552.1384823304213114
    Two-Electron Energy =                 202.8851827237386090
    DFT Exchange-Correlation Energy =       0.0000000000000000
    Empirical Dispersion Energy =           0.0000000000000000
    Total Energy =                       -227.9029243127098709



Properties will be evaluated at   0.000000,   0.000000,   0.000000 Bohr
  ==> Properties <==


Properties computed using the SCF density density matrix
  Nuclear Dipole Moment: (a.u.)
     X:   118.6039      Y:    -0.8095      Z:     0.5427

  Electronic Dipole Moment: (a.u.)
     X:  -118.1655      Y:     1.5483      Z:    -0.3616

  Dipole Moment: (a.u.)
     X:     0.4384      Y:     0.7389      Z:     0.1811     Total:     0.8780

  Dipole Moment: (Debye)
     X:     1.1144      Y:     1.8780      Z:     0.4603     Total:     2.2317


  Saving occupied orbitals to File 180.

  Saving SAPT 2-MONOMER_B file.

*** tstop() called on node31.bme.utexas.edu at Fri Oct  4 10:36:49 2013
Module time:
	user time   =     532.62 seconds =       8.88 minutes
	system time =       4.62 seconds =       0.08 minutes
	total time  =         73 seconds =       1.22 minutes
Total time:
	user time   =    1745.88 seconds =      29.10 minutes
	system time =      15.34 seconds =       0.26 minutes
	total time  =        243 seconds =       4.05 minutes
  No DF_BASIS_SAPT auxiliary basis selected, defaulting to aug-cc-pvtz-ri

  //>>>>>>>>>>>>>>>>>>>>>>>>>>>>>>>>>>>//
  //               SAPT2+              //
  //<<<<<<<<<<<<<<<<<<<<<<<<<<<<<<<<<<<//


*** tstart() called on node31.bme.utexas.edu
*** at Fri Oct  4 10:36:49 2013

        SAPT2+  
    Ed Hohenstein
     6 June 2009

      Orbital Information
  --------------------------
    NSO        =       552
    NMO        =       552
    NRI        =      1216
    NOCC A     =        16
    NOCC B     =        16
    FOCC A     =         4
    FOCC B     =         4
    NVIR A     =       536
    NVIR B     =       536

    Estimated memory usage: 4560.0 MB

    Elst10,r            =    -0.073231083880 H
    Exch10 (S^2)        =     0.093477462077 H
    Exch10              =     0.096096684892 H
    Ind20,r (A<-B)      =    -0.027431350268 H
    Ind20,r (B<-A)      =    -0.027433334246 H
    Ind20,r             =    -0.054864684514 H
    Exch-Ind20,r (A<-B) =     0.015368750671 H
    Exch-Ind20,r (B<-A) =     0.015370540285 H
    Exch-Ind20,r        =     0.030739290957 H
    Disp20              =    -0.025116558080 H
    Exch-Disp20         =     0.005621080908 H
    Elst12,r            =     0.001796905864 H
    Exch11              =     0.000345942529 H
    Exch12              =     0.011626881277 H
    Ind22               =    -0.008280177186 H
    Disp21              =     0.002318204464 H
    Disp22 (SDQ)        =    -0.000851063317 H

    (i =   1 of  12)       2086 seconds
    (i =   2 of  12)       4175 seconds
    (i =   3 of  12)       6263 seconds
    (i =   4 of  12)       8350 seconds
    (i =   5 of  12)      10437 seconds
    (i =   6 of  12)      12523 seconds
    (i =   7 of  12)      14609 seconds
    (i =   8 of  12)      16695 seconds
    (i =   9 of  12)      18783 seconds
    (i =  10 of  12)      20869 seconds
    (i =  11 of  12)      22957 seconds
    (i =  12 of  12)      25043 seconds

    Disp220 (T)         =    -0.002336164903 H

    (i =   1 of  12)       2095 seconds
    (i =   2 of  12)       4192 seconds
    (i =   3 of  12)       6289 seconds
    (i =   4 of  12)       8386 seconds
    (i =   5 of  12)      10483 seconds
    (i =   6 of  12)      12580 seconds
    (i =   7 of  12)      14676 seconds
    (i =   8 of  12)      16773 seconds
    (i =   9 of  12)      18868 seconds
    (i =  10 of  12)      20964 seconds
    (i =  11 of  12)      23060 seconds
    (i =  12 of  12)      25157 seconds

    Disp202 (T)         =    -0.002336236899 H

    Disp22 (T)          =    -0.004672401802 H

    SAPT Results  
  -----------------------------------------------------------------------
    Electrostatics         -71.43417802 mH     -44.82562533 kcal mol^-1
      Elst10,r             -73.23108388 mH     -45.95320083 kcal mol^-1
      Elst12,r               1.79690586 mH       1.12757550 kcal mol^-1

    Exchange               108.06950870 mH      67.81464337 kcal mol^-1
      Exch10                96.09668489 mH      60.30158269 kcal mol^-1
      Exch10(S^2)           93.47746208 mH      58.65799549 kcal mol^-1
      Exch11(S^2)            0.34594253 mH       0.21708222 kcal mol^-1
      Exch12(S^2)           11.62688128 mH       7.29597846 kcal mol^-1

    Induction              -47.10147406 mH     -29.55662244 kcal mol^-1
      Ind20,r              -54.86468451 mH     -34.42811075 kcal mol^-1
      Ind22                 -8.28017719 mH      -5.19588985 kcal mol^-1
      Exch-Ind20,r          30.73929096 mH      19.28919710 kcal mol^-1
      Exch-Ind22             4.63917323 mH       2.91112527 kcal mol^-1
      delta HF,r (2)       -19.33507655 mH     -12.13294422 kcal mol^-1

    Dispersion             -22.70073783 mH     -14.24492864 kcal mol^-1
      Disp20               -25.11655808 mH     -15.76087880 kcal mol^-1
      Disp21                 2.31820446 mH       1.45469532 kcal mol^-1
      Disp22 (SDQ)          -0.85106332 mH      -0.53405032 kcal mol^-1
      Disp22 (T)            -4.67240180 mH      -2.93197652 kcal mol^-1
      Exch-Disp20            5.62108091 mH       3.52728167 kcal mol^-1

    Total HF               -20.59486909 mH     -12.92347601 kcal mol^-1
    Total SAPT0            -40.09034626 mH     -25.15707314 kcal mol^-1
    Total SAPT2            -29.96162055 mH     -18.80120153 kcal mol^-1
    Total SAPT2+           -33.16688121 mH     -20.81253304 kcal mol^-1

*** tstop() called on node31.bme.utexas.edu at Sat Oct  5 02:59:35 2013
Module time:
	user time   =  403941.99 seconds =    6732.37 minutes
	system time =     683.32 seconds =      11.39 minutes
	total time  =      58966 seconds =     982.77 minutes
Total time:
	user time   =  405687.88 seconds =    6761.46 minutes
	system time =     698.66 seconds =      11.64 minutes
	total time  =      59209 seconds =     986.82 minutes

*** PSI4 exiting successfully. Buy a developer a beer!
