
    -----------------------------------------------------------------------
          Psi4: An Open-Source Ab Initio Electronic Structure Package
                               Psi4 1.4a2.dev224 

                         Git: Rev {master} e453b16 


    R. M. Parrish, L. A. Burns, D. G. A. Smith, A. C. Simmonett,
    A. E. DePrince III, E. G. Hohenstein, U. Bozkaya, A. Yu. Sokolov,
    R. Di Remigio, R. M. Richard, J. F. Gonthier, A. M. James,
    H. R. McAlexander, A. Kumar, M. Saitow, X. Wang, B. P. Pritchard,
    P. Verma, H. F. Schaefer III, K. Patkowski, R. A. King, E. F. Valeev,
    F. A. Evangelista, J. M. Turney, T. D. Crawford, and C. D. Sherrill,
    J. Chem. Theory Comput. 13(7) pp 3185--3197 (2017).
    (doi: 10.1021/acs.jctc.7b00174)


                         Additional Contributions by
    P. Kraus, H. Kruse, M. H. Lechner, M. C. Schieber, R. A. Shaw,
    A. Alenaizan, R. Galvelis, Z. L. Glick, S. Lehtola, and J. P. Misiewicz

    -----------------------------------------------------------------------


    Psi4 started on: Thursday, 23 April 2020 11:55PM

    Process ID: 45410
    Host:       node36.bme.utexas.edu
    PSIDATADIR: /home/liuchw/anaconda3/envs/psi4env/share/psi4
    Memory:     500.0 MiB
    Threads:    8
    
  ==> Input File <==

--------------------------------------------------------------------------
#Generated by lconvert.py for sapt job

memory 50 GB

molecule  {
0 1
  C      -1.061710    1.297140    0.292060
  O      -0.358160    2.270460    0.531810
  O      -0.589300    0.094920    0.003790
  H       0.404440    0.127720    0.018410
  C      -2.558430    1.342550    0.296260
  H      -2.896000    2.347460    0.518320
  H      -2.932890    1.022390   -0.673000
  H      -2.937210    0.644910    1.039560
--
0 1
  C       3.307120    1.110720    0.275120
  O       2.603500    0.137410    0.035330
  O       2.834690    2.313160    0.562900
  H       1.840900    2.280260    0.548500
  C       4.803830    1.064820    0.273160
  H       5.141410    0.063500    0.035630
  H       5.185330    1.775170   -0.456310
  H       5.175350    1.367510    1.249210
units angstrom
no_reorient
symmetry c1
}

set {
scf_type DF
basis aug-cc-pvtz
freeze_core True
guess SAD
}
energy('sapt2+')
--------------------------------------------------------------------------

  Memory set to  46.566 GiB by Python driver.

Scratch directory: /scratch/liuchw/

  //>>>>>>>>>>>>>>>>>>>>>>>>>>>>>>>>>>>//
  //              Dimer HF             //
  //<<<<<<<<<<<<<<<<<<<<<<<<<<<<<<<<<<<//


*** tstart() called on node36.bme.utexas.edu
*** at Thu Apr 23 23:55:32 2020

   => Loading Basis Set <=

    Name: AUG-CC-PVTZ
    Role: ORBITAL
    Keyword: BASIS
    atoms 1, 5, 9, 13       entry C          line   239 file /home/liuchw/anaconda3/envs/psi4env/share/psi4/basis/aug-cc-pvtz.gbs 
    atoms 2-3, 10-11        entry O          line   331 file /home/liuchw/anaconda3/envs/psi4env/share/psi4/basis/aug-cc-pvtz.gbs 
    atoms 4, 6-8, 12, 14-16 entry H          line    40 file /home/liuchw/anaconda3/envs/psi4env/share/psi4/basis/aug-cc-pvtz.gbs 


         ---------------------------------------------------------
                                   SCF
               by Justin Turney, Rob Parrish, Andy Simmonett
                          and Daniel G. A. Smith
                              RHF Reference
                        8 Threads,  47683 MiB Core
         ---------------------------------------------------------

  ==> Geometry <==

    Molecular point group: c1
    Full point group: C1

    Geometry (in Angstrom), charge = 0, multiplicity = 1:

       Center              X                  Y                   Z               Mass       
    ------------   -----------------  -----------------  -----------------  -----------------
         C           -2.184399405758     0.093249493498     0.008219309402    12.000000000000
         O           -1.480849405758     1.066569493498     0.247969309402    15.994914619570
         O           -1.711989405758    -1.108970506502    -0.280050690598    15.994914619570
         H           -0.718249405758    -1.076170506502    -0.265430690598     1.007825032230
         C           -3.681119405758     0.138659493498     0.012419309402    12.000000000000
         H           -4.018689405758     1.143569493498     0.234479309402     1.007825032230
         H           -4.055579405758    -0.181500506502    -0.956840690598     1.007825032230
         H           -4.059899405758    -0.558980506502     0.755719309402     1.007825032230
         C            2.184430594242    -0.093170506502    -0.008720690598    12.000000000000
         O            1.480810594242    -1.066480506502    -0.248510690598    15.994914619570
         O            1.712000594242     1.109269493498     0.279059309402    15.994914619570
         H            0.718210594242     1.076369493498     0.264659309402     1.007825032230
         C            3.681140594242    -0.139070506502    -0.010680690598    12.000000000000
         H            4.018720594242    -1.140390506502    -0.248210690598     1.007825032230
         H            4.062640594242     0.571279493498    -0.740150690598     1.007825032230
         H            4.052660594242     0.163619493498     0.965369309402     1.007825032230

  Running in c1 symmetry.

  Rotational constants: A =      0.18798  B =      0.02385  C =      0.02133 [cm^-1]
  Rotational constants: A =   5635.40256  B =    714.98613  C =    639.46280 [MHz]
  Nuclear repulsion =  364.834188047169505

  Charge       = 0
  Multiplicity = 1
  Electrons    = 64
  Nalpha       = 32
  Nbeta        = 32

  ==> Algorithm <==

  SCF Algorithm Type is DF.
  DIIS enabled.
  MOM disabled.
  Fractional occupation disabled.
  Guess Type is SAD.
  Energy threshold   = 1.00e-08
  Density threshold  = 1.00e-08
  Integral threshold = 0.00e+00

  ==> Primary Basis <==

  Basis Set: AUG-CC-PVTZ
    Blend: AUG-CC-PVTZ
    Number of shells: 184
    Number of basis function: 552
    Number of Cartesian functions: 640
    Spherical Harmonics?: true
    Max angular momentum: 3

   => Loading Basis Set <=

    Name: (AUG-CC-PVTZ AUX)
    Role: JKFIT
    Keyword: DF_BASIS_SCF
    atoms 1, 5, 9, 13       entry C          line   162 file /home/liuchw/anaconda3/envs/psi4env/share/psi4/basis/aug-cc-pvtz-jkfit.gbs 
    atoms 2-3, 10-11        entry O          line   286 file /home/liuchw/anaconda3/envs/psi4env/share/psi4/basis/aug-cc-pvtz-jkfit.gbs 
    atoms 4, 6-8, 12, 14-16 entry H          line    70 file /home/liuchw/anaconda3/envs/psi4env/share/psi4/basis/aug-cc-pvtz-jkfit.gbs 

  ==> Pre-Iterations <==

   -------------------------------------------------------
    Irrep   Nso     Nmo     Nalpha   Nbeta   Ndocc  Nsocc
   -------------------------------------------------------
     A        552     552       0       0       0       0
   -------------------------------------------------------
    Total     552     552      32      32      32       0
   -------------------------------------------------------

  ==> Integral Setup <==

  ==> DiskDFJK: Density-Fitted J/K Matrices <==

    J tasked:                  Yes
    K tasked:                  Yes
    wK tasked:                  No
    OpenMP threads:              8
    Integrals threads:           8
    Memory [MiB]:            35762
    Algorithm:                Core
    Integral Cache:           SAVE
    Schwarz Cutoff:          1E-12
    Fitting Condition:       1E-10

   => Auxiliary Basis Set <=

  Basis Set: (AUG-CC-PVTZ AUX)
    Blend: AUG-CC-PVTZ-JKFIT
    Number of shells: 352
    Number of basis function: 1200
    Number of Cartesian functions: 1488
    Spherical Harmonics?: true
    Max angular momentum: 4

  Minimum eigenvalue in the overlap matrix is 7.7680670839E-06.
  Using Symmetric Orthogonalization.

  SCF Guess: Superposition of Atomic Densities via on-the-fly atomic UHF.

  ==> Iterations <==

                           Total Energy        Delta E     RMS |[F,P]|

   @DF-RHF iter SAD:  -454.10005736856476   -4.54100e+02   0.00000e+00 
   @DF-RHF iter   1:  -455.51991606197919   -1.41986e+00   1.50677e-03 DIIS
   @DF-RHF iter   2:  -455.74630118841628   -2.26385e-01   8.70766e-04 DIIS
   @DF-RHF iter   3:  -455.81952989267086   -7.32287e-02   1.46786e-04 DIIS
   @DF-RHF iter   4:  -455.82363551243941   -4.10562e-03   6.61301e-05 DIIS
   @DF-RHF iter   5:  -455.82448564552470   -8.50133e-04   1.55359e-05 DIIS
   @DF-RHF iter   6:  -455.82455336188730   -6.77164e-05   7.70661e-06 DIIS
   @DF-RHF iter   7:  -455.82457006625395   -1.67044e-05   2.39953e-06 DIIS
   @DF-RHF iter   8:  -455.82457299735842   -2.93110e-06   6.44214e-07 DIIS
   @DF-RHF iter   9:  -455.82457323381766   -2.36459e-07   1.33587e-07 DIIS
   @DF-RHF iter  10:  -455.82457324186197   -8.04431e-09   3.85802e-08 DIIS
   @DF-RHF iter  11:  -455.82457324226698   -4.05009e-10   1.16074e-08 DIIS
   @DF-RHF iter  12:  -455.82457324230569   -3.87104e-11   2.91181e-09 DIIS
  Energy and wave function converged.


  ==> Post-Iterations <==

    Orbital Energies [Eh]
    ---------------------

    Doubly Occupied:                                                      

       1A    -20.613993     2A    -20.613986     3A    -20.552820  
       4A    -20.552800     5A    -11.393889     6A    -11.393869  
       7A    -11.244084     8A    -11.244078     9A     -1.469364  
      10A     -1.466509    11A     -1.360696    12A     -1.357596  
      13A     -1.030592    14A     -1.028147    15A     -0.831593  
      16A     -0.824377    17A     -0.719900    18A     -0.701682  
      19A     -0.685828    20A     -0.680478    21A     -0.655236  
      22A     -0.653186    23A     -0.583976    24A     -0.581481  
      25A     -0.575013    26A     -0.566382    27A     -0.562735  
      28A     -0.561656    29A     -0.485350    30A     -0.482183  
      31A     -0.466420    32A     -0.454732  

    Virtual:                                                              

      33A      0.028750    34A      0.032208    35A      0.043878  
      36A      0.045741    37A      0.049653    38A      0.052091  
      39A      0.054644    40A      0.076038    41A      0.083929  
      42A      0.096028    43A      0.101969    44A      0.118839  
      45A      0.122314    46A      0.126369    47A      0.130196  
      48A      0.130686    49A      0.133543    50A      0.137050  
      51A      0.139075    52A      0.147062    53A      0.152251  
      54A      0.155305    55A      0.166007    56A      0.176956  
      57A      0.178294    58A      0.182039    59A      0.196862  
      60A      0.198944    61A      0.204077    62A      0.205941  
      63A      0.225916    64A      0.231146    65A      0.231487  
      66A      0.236765    67A      0.239842    68A      0.254256  
      69A      0.259425    70A      0.266867    71A      0.269604  
      72A      0.289592    73A      0.299735    74A      0.302609  
      75A      0.306214    76A      0.317258    77A      0.325040  
      78A      0.325314    79A      0.327367    80A      0.330359  
      81A      0.334243    82A      0.340437    83A      0.345853  
      84A      0.346468    85A      0.349736    86A      0.352485  
      87A      0.366386    88A      0.367404    89A      0.369738  
      90A      0.382842    91A      0.395448    92A      0.396991  
      93A      0.402960    94A      0.404252    95A      0.409627  
      96A      0.426203    97A      0.426358    98A      0.430978  
      99A      0.431940   100A      0.434143   101A      0.440741  
     102A      0.441552   103A      0.466403   104A      0.468239  
     105A      0.472216   106A      0.474154   107A      0.483958  
     108A      0.484185   109A      0.496273   110A      0.504588  
     111A      0.506656   112A      0.513064   113A      0.514172  
     114A      0.521150   115A      0.525148   116A      0.542855  
     117A      0.551183   118A      0.554596   119A      0.562048  
     120A      0.563147   121A      0.570345   122A      0.576304  
     123A      0.583545   124A      0.595033   125A      0.614394  
     126A      0.614610   127A      0.637809   128A      0.655011  
     129A      0.663700   130A      0.672373   131A      0.680899  
     132A      0.699529   133A      0.711307   134A      0.731882  
     135A      0.740076   136A      0.742737   137A      0.761140  
     138A      0.769604   139A      0.774565   140A      0.789144  
     141A      0.792838   142A      0.807007   143A      0.807465  
     144A      0.808226   145A      0.809901   146A      0.812165  
     147A      0.822041   148A      0.824404   149A      0.832168  
     150A      0.835839   151A      0.849348   152A      0.850698  
     153A      0.863842   154A      0.875217   155A      0.886403  
     156A      0.892827   157A      0.895137   158A      0.896488  
     159A      0.901076   160A      0.903152   161A      0.903485  
     162A      0.912262   163A      0.922912   164A      0.927047  
     165A      0.927804   166A      0.948148   167A      0.953358  
     168A      0.961878   169A      0.967783   170A      0.972807  
     171A      0.981386   172A      0.993631   173A      1.001493  
     174A      1.010565   175A      1.019399   176A      1.019869  
     177A      1.020594   178A      1.028452   179A      1.042005  
     180A      1.046353   181A      1.062070   182A      1.069670  
     183A      1.073721   184A      1.078359   185A      1.089146  
     186A      1.092479   187A      1.098992   188A      1.114449  
     189A      1.117456   190A      1.128066   191A      1.140383  
     192A      1.144491   193A      1.149798   194A      1.156471  
     195A      1.170545   196A      1.173644   197A      1.175657  
     198A      1.186987   199A      1.195845   200A      1.201085  
     201A      1.201886   202A      1.203177   203A      1.225193  
     204A      1.233543   205A      1.234670   206A      1.269850  
     207A      1.276072   208A      1.286752   209A      1.287983  
     210A      1.289555   211A      1.293339   212A      1.305787  
     213A      1.322109   214A      1.332817   215A      1.341953  
     216A      1.348435   217A      1.383878   218A      1.393905  
     219A      1.400967   220A      1.404208   221A      1.420553  
     222A      1.424682   223A      1.429490   224A      1.458861  
     225A      1.463329   226A      1.478357   227A      1.493845  
     228A      1.498334   229A      1.504817   230A      1.506618  
     231A      1.522356   232A      1.523053   233A      1.530063  
     234A      1.545974   235A      1.558056   236A      1.569463  
     237A      1.575043   238A      1.599182   239A      1.613192  
     240A      1.621748   241A      1.622799   242A      1.633915  
     243A      1.652670   244A      1.659714   245A      1.672091  
     246A      1.680946   247A      1.689161   248A      1.692243  
     249A      1.705233   250A      1.707412   251A      1.715372  
     252A      1.725952   253A      1.728819   254A      1.730158  
     255A      1.746180   256A      1.750690   257A      1.779589  
     258A      1.785942   259A      1.787552   260A      1.802452  
     261A      1.809672   262A      1.819139   263A      1.847174  
     264A      1.858639   265A      1.866213   266A      1.874296  
     267A      1.899418   268A      1.919678   269A      1.921825  
     270A      1.937727   271A      1.940506   272A      1.955631  
     273A      1.976135   274A      1.995801   275A      2.015662  
     276A      2.045158   277A      2.066058   278A      2.081380  
     279A      2.089068   280A      2.100552   281A      2.117144  
     282A      2.124488   283A      2.136977   284A      2.156309  
     285A      2.161732   286A      2.187821   287A      2.193074  
     288A      2.204396   289A      2.219871   290A      2.221701  
     291A      2.227861   292A      2.232044   293A      2.274027  
     294A      2.325814   295A      2.346686   296A      2.356463  
     297A      2.361012   298A      2.383199   299A      2.411366  
     300A      2.415863   301A      2.475420   302A      2.476940  
     303A      2.478784   304A      2.501112   305A      2.519799  
     306A      2.557717   307A      2.558271   308A      2.565130  
     309A      2.569259   310A      2.585476   311A      2.591610  
     312A      2.607080   313A      2.608810   314A      2.632297  
     315A      2.635630   316A      2.638727   317A      2.643993  
     318A      2.664223   319A      2.697395   320A      2.717124  
     321A      2.745100   322A      2.750643   323A      2.771957  
     324A      2.785716   325A      2.809649   326A      2.823569  
     327A      2.829558   328A      2.859346   329A      2.867471  
     330A      2.873672   331A      2.919793   332A      2.952488  
     333A      2.955844   334A      2.961057   335A      2.977072  
     336A      3.006165   337A      3.011238   338A      3.015868  
     339A      3.027691   340A      3.075796   341A      3.096913  
     342A      3.115103   343A      3.126815   344A      3.159759  
     345A      3.160114   346A      3.200880   347A      3.203604  
     348A      3.251110   349A      3.262779   350A      3.263576  
     351A      3.292295   352A      3.328432   353A      3.366437  
     354A      3.374632   355A      3.381552   356A      3.398950  
     357A      3.422758   358A      3.457306   359A      3.472764  
     360A      3.495384   361A      3.521587   362A      3.532955  
     363A      3.559063   364A      3.589256   365A      3.595391  
     366A      3.607655   367A      3.615734   368A      3.623305  
     369A      3.626919   370A      3.646515   371A      3.664953  
     372A      3.673309   373A      3.678418   374A      3.694987  
     375A      3.763027   376A      3.804419   377A      3.831203  
     378A      3.839428   379A      3.847405   380A      3.849221  
     381A      3.896128   382A      3.898130   383A      3.909350  
     384A      3.937883   385A      3.938628   386A      3.954992  
     387A      3.973132   388A      3.977052   389A      3.977511  
     390A      4.015573   391A      4.017804   392A      4.029432  
     393A      4.056532   394A      4.058352   395A      4.060950  
     396A      4.068193   397A      4.084361   398A      4.111206  
     399A      4.118603   400A      4.125067   401A      4.149082  
     402A      4.149671   403A      4.163596   404A      4.169865  
     405A      4.186107   406A      4.209336   407A      4.263601  
     408A      4.277654   409A      4.311121   410A      4.318338  
     411A      4.352640   412A      4.353365   413A      4.368201  
     414A      4.377247   415A      4.410889   416A      4.421111  
     417A      4.443744   418A      4.447679   419A      4.462267  
     420A      4.470142   421A      4.540864   422A      4.551373  
     423A      4.553455   424A      4.566311   425A      4.638152  
     426A      4.646287   427A      4.674826   428A      4.681258  
     429A      4.697825   430A      4.708658   431A      4.737429  
     432A      4.738861   433A      4.760033   434A      4.778621  
     435A      4.796836   436A      4.805216   437A      4.810857  
     438A      4.815427   439A      4.845205   440A      4.847405  
     441A      4.928226   442A      4.934419   443A      4.975816  
     444A      4.977042   445A      5.041141   446A      5.043902  
     447A      5.046788   448A      5.054938   449A      5.069422  
     450A      5.105439   451A      5.115754   452A      5.119853  
     453A      5.138599   454A      5.155795   455A      5.176572  
     456A      5.264808   457A      5.268731   458A      5.280398  
     459A      5.348542   460A      5.349521   461A      5.358602  
     462A      5.390051   463A      5.397571   464A      5.402039  
     465A      5.407551   466A      5.408406   467A      5.514711  
     468A      5.522218   469A      5.575891   470A      5.628592  
     471A      5.635715   472A      5.637480   473A      5.686724  
     474A      5.688721   475A      5.702107   476A      5.712411  
     477A      5.805736   478A      5.863605   479A      5.949000  
     480A      5.983589   481A      6.052120   482A      6.078815  
     483A      6.111352   484A      6.115865   485A      6.119281  
     486A      6.121945   487A      6.237586   488A      6.251395  
     489A      6.377368   490A      6.406786   491A      6.610768  
     492A      6.622387   493A      6.675700   494A      6.691702  
     495A      6.723535   496A      6.723874   497A      6.726764  
     498A      6.736816   499A      6.834939   500A      6.843628  
     501A      6.861875   502A      6.870192   503A      6.883103  
     504A      6.887130   505A      6.894927   506A      6.905033  
     507A      7.051495   508A      7.070174   509A      7.074364  
     510A      7.139761   511A      7.178352   512A      7.195407  
     513A      7.259915   514A      7.275052   515A      7.304838  
     516A      7.306123   517A      7.344514   518A      7.352971  
     519A      7.367997   520A      7.383695   521A      7.419050  
     522A      7.430012   523A      7.432303   524A      7.434550  
     525A      7.568976   526A      7.575634   527A      7.601960  
     528A      7.643198   529A      7.644857   530A      7.673156  
     531A      7.703308   532A      7.713455   533A      7.773454  
     534A      7.807613   535A      7.899382   536A      7.921650  
     537A      8.012488   538A      8.068396   539A      8.076157  
     540A      8.087008   541A      8.279332   542A      8.285379  
     543A      8.558161   544A      8.586842   545A     15.343822  
     546A     15.424495   547A     16.149124   548A     16.201651  
     549A     17.435048   550A     17.844484   551A     19.247482  
     552A     19.553705  

    Final Occupation by Irrep:
              A 
    DOCC [    32 ]

  @DF-RHF Final Energy:  -455.82457324230569

   => Energetics <=

    Nuclear Repulsion Energy =            364.8341880471695049
    One-Electron Energy =               -1348.5282664206226855
    Two-Electron Energy =                 527.8695051311475481
    Total Energy =                       -455.8245732423056324

Computation Completed


Properties will be evaluated at   0.000000,   0.000000,   0.000000 [a0]

Properties computed using the SCF density matrix

  Nuclear Dipole Moment: [e a0]
     X:    -0.0002      Y:    -0.0021      Z:     0.0090

  Electronic Dipole Moment: [e a0]
     X:     0.0003      Y:     0.0016      Z:    -0.0074

  Dipole Moment: [e a0]
     X:     0.0001      Y:    -0.0005      Z:     0.0016     Total:     0.0017

  Dipole Moment: [D]
     X:     0.0004      Y:    -0.0013      Z:     0.0041     Total:     0.0043


*** tstop() called on node36.bme.utexas.edu at Thu Apr 23 23:56:09 2020
Module time:
	user time   =     262.36 seconds =       4.37 minutes
	system time =       9.13 seconds =       0.15 minutes
	total time  =         37 seconds =       0.62 minutes
Total time:
	user time   =     262.36 seconds =       4.37 minutes
	system time =       9.13 seconds =       0.15 minutes
	total time  =         37 seconds =       0.62 minutes

  //>>>>>>>>>>>>>>>>>>>>>>>>>>>>>>>>>>>//
  //            Monomer A HF           //
  //<<<<<<<<<<<<<<<<<<<<<<<<<<<<<<<<<<<//


*** tstart() called on node36.bme.utexas.edu
*** at Thu Apr 23 23:56:09 2020

   => Loading Basis Set <=

    Name: AUG-CC-PVTZ
    Role: ORBITAL
    Keyword: BASIS
    atoms 1, 5, 9, 13       entry C          line   239 file /home/liuchw/anaconda3/envs/psi4env/share/psi4/basis/aug-cc-pvtz.gbs 
    atoms 2-3, 10-11        entry O          line   331 file /home/liuchw/anaconda3/envs/psi4env/share/psi4/basis/aug-cc-pvtz.gbs 
    atoms 4, 6-8, 12, 14-16 entry H          line    40 file /home/liuchw/anaconda3/envs/psi4env/share/psi4/basis/aug-cc-pvtz.gbs 


         ---------------------------------------------------------
                                   SCF
               by Justin Turney, Rob Parrish, Andy Simmonett
                          and Daniel G. A. Smith
                              RHF Reference
                        8 Threads,  47683 MiB Core
         ---------------------------------------------------------

  ==> Geometry <==

    Molecular point group: c1
    Full point group: C1

    Geometry (in Angstrom), charge = 0, multiplicity = 1:

       Center              X                  Y                   Z               Mass       
    ------------   -----------------  -----------------  -----------------  -----------------
         C           -2.184399405758     0.093249493498     0.008219309402    12.000000000000
         O           -1.480849405758     1.066569493498     0.247969309402    15.994914619570
         O           -1.711989405758    -1.108970506502    -0.280050690598    15.994914619570
         H           -0.718249405758    -1.076170506502    -0.265430690598     1.007825032230
         C           -3.681119405758     0.138659493498     0.012419309402    12.000000000000
         H           -4.018689405758     1.143569493498     0.234479309402     1.007825032230
         H           -4.055579405758    -0.181500506502    -0.956840690598     1.007825032230
         H           -4.059899405758    -0.558980506502     0.755719309402     1.007825032230
      Gh(C)           2.184430594242    -0.093170506502    -0.008720690598    12.000000000000
      Gh(O)           1.480810594242    -1.066480506502    -0.248510690598    15.994914619570
      Gh(O)           1.712000594242     1.109269493498     0.279059309402    15.994914619570
      Gh(H)           0.718210594242     1.076369493498     0.264659309402     1.007825032230
      Gh(C)           3.681140594242    -0.139070506502    -0.010680690598    12.000000000000
      Gh(H)           4.018720594242    -1.140390506502    -0.248210690598     1.007825032230
      Gh(H)           4.062640594242     0.571279493498    -0.740150690598     1.007825032230
      Gh(H)           4.052660594242     0.163619493498     0.965369309402     1.007825032230

  Running in c1 symmetry.

  Rotational constants: A =      0.18798  B =      0.02385  C =      0.02133 [cm^-1]
  Rotational constants: A =   5635.40256  B =    714.98613  C =    639.46280 [MHz]
  Nuclear repulsion =  121.353468607983700

  Charge       = 0
  Multiplicity = 1
  Electrons    = 32
  Nalpha       = 16
  Nbeta        = 16

  ==> Algorithm <==

  SCF Algorithm Type is DF.
  DIIS enabled.
  MOM disabled.
  Fractional occupation disabled.
  Guess Type is SAD.
  Energy threshold   = 1.00e-08
  Density threshold  = 1.00e-08
  Integral threshold = 0.00e+00

  ==> Primary Basis <==

  Basis Set: AUG-CC-PVTZ
    Blend: AUG-CC-PVTZ
    Number of shells: 184
    Number of basis function: 552
    Number of Cartesian functions: 640
    Spherical Harmonics?: true
    Max angular momentum: 3

   => Loading Basis Set <=

    Name: (AUG-CC-PVTZ AUX)
    Role: JKFIT
    Keyword: DF_BASIS_SCF
    atoms 1, 5, 9, 13       entry C          line   162 file /home/liuchw/anaconda3/envs/psi4env/share/psi4/basis/aug-cc-pvtz-jkfit.gbs 
    atoms 2-3, 10-11        entry O          line   286 file /home/liuchw/anaconda3/envs/psi4env/share/psi4/basis/aug-cc-pvtz-jkfit.gbs 
    atoms 4, 6-8, 12, 14-16 entry H          line    70 file /home/liuchw/anaconda3/envs/psi4env/share/psi4/basis/aug-cc-pvtz-jkfit.gbs 

  ==> Pre-Iterations <==

   -------------------------------------------------------
    Irrep   Nso     Nmo     Nalpha   Nbeta   Ndocc  Nsocc
   -------------------------------------------------------
     A        552     552       0       0       0       0
   -------------------------------------------------------
    Total     552     552      16      16      16       0
   -------------------------------------------------------

  ==> Integral Setup <==

  ==> DiskDFJK: Density-Fitted J/K Matrices <==

    J tasked:                  Yes
    K tasked:                  Yes
    wK tasked:                  No
    OpenMP threads:              8
    Integrals threads:           8
    Memory [MiB]:            35762
    Algorithm:                Core
    Integral Cache:           LOAD
    Schwarz Cutoff:          1E-12
    Fitting Condition:       1E-10

   => Auxiliary Basis Set <=

  Basis Set: (AUG-CC-PVTZ AUX)
    Blend: AUG-CC-PVTZ-JKFIT
    Number of shells: 352
    Number of basis function: 1200
    Number of Cartesian functions: 1488
    Spherical Harmonics?: true
    Max angular momentum: 4

  Minimum eigenvalue in the overlap matrix is 7.7680670839E-06.
  Using Symmetric Orthogonalization.

  SCF Guess: Superposition of Atomic Densities via on-the-fly atomic UHF.

  ==> Iterations <==

                           Total Energy        Delta E     RMS |[F,P]|

   @DF-RHF iter SAD:  -227.00143554878679   -2.27001e+02   0.00000e+00 
   @DF-RHF iter   1:  -227.73867978499985   -7.37244e-01   1.09644e-03 DIIS
   @DF-RHF iter   2:  -227.85695070103372   -1.18271e-01   6.67692e-04 DIIS
   @DF-RHF iter   3:  -227.89990362781521   -4.29529e-02   1.12415e-04 DIIS
   @DF-RHF iter   4:  -227.90219512518721   -2.29150e-03   5.08872e-05 DIIS
   @DF-RHF iter   5:  -227.90270603139066   -5.10906e-04   1.19964e-05 DIIS
   @DF-RHF iter   6:  -227.90274653765937   -4.05063e-05   5.73100e-06 DIIS
   @DF-RHF iter   7:  -227.90275657265977   -1.00350e-05   1.90859e-06 DIIS
   @DF-RHF iter   8:  -227.90275831674296   -1.74408e-06   5.19086e-07 DIIS
   @DF-RHF iter   9:  -227.90275846497019   -1.48227e-07   1.10495e-07 DIIS
   @DF-RHF iter  10:  -227.90275847057001   -5.59982e-09   2.66789e-08 DIIS
   @DF-RHF iter  11:  -227.90275847079147   -2.21462e-10   6.17179e-09 DIIS
  Energy and wave function converged.


  ==> Post-Iterations <==

    Orbital Energies [Eh]
    ---------------------

    Doubly Occupied:                                                      

       1A    -20.625052     2A    -20.545252     3A    -11.389391  
       4A    -11.243649     5A     -1.471785     6A     -1.354685  
       7A     -1.028777     8A     -0.833723     9A     -0.705224  
      10A     -0.682439    11A     -0.656304    12A     -0.580187  
      13A     -0.572713    14A     -0.565071    15A     -0.477842  
      16A     -0.452418  

    Virtual:                                                              

      17A      0.020371    18A      0.030335    19A      0.040297  
      20A      0.042661    21A      0.049945    22A      0.050275  
      23A      0.051685    24A      0.073351    25A      0.078726  
      26A      0.087952    27A      0.090886    28A      0.100518  
      29A      0.116547    30A      0.116906    31A      0.120523  
      32A      0.127733    33A      0.128258    34A      0.130605  
      35A      0.136365    36A      0.138426    37A      0.144735  
      38A      0.157596    39A      0.158691    40A      0.167805  
      41A      0.180148    42A      0.189266    43A      0.194899  
      44A      0.198717    45A      0.207870    46A      0.209441  
      47A      0.211628    48A      0.220408    49A      0.225748  
      50A      0.234260    51A      0.241327    52A      0.246255  
      53A      0.250070    54A      0.259642    55A      0.264346  
      56A      0.281288    57A      0.285738    58A      0.293565  
      59A      0.303880    60A      0.311755    61A      0.313780  
      62A      0.322063    63A      0.325784    64A      0.326690  
      65A      0.335412    66A      0.339678    67A      0.344232  
      68A      0.354069    69A      0.359359    70A      0.362048  
      71A      0.362718    72A      0.370722    73A      0.375511  
      74A      0.387715    75A      0.389566    76A      0.395802  
      77A      0.402539    78A      0.414982    79A      0.424221  
      80A      0.425540    81A      0.429708    82A      0.433280  
      83A      0.438057    84A      0.440520    85A      0.441508  
      86A      0.454980    87A      0.461518    88A      0.462373  
      89A      0.470094    90A      0.480064    91A      0.480840  
      92A      0.488672    93A      0.498625    94A      0.504296  
      95A      0.508483    96A      0.518135    97A      0.532341  
      98A      0.535960    99A      0.537902   100A      0.543606  
     101A      0.552121   102A      0.560628   103A      0.565707  
     104A      0.577631   105A      0.584060   106A      0.595107  
     107A      0.601313   108A      0.604563   109A      0.611015  
     110A      0.629082   111A      0.640280   112A      0.652038  
     113A      0.657539   114A      0.679167   115A      0.680267  
     116A      0.690298   117A      0.702756   118A      0.719898  
     119A      0.732951   120A      0.741824   121A      0.760423  
     122A      0.764426   123A      0.771074   124A      0.791510  
     125A      0.795893   126A      0.801456   127A      0.808280  
     128A      0.808668   129A      0.812355   130A      0.822494  
     131A      0.837790   132A      0.844589   133A      0.857175  
     134A      0.865186   135A      0.876778   136A      0.882272  
     137A      0.892787   138A      0.903372   139A      0.905990  
     140A      0.913399   141A      0.920946   142A      0.922010  
     143A      0.925757   144A      0.931575   145A      0.937458  
     146A      0.947019   147A      0.955313   148A      0.957279  
     149A      0.962629   150A      0.968947   151A      0.974730  
     152A      0.980237   153A      1.004784   154A      1.006303  
     155A      1.009058   156A      1.021654   157A      1.033601  
     158A      1.034558   159A      1.037570   160A      1.045571  
     161A      1.049983   162A      1.056677   163A      1.057365  
     164A      1.072024   165A      1.085627   166A      1.096117  
     167A      1.097703   168A      1.112245   169A      1.114414  
     170A      1.122266   171A      1.131174   172A      1.133085  
     173A      1.141186   174A      1.151111   175A      1.154886  
     176A      1.160534   177A      1.161707   178A      1.173661  
     179A      1.180757   180A      1.195010   181A      1.208177  
     182A      1.218099   183A      1.226423   184A      1.227963  
     185A      1.228424   186A      1.240671   187A      1.248767  
     188A      1.262637   189A      1.267662   190A      1.271085  
     191A      1.279565   192A      1.293113   193A      1.297426  
     194A      1.302652   195A      1.312958   196A      1.328155  
     197A      1.330059   198A      1.335154   199A      1.370142  
     200A      1.375328   201A      1.389336   202A      1.396202  
     203A      1.408379   204A      1.409979   205A      1.414431  
     206A      1.447543   207A      1.454797   208A      1.456278  
     209A      1.464247   210A      1.481019   211A      1.486103  
     212A      1.495537   213A      1.515288   214A      1.528071  
     215A      1.528979   216A      1.552433   217A      1.578126  
     218A      1.586956   219A      1.592247   220A      1.612695  
     221A      1.622073   222A      1.633577   223A      1.636625  
     224A      1.662498   225A      1.668650   226A      1.682311  
     227A      1.692993   228A      1.696404   229A      1.707095  
     230A      1.716754   231A      1.731034   232A      1.737402  
     233A      1.741708   234A      1.759737   235A      1.775252  
     236A      1.778304   237A      1.783161   238A      1.798095  
     239A      1.823083   240A      1.829000   241A      1.832994  
     242A      1.856493   243A      1.879699   244A      1.883618  
     245A      1.884315   246A      1.894285   247A      1.910098  
     248A      1.920135   249A      1.921224   250A      1.956171  
     251A      1.968227   252A      1.974765   253A      1.987719  
     254A      1.997485   255A      2.002204   256A      2.028781  
     257A      2.039759   258A      2.052451   259A      2.068474  
     260A      2.091531   261A      2.096786   262A      2.119737  
     263A      2.127797   264A      2.144925   265A      2.170071  
     266A      2.170969   267A      2.172477   268A      2.180440  
     269A      2.189585   270A      2.202042   271A      2.223474  
     272A      2.227102   273A      2.237701   274A      2.245391  
     275A      2.286317   276A      2.305018   277A      2.343724  
     278A      2.353393   279A      2.388922   280A      2.392451  
     281A      2.420831   282A      2.440593   283A      2.454690  
     284A      2.493236   285A      2.500983   286A      2.502359  
     287A      2.535240   288A      2.550567   289A      2.559580  
     290A      2.582565   291A      2.601166   292A      2.609625  
     293A      2.621913   294A      2.623104   295A      2.632290  
     296A      2.639307   297A      2.663837   298A      2.688790  
     299A      2.696405   300A      2.698878   301A      2.716463  
     302A      2.728097   303A      2.750546   304A      2.762820  
     305A      2.765144   306A      2.768131   307A      2.789961  
     308A      2.824453   309A      2.833678   310A      2.839680  
     311A      2.851693   312A      2.873613   313A      2.880063  
     314A      2.892403   315A      2.926454   316A      2.945431  
     317A      2.951236   318A      2.970029   319A      2.984159  
     320A      2.996462   321A      3.009903   322A      3.019532  
     323A      3.046904   324A      3.071296   325A      3.096012  
     326A      3.141393   327A      3.166635   328A      3.186900  
     329A      3.205203   330A      3.221174   331A      3.266368  
     332A      3.308033   333A      3.318391   334A      3.328844  
     335A      3.370979   336A      3.377555   337A      3.419011  
     338A      3.424421   339A      3.440938   340A      3.489500  
     341A      3.501890   342A      3.516642   343A      3.538948  
     344A      3.573999   345A      3.586709   346A      3.609046  
     347A      3.615235   348A      3.643478   349A      3.647318  
     350A      3.677328   351A      3.680548   352A      3.684632  
     353A      3.759274   354A      3.780742   355A      3.812107  
     356A      3.842197   357A      3.859882   358A      3.873882  
     359A      3.898159   360A      3.926149   361A      3.938280  
     362A      3.953636   363A      3.963755   364A      3.982716  
     365A      4.000396   366A      4.040665   367A      4.048215  
     368A      4.057149   369A      4.070782   370A      4.091364  
     371A      4.098024   372A      4.113847   373A      4.132577  
     374A      4.143937   375A      4.154093   376A      4.164009  
     377A      4.169393   378A      4.180482   379A      4.207073  
     380A      4.260106   381A      4.286097   382A      4.313294  
     383A      4.332825   384A      4.335840   385A      4.342502  
     386A      4.374981   387A      4.413857   388A      4.428187  
     389A      4.444456   390A      4.447202   391A      4.493012  
     392A      4.513547   393A      4.520101   394A      4.525975  
     395A      4.548126   396A      4.553094   397A      4.578713  
     398A      4.587181   399A      4.617344   400A      4.631273  
     401A      4.671546   402A      4.682176   403A      4.689033  
     404A      4.724923   405A      4.733634   406A      4.735054  
     407A      4.768517   408A      4.770140   409A      4.803552  
     410A      4.813304   411A      4.824748   412A      4.866756  
     413A      4.875729   414A      4.907756   415A      4.932114  
     416A      4.936785   417A      4.981565   418A      4.995111  
     419A      5.033880   420A      5.039150   421A      5.046150  
     422A      5.076368   423A      5.080474   424A      5.098735  
     425A      5.117872   426A      5.132659   427A      5.142074  
     428A      5.157355   429A      5.183582   430A      5.239460  
     431A      5.262871   432A      5.272656   433A      5.344762  
     434A      5.348611   435A      5.349712   436A      5.366738  
     437A      5.383445   438A      5.386735   439A      5.406477  
     440A      5.445272   441A      5.448997   442A      5.496738  
     443A      5.509202   444A      5.521153   445A      5.541621  
     446A      5.547008   447A      5.594501   448A      5.636933  
     449A      5.643631   450A      5.686867   451A      5.688328  
     452A      5.707765   453A      5.717942   454A      5.824924  
     455A      5.830071   456A      5.945506   457A      5.964148  
     458A      5.972288   459A      6.011825   460A      6.066669  
     461A      6.113589   462A      6.121266   463A      6.206029  
     464A      6.226805   465A      6.241291   466A      6.244132  
     467A      6.265681   468A      6.393007   469A      6.439167  
     470A      6.548408   471A      6.618192   472A      6.683972  
     473A      6.702002   474A      6.732475   475A      6.749538  
     476A      6.762227   477A      6.839086   478A      6.873721  
     479A      6.884831   480A      6.885444   481A      6.899583  
     482A      7.070784   483A      7.098405   484A      7.119833  
     485A      7.186148   486A      7.206660   487A      7.224213  
     488A      7.264449   489A      7.325794   490A      7.353657  
     491A      7.373898   492A      7.396633   493A      7.420564  
     494A      7.558440   495A      7.563832   496A      7.583876  
     497A      7.628682   498A      7.677418   499A      7.704625  
     500A      7.730124   501A      7.771133   502A      7.795434  
     503A      7.832169   504A      7.836825   505A      7.845680  
     506A      7.851269   507A      7.899388   508A      7.917317  
     509A      8.004787   510A      8.036986   511A      8.070902  
     512A      8.091142   513A      8.164140   514A      8.200513  
     515A      8.234119   516A      8.271780   517A      8.309908  
     518A      8.324516   519A      8.371064   520A      8.537133  
     521A      8.636755   522A      8.933115   523A      9.071387  
     524A      9.130315   525A      9.720014   526A      9.900403  
     527A      9.918509   528A      9.998998   529A     10.033774  
     530A     10.123656   531A     10.265905   532A     10.332223  
     533A     10.384052   534A     10.612076   535A     10.999786  
     536A     11.068220   537A     11.826782   538A     11.965273  
     539A     12.037926   540A     12.609866   541A     13.062006  
     542A     13.473498   543A     14.006196   544A     14.420082  
     545A     15.440739   546A     16.141833   547A     17.661665  
     548A     19.381873   549A     51.093982   550A     54.000181  
     551A     65.319397   552A     68.872166  

    Final Occupation by Irrep:
              A 
    DOCC [    16 ]

  @DF-RHF Final Energy:  -227.90275847079147

   => Energetics <=

    Nuclear Repulsion Energy =            121.3534686079837002
    One-Electron Energy =                -552.1434306516168817
    Two-Electron Energy =                 202.8872035728417131
    Total Energy =                       -227.9027584707914684

Computation Completed


Properties will be evaluated at   0.000000,   0.000000,   0.000000 [a0]

Properties computed using the SCF density matrix

  Nuclear Dipole Moment: [e a0]
     X:  -139.0616      Y:     0.7165      Z:    -0.6895

  Electronic Dipole Moment: [e a0]
     X:   138.6231      Y:    -1.4559      Z:     0.5100

  Dipole Moment: [e a0]
     X:    -0.4386      Y:    -0.7394      Z:    -0.1795     Total:     0.8782

  Dipole Moment: [D]
     X:    -1.1147      Y:    -1.8793      Z:    -0.4563     Total:     2.2321


*** tstop() called on node36.bme.utexas.edu at Thu Apr 23 23:56:30 2020
Module time:
	user time   =     143.98 seconds =       2.40 minutes
	system time =       5.13 seconds =       0.09 minutes
	total time  =         21 seconds =       0.35 minutes
Total time:
	user time   =     406.41 seconds =       6.77 minutes
	system time =      14.26 seconds =       0.24 minutes
	total time  =         58 seconds =       0.97 minutes

  //>>>>>>>>>>>>>>>>>>>>>>>>>>>>>>>>>>>//
  //            Monomer B HF           //
  //<<<<<<<<<<<<<<<<<<<<<<<<<<<<<<<<<<<//


*** tstart() called on node36.bme.utexas.edu
*** at Thu Apr 23 23:56:31 2020

   => Loading Basis Set <=

    Name: AUG-CC-PVTZ
    Role: ORBITAL
    Keyword: BASIS
    atoms 1, 5, 9, 13       entry C          line   239 file /home/liuchw/anaconda3/envs/psi4env/share/psi4/basis/aug-cc-pvtz.gbs 
    atoms 2-3, 10-11        entry O          line   331 file /home/liuchw/anaconda3/envs/psi4env/share/psi4/basis/aug-cc-pvtz.gbs 
    atoms 4, 6-8, 12, 14-16 entry H          line    40 file /home/liuchw/anaconda3/envs/psi4env/share/psi4/basis/aug-cc-pvtz.gbs 


         ---------------------------------------------------------
                                   SCF
               by Justin Turney, Rob Parrish, Andy Simmonett
                          and Daniel G. A. Smith
                              RHF Reference
                        8 Threads,  47683 MiB Core
         ---------------------------------------------------------

  ==> Geometry <==

    Molecular point group: c1
    Full point group: C1

    Geometry (in Angstrom), charge = 0, multiplicity = 1:

       Center              X                  Y                   Z               Mass       
    ------------   -----------------  -----------------  -----------------  -----------------
      Gh(C)          -2.184399405758     0.093249493498     0.008219309402    12.000000000000
      Gh(O)          -1.480849405758     1.066569493498     0.247969309402    15.994914619570
      Gh(O)          -1.711989405758    -1.108970506502    -0.280050690598    15.994914619570
      Gh(H)          -0.718249405758    -1.076170506502    -0.265430690598     1.007825032230
      Gh(C)          -3.681119405758     0.138659493498     0.012419309402    12.000000000000
      Gh(H)          -4.018689405758     1.143569493498     0.234479309402     1.007825032230
      Gh(H)          -4.055579405758    -0.181500506502    -0.956840690598     1.007825032230
      Gh(H)          -4.059899405758    -0.558980506502     0.755719309402     1.007825032230
         C            2.184430594242    -0.093170506502    -0.008720690598    12.000000000000
         O            1.480810594242    -1.066480506502    -0.248510690598    15.994914619570
         O            1.712000594242     1.109269493498     0.279059309402    15.994914619570
         H            0.718210594242     1.076369493498     0.264659309402     1.007825032230
         C            3.681140594242    -0.139070506502    -0.010680690598    12.000000000000
         H            4.018720594242    -1.140390506502    -0.248210690598     1.007825032230
         H            4.062640594242     0.571279493498    -0.740150690598     1.007825032230
         H            4.052660594242     0.163619493498     0.965369309402     1.007825032230

  Running in c1 symmetry.

  Rotational constants: A =      0.18798  B =      0.02385  C =      0.02133 [cm^-1]
  Rotational constants: A =   5635.40256  B =    714.98613  C =    639.46280 [MHz]
  Nuclear repulsion =  121.350334814835733

  Charge       = 0
  Multiplicity = 1
  Electrons    = 32
  Nalpha       = 16
  Nbeta        = 16

  ==> Algorithm <==

  SCF Algorithm Type is DF.
  DIIS enabled.
  MOM disabled.
  Fractional occupation disabled.
  Guess Type is SAD.
  Energy threshold   = 1.00e-08
  Density threshold  = 1.00e-08
  Integral threshold = 0.00e+00

  ==> Primary Basis <==

  Basis Set: AUG-CC-PVTZ
    Blend: AUG-CC-PVTZ
    Number of shells: 184
    Number of basis function: 552
    Number of Cartesian functions: 640
    Spherical Harmonics?: true
    Max angular momentum: 3

   => Loading Basis Set <=

    Name: (AUG-CC-PVTZ AUX)
    Role: JKFIT
    Keyword: DF_BASIS_SCF
    atoms 1, 5, 9, 13       entry C          line   162 file /home/liuchw/anaconda3/envs/psi4env/share/psi4/basis/aug-cc-pvtz-jkfit.gbs 
    atoms 2-3, 10-11        entry O          line   286 file /home/liuchw/anaconda3/envs/psi4env/share/psi4/basis/aug-cc-pvtz-jkfit.gbs 
    atoms 4, 6-8, 12, 14-16 entry H          line    70 file /home/liuchw/anaconda3/envs/psi4env/share/psi4/basis/aug-cc-pvtz-jkfit.gbs 

  ==> Pre-Iterations <==

   -------------------------------------------------------
    Irrep   Nso     Nmo     Nalpha   Nbeta   Ndocc  Nsocc
   -------------------------------------------------------
     A        552     552       0       0       0       0
   -------------------------------------------------------
    Total     552     552      16      16      16       0
   -------------------------------------------------------

  ==> Integral Setup <==

  ==> DiskDFJK: Density-Fitted J/K Matrices <==

    J tasked:                  Yes
    K tasked:                  Yes
    wK tasked:                  No
    OpenMP threads:              8
    Integrals threads:           8
    Memory [MiB]:            35762
    Algorithm:                Core
    Integral Cache:           LOAD
    Schwarz Cutoff:          1E-12
    Fitting Condition:       1E-10

   => Auxiliary Basis Set <=

  Basis Set: (AUG-CC-PVTZ AUX)
    Blend: AUG-CC-PVTZ-JKFIT
    Number of shells: 352
    Number of basis function: 1200
    Number of Cartesian functions: 1488
    Spherical Harmonics?: true
    Max angular momentum: 4

  Minimum eigenvalue in the overlap matrix is 7.7680670839E-06.
  Using Symmetric Orthogonalization.

  SCF Guess: Superposition of Atomic Densities via on-the-fly atomic UHF.

  ==> Iterations <==

                           Total Energy        Delta E     RMS |[F,P]|

   @DF-RHF iter SAD:  -227.00118290640677   -2.27001e+02   0.00000e+00 
   @DF-RHF iter   1:  -227.73866604098606   -7.37483e-01   1.09646e-03 DIIS
   @DF-RHF iter   2:  -227.85693559047371   -1.18270e-01   6.67741e-04 DIIS
   @DF-RHF iter   3:  -227.89989506057205   -4.29595e-02   1.12424e-04 DIIS
   @DF-RHF iter   4:  -227.90218693765459   -2.29188e-03   5.08895e-05 DIIS
   @DF-RHF iter   5:  -227.90269792923200   -5.10992e-04   1.19999e-05 DIIS
   @DF-RHF iter   6:  -227.90273845189972   -4.05227e-05   5.73231e-06 DIIS
   @DF-RHF iter   7:  -227.90274849331800   -1.00414e-05   1.90901e-06 DIIS
   @DF-RHF iter   8:  -227.90275023833698   -1.74502e-06   5.19214e-07 DIIS
   @DF-RHF iter   9:  -227.90275038664146   -1.48304e-07   1.10531e-07 DIIS
   @DF-RHF iter  10:  -227.90275039224466   -5.60320e-09   2.67006e-08 DIIS
   @DF-RHF iter  11:  -227.90275039246876   -2.24105e-10   6.18662e-09 DIIS
  Energy and wave function converged.


  ==> Post-Iterations <==

    Orbital Energies [Eh]
    ---------------------

    Doubly Occupied:                                                      

       1A    -20.625046     2A    -20.545271     3A    -11.389410  
       4A    -11.243642     5A     -1.471729     6A     -1.354663  
       7A     -1.028797     8A     -0.833685     9A     -0.705211  
      10A     -0.682426    11A     -0.656287    12A     -0.580199  
      13A     -0.572722    14A     -0.565083    15A     -0.477843  
      16A     -0.452426  

    Virtual:                                                              

      17A      0.020372    18A      0.030334    19A      0.040299  
      20A      0.042659    21A      0.049943    22A      0.050277  
      23A      0.051685    24A      0.073350    25A      0.078726  
      26A      0.087951    27A      0.090887    28A      0.100520  
      29A      0.116536    30A      0.116910    31A      0.120531  
      32A      0.127747    33A      0.128231    34A      0.130617  
      35A      0.136368    36A      0.138424    37A      0.144736  
      38A      0.157580    39A      0.158697    40A      0.167806  
      41A      0.180147    42A      0.189254    43A      0.194907  
      44A      0.198718    45A      0.207858    46A      0.209429  
      47A      0.211649    48A      0.220408    49A      0.225746  
      50A      0.234258    51A      0.241324    52A      0.246249  
      53A      0.250071    54A      0.259637    55A      0.264365  
      56A      0.281281    57A      0.285736    58A      0.293568  
      59A      0.303880    60A      0.311779    61A      0.313774  
      62A      0.322066    63A      0.325805    64A      0.326666  
      65A      0.335428    66A      0.339665    67A      0.344226  
      68A      0.354068    69A      0.359373    70A      0.362024  
      71A      0.362706    72A      0.370719    73A      0.375517  
      74A      0.387699    75A      0.389572    76A      0.395819  
      77A      0.402541    78A      0.414989    79A      0.424242  
      80A      0.425528    81A      0.429704    82A      0.433258  
      83A      0.438039    84A      0.440529    85A      0.441510  
      86A      0.455009    87A      0.461671    88A      0.462226  
      89A      0.470085    90A      0.480051    91A      0.480826  
      92A      0.488682    93A      0.498599    94A      0.504326  
      95A      0.508463    96A      0.518140    97A      0.532362  
      98A      0.536065    99A      0.537764   100A      0.543599  
     101A      0.552132   102A      0.560638   103A      0.565766  
     104A      0.577631   105A      0.583979   106A      0.595104  
     107A      0.601302   108A      0.604541   109A      0.611018  
     110A      0.629058   111A      0.640302   112A      0.652059  
     113A      0.657547   114A      0.679139   115A      0.680286  
     116A      0.690266   117A      0.702781   118A      0.719890  
     119A      0.732939   120A      0.741818   121A      0.760452  
     122A      0.764430   123A      0.771046   124A      0.791492  
     125A      0.795918   126A      0.801459   127A      0.808283  
     128A      0.808623   129A      0.812380   130A      0.822486  
     131A      0.837756   132A      0.844582   133A      0.857168  
     134A      0.865170   135A      0.876782   136A      0.882277  
     137A      0.892819   138A      0.903588   139A      0.905788  
     140A      0.913415   141A      0.920829   142A      0.922095  
     143A      0.925781   144A      0.931592   145A      0.937411  
     146A      0.947010   147A      0.955314   148A      0.957281  
     149A      0.962678   150A      0.968856   151A      0.974814  
     152A      0.980280   153A      1.004809   154A      1.006324  
     155A      1.009076   156A      1.021683   157A      1.033657  
     158A      1.034465   159A      1.037571   160A      1.045688  
     161A      1.049873   162A      1.056613   163A      1.057336  
     164A      1.072005   165A      1.085581   166A      1.096118  
     167A      1.097854   168A      1.112733   169A      1.113870  
     170A      1.122248   171A      1.131225   172A      1.133089  
     173A      1.141280   174A      1.151261   175A      1.154649  
     176A      1.160047   177A      1.162044   178A      1.173670  
     179A      1.180802   180A      1.195010   181A      1.208143  
     182A      1.218109   183A      1.226157   184A      1.228053  
     185A      1.228492   186A      1.240707   187A      1.248771  
     188A      1.262587   189A      1.267742   190A      1.271150  
     191A      1.279593   192A      1.293164   193A      1.298218  
     194A      1.301825   195A      1.313077   196A      1.328054  
     197A      1.330582   198A      1.334663   199A      1.370126  
     200A      1.375310   201A      1.389362   202A      1.396133  
     203A      1.408336   204A      1.409985   205A      1.414512  
     206A      1.447520   207A      1.454355   208A      1.456837  
     209A      1.464163   210A      1.480968   211A      1.486050  
     212A      1.495535   213A      1.515221   214A      1.528027  
     215A      1.529015   216A      1.552388   217A      1.578231  
     218A      1.586949   219A      1.592308   220A      1.612774  
     221A      1.621906   222A      1.633560   223A      1.636673  
     224A      1.662519   225A      1.668570   226A      1.682333  
     227A      1.692877   228A      1.696443   229A      1.707076  
     230A      1.716788   231A      1.731028   232A      1.737360  
     233A      1.741790   234A      1.759774   235A      1.775496  
     236A      1.778141   237A      1.783206   238A      1.798031  
     239A      1.823086   240A      1.829091   241A      1.832841  
     242A      1.856526   243A      1.879730   244A      1.883231  
     245A      1.884633   246A      1.894338   247A      1.910114  
     248A      1.920130   249A      1.921207   250A      1.956139  
     251A      1.968281   252A      1.974667   253A      1.987647  
     254A      1.997681   255A      2.002256   256A      2.028881  
     257A      2.039757   258A      2.052437   259A      2.068452  
     260A      2.091519   261A      2.096935   262A      2.119837  
     263A      2.127710   264A      2.144861   265A      2.169704  
     266A      2.170964   267A      2.172441   268A      2.180885  
     269A      2.189623   270A      2.202173   271A      2.223359  
     272A      2.227013   273A      2.237757   274A      2.245325  
     275A      2.286251   276A      2.305015   277A      2.343751  
     278A      2.353333   279A      2.388989   280A      2.392310  
     281A      2.420812   282A      2.440620   283A      2.454675  
     284A      2.493176   285A      2.501039   286A      2.502258  
     287A      2.535234   288A      2.550515   289A      2.559539  
     290A      2.582603   291A      2.601167   292A      2.609743  
     293A      2.621834   294A      2.623093   295A      2.632265  
     296A      2.639312   297A      2.663743   298A      2.688786  
     299A      2.696455   300A      2.698932   301A      2.716406  
     302A      2.728047   303A      2.750552   304A      2.762927  
     305A      2.764950   306A      2.768174   307A      2.789907  
     308A      2.824487   309A      2.833562   310A      2.839661  
     311A      2.851697   312A      2.873574   313A      2.880115  
     314A      2.892516   315A      2.926370   316A      2.945172  
     317A      2.951530   318A      2.970075   319A      2.984069  
     320A      2.996532   321A      3.010129   322A      3.019514  
     323A      3.046865   324A      3.071253   325A      3.096091  
     326A      3.141501   327A      3.166649   328A      3.186883  
     329A      3.205217   330A      3.221188   331A      3.266356  
     332A      3.307806   333A      3.318520   334A      3.329225  
     335A      3.371267   336A      3.376963   337A      3.419019  
     338A      3.424503   339A      3.440916   340A      3.489363  
     341A      3.501967   342A      3.516610   343A      3.539011  
     344A      3.574132   345A      3.586727   346A      3.609238  
     347A      3.614808   348A      3.643450   349A      3.647401  
     350A      3.677390   351A      3.680602   352A      3.684469  
     353A      3.759262   354A      3.780835   355A      3.812259  
     356A      3.842137   357A      3.859764   358A      3.873874  
     359A      3.898243   360A      3.926136   361A      3.938334  
     362A      3.953632   363A      3.963729   364A      3.982748  
     365A      4.000432   366A      4.040712   367A      4.048202  
     368A      4.057146   369A      4.070729   370A      4.091213  
     371A      4.098219   372A      4.114009   373A      4.132510  
     374A      4.143664   375A      4.154161   376A      4.164000  
     377A      4.169481   378A      4.180477   379A      4.207028  
     380A      4.260045   381A      4.286046   382A      4.313309  
     383A      4.333065   384A      4.335682   385A      4.342475  
     386A      4.374967   387A      4.413808   388A      4.428108  
     389A      4.444387   390A      4.447209   391A      4.492819  
     392A      4.513538   393A      4.520157   394A      4.525995  
     395A      4.547488   396A      4.553843   397A      4.578471  
     398A      4.587407   399A      4.617329   400A      4.631290  
     401A      4.671623   402A      4.682207   403A      4.689115  
     404A      4.724991   405A      4.733035   406A      4.735725  
     407A      4.768094   408A      4.770136   409A      4.803626  
     410A      4.813240   411A      4.824766   412A      4.866774  
     413A      4.875665   414A      4.907707   415A      4.932073  
     416A      4.936806   417A      4.981622   418A      4.995190  
     419A      5.034137   420A      5.039661   421A      5.045660  
     422A      5.076310   423A      5.080624   424A      5.098706  
     425A      5.117792   426A      5.132696   427A      5.142054  
     428A      5.157306   429A      5.183594   430A      5.239458  
     431A      5.262910   432A      5.272697   433A      5.344752  
     434A      5.348668   435A      5.349611   436A      5.366670  
     437A      5.384708   438A      5.385381   439A      5.406379  
     440A      5.445240   441A      5.449095   442A      5.496797  
     443A      5.509233   444A      5.521246   445A      5.541458  
     446A      5.547152   447A      5.594439   448A      5.637255  
     449A      5.643595   450A      5.687025   451A      5.688250  
     452A      5.707791   453A      5.717905   454A      5.824787  
     455A      5.830202   456A      5.945536   457A      5.964042  
     458A      5.972220   459A      6.011740   460A      6.066942  
     461A      6.113633   462A      6.121332   463A      6.205940  
     464A      6.226840   465A      6.241256   466A      6.243700  
     467A      6.265966   468A      6.393062   469A      6.439154  
     470A      6.548604   471A      6.618165   472A      6.683954  
     473A      6.702156   474A      6.732470   475A      6.749499  
     476A      6.762328   477A      6.839096   478A      6.873683  
     479A      6.885010   480A      6.885192   481A      6.899570  
     482A      7.070738   483A      7.098437   484A      7.119798  
     485A      7.186055   486A      7.206620   487A      7.224219  
     488A      7.264439   489A      7.325709   490A      7.353565  
     491A      7.373850   492A      7.396595   493A      7.420465  
     494A      7.558358   495A      7.563752   496A      7.583896  
     497A      7.628520   498A      7.677400   499A      7.704586  
     500A      7.730118   501A      7.771127   502A      7.795254  
     503A      7.831931   504A      7.836769   505A      7.845671  
     506A      7.851270   507A      7.899422   508A      7.917181  
     509A      8.004759   510A      8.036988   511A      8.070998  
     512A      8.091089   513A      8.164214   514A      8.200674  
     515A      8.233956   516A      8.271617   517A      8.309922  
     518A      8.324376   519A      8.371193   520A      8.536953  
     521A      8.636767   522A      8.933409   523A      9.071599  
     524A      9.130490   525A      9.720090   526A      9.900503  
     527A      9.918570   528A      9.999118   529A     10.033867  
     530A     10.123657   531A     10.266119   532A     10.332254  
     533A     10.384091   534A     10.611726   535A     10.999938  
     536A     11.068532   537A     11.826969   538A     11.965444  
     539A     12.038429   540A     12.610096   541A     13.062478  
     542A     13.473874   543A     14.006349   544A     14.420358  
     545A     15.439512   546A     16.140105   547A     17.661707  
     548A     19.381937   549A     51.096231   550A     53.997886  
     551A     65.322314   552A     68.874825  

    Final Occupation by Irrep:
              A 
    DOCC [    16 ]

  @DF-RHF Final Energy:  -227.90275039246876

   => Energetics <=

    Nuclear Repulsion Energy =            121.3503348148357333
    One-Electron Energy =                -552.1372900775356811
    Two-Electron Energy =                 202.8842048702312013
    Total Energy =                       -227.9027503924687608

Computation Completed


Properties will be evaluated at   0.000000,   0.000000,   0.000000 [a0]

Properties computed using the SCF density matrix

  Nuclear Dipole Moment: [e a0]
     X:   139.0614      Y:    -0.7186      Z:     0.6985

  Electronic Dipole Moment: [e a0]
     X:  -138.6227      Y:     1.4574      Z:    -0.5174

  Dipole Moment: [e a0]
     X:     0.4387      Y:     0.7388      Z:     0.1811     Total:     0.8782

  Dipole Moment: [D]
     X:     1.1151      Y:     1.8780      Z:     0.4603     Total:     2.2320


*** tstop() called on node36.bme.utexas.edu at Thu Apr 23 23:56:51 2020
Module time:
	user time   =     142.78 seconds =       2.38 minutes
	system time =       5.24 seconds =       0.09 minutes
	total time  =         20 seconds =       0.33 minutes
Total time:
	user time   =     549.25 seconds =       9.15 minutes
	system time =      19.51 seconds =       0.33 minutes
	total time  =         79 seconds =       1.32 minutes
  Constructing Basis Sets for SAPT...

   => Loading Basis Set <=

    Name: (AUG-CC-PVTZ AUX)
    Role: RIFIT
    Keyword: DF_BASIS_SAPT
    atoms 1, 5, 9, 13       entry C          line   148 file /home/liuchw/anaconda3/envs/psi4env/share/psi4/basis/aug-cc-pvtz-ri.gbs 
    atoms 2-3, 10-11        entry O          line   264 file /home/liuchw/anaconda3/envs/psi4env/share/psi4/basis/aug-cc-pvtz-ri.gbs 
    atoms 4, 6-8, 12, 14-16 entry H          line    30 file /home/liuchw/anaconda3/envs/psi4env/share/psi4/basis/aug-cc-pvtz-ri.gbs 


  //>>>>>>>>>>>>>>>>>>>>>>>>>>>>>>>>>>>//
  //               SAPT2+              //
  //<<<<<<<<<<<<<<<<<<<<<<<<<<<<<<<<<<<//


*** tstart() called on node36.bme.utexas.edu
*** at Thu Apr 23 23:56:52 2020

        SAPT2+  
    Ed Hohenstein
     6 June 2009

      Orbital Information
  --------------------------
    NSO        =       552
    NMO        =       552
    NRI        =      1216
    NOCC A     =        16
    NOCC B     =        16
    FOCC A     =         4
    FOCC B     =         4
    NVIR A     =       536
    NVIR B     =       536

    Estimated memory usage: 4560.0 MB

    Natural Orbital Cutoff:   1.000E-06
    Disp(T3) Truncation:            Yes
    CCD (vv|vv) Truncation:         Yes
    MBPT T2 Truncation:             Yes

    Monomer A: 299 virtual orbitals dropped
    Monomer B: 299 virtual orbitals dropped

    Elst10,r            =    -0.022315504167 [Eh]
    Exch10 (S^2)        =     0.009019857924 [Eh]
    Exch10              =     0.009056909779 [Eh]
    Ind20,r (A<-B)      =    -0.003195667027 [Eh]
    Ind20,r (B<-A)      =    -0.003195924518 [Eh]
    Ind20,r             =    -0.006391591545 [Eh]
    Exch-Ind20,r (A<-B) =     0.001216303279 [Eh]
    Exch-Ind20,r (B<-A) =     0.001216384578 [Eh]
    Exch-Ind20,r        =     0.002432687857 [Eh]
    Disp20              =    -0.005850535671 [Eh]
    Disp20 (NO)         =    -0.005155156449 [Eh]
    Exch-Disp20         =     0.000746595813 [Eh]
    Elst12,r            =     0.001870690207 [Eh]
    Exch11              =     0.000019575428 [Eh]
    Exch12              =     0.002308390631 [Eh]
    Ind22               =    -0.000974660306 [Eh]
    Disp21              =     0.000317885159 [Eh]
    Disp22 (SDQ)        =    -0.000241281185 [Eh]

    (i =   1 of  12)        101 seconds
    (i =   2 of  12)        202 seconds
    (i =   3 of  12)        303 seconds
    (i =   4 of  12)        403 seconds
    (i =   5 of  12)        504 seconds
    (i =   6 of  12)        603 seconds
    (i =   7 of  12)        703 seconds
    (i =   8 of  12)        804 seconds
    (i =   9 of  12)        905 seconds
    (i =  10 of  12)       1005 seconds
    (i =  11 of  12)       1105 seconds
    (i =  12 of  12)       1205 seconds

    Disp220 (T)         =    -0.000562686933 [Eh]

    (i =   1 of  12)        101 seconds
    (i =   2 of  12)        202 seconds
    (i =   3 of  12)        302 seconds
    (i =   4 of  12)        402 seconds
    (i =   5 of  12)        502 seconds
    (i =   6 of  12)        603 seconds
    (i =   7 of  12)        703 seconds
    (i =   8 of  12)        804 seconds
    (i =   9 of  12)        905 seconds
    (i =  10 of  12)       1005 seconds
    (i =  11 of  12)       1105 seconds
    (i =  12 of  12)       1205 seconds

    Disp202 (T)         =    -0.000562700393 [Eh]

    Disp22 (T)          =    -0.001125387327 [Eh]

    Est. Disp220 (T)    =    -0.000638587792 [Eh]
    Est. Disp202 (T)    =    -0.000638603068 [Eh]

    Est. Disp22 (T)     =    -0.001277190860 [Eh]

    SAPT Results 
  --------------------------------------------------------------------------------------------------------
    Electrostatics                -20.44481396 [mEh]     -12.82931445 [kcal/mol]     -53.67785166 [kJ/mol]
      Elst10,r                    -22.31550417 [mEh]     -14.00319028 [kcal/mol]     -58.58934812 [kJ/mol]
      Elst12,r                      1.87069021 [mEh]       1.17387583 [kcal/mol]       4.91149646 [kJ/mol]

    Exchange                       11.38487584 [mEh]       7.14411745 [kcal/mol]      29.89098740 [kJ/mol]
      Exch10                        9.05690978 [mEh]       5.68329669 [kcal/mol]      23.77891335 [kJ/mol]
      Exch10(S^2)                   9.01985792 [mEh]       5.66004630 [kcal/mol]      23.68163372 [kJ/mol]
      Exch11(S^2)                   0.01957543 [mEh]       0.01228377 [kcal/mol]       0.05139528 [kJ/mol]
      Exch12(S^2)                   2.30839063 [mEh]       1.44853699 [kcal/mol]       6.06067877 [kJ/mol]

    Induction                      -6.40948191 [mEh]      -4.02201062 [kcal/mol]     -16.82809245 [kJ/mol]
      Ind20,r                      -6.39159154 [mEh]      -4.01078425 [kcal/mol]     -16.78112129 [kJ/mol]
      Ind22                        -0.97466031 [mEh]      -0.61160858 [kcal/mol]      -2.55897028 [kJ/mol]
      Exch-Ind20,r                  2.43268786 [mEh]       1.52653468 [kcal/mol]       6.38702109 [kJ/mol]
      Exch-Ind22                    0.37096305 [mEh]       0.23278283 [kcal/mol]       0.97396335 [kJ/mol]
      delta HF,r (2)               -1.84688097 [mEh]      -1.15893531 [kcal/mol]      -4.84898532 [kJ/mol]

    Dispersion                     -6.30452674 [mEh]      -3.95615026 [kcal/mol]     -16.55253268 [kJ/mol]
      Disp20                       -5.85053567 [mEh]      -3.67126656 [kcal/mol]     -15.36057929 [kJ/mol]
      Disp21                        0.31788516 [mEh]       0.19947595 [kcal/mol]       0.83460737 [kJ/mol]
      Disp22 (SDQ)                 -0.24128119 [mEh]      -0.15140623 [kcal/mol]      -0.63348366 [kJ/mol]
      Disp22 (T)                   -1.12538733 [mEh]      -0.70619121 [kcal/mol]      -2.95470402 [kJ/mol]
      Est. Disp22 (T)              -1.27719086 [mEh]      -0.80144936 [kcal/mol]      -3.35326414 [kJ/mol]
      Exch-Disp20                   0.74659581 [mEh]       0.46849595 [kcal/mol]       1.96018704 [kJ/mol]

  Total HF                        -19.06437905 [mEh]     -11.96307846 [kcal/mol]     -50.05352029 [kJ/mol]
  Total SAPT0                     -24.16831890 [mEh]     -15.16584908 [kcal/mol]     -63.45391254 [kJ/mol]
  Total SAPT2                     -20.57335989 [mEh]     -12.90997824 [kcal/mol]     -54.01534896 [kJ/mol]
  Total SAPT2+                    -21.77394678 [mEh]     -13.66335788 [kcal/mol]     -57.16748939 [kJ/mol]

  Special recipe for scaled SAPT0 (see Manual):
    Electrostatics sSAPT0         -22.31550417 [mEh]     -14.00319028 [kcal/mol]     -58.58934812 [kJ/mol]
    Exchange sSAPT0                 9.05690978 [mEh]       5.68329669 [kcal/mol]      23.77891335 [kJ/mol]
    Induction sSAPT0               -5.77568229 [mEh]      -3.62429535 [kcal/mol]     -15.16405176 [kJ/mol]
    Dispersion sSAPT0              -5.09470139 [mEh]      -3.19697339 [kcal/mol]     -13.37613666 [kJ/mol]
  Total sSAPT0                    -24.12897807 [mEh]     -15.14116233 [kcal/mol]     -63.35062319 [kJ/mol]
  --------------------------------------------------------------------------------------------------------

*** tstop() called on node36.bme.utexas.edu at Fri Apr 24 00:48:06 2020
Module time:
	user time   =   22917.63 seconds =     381.96 minutes
	system time =     786.32 seconds =      13.11 minutes
	total time  =       3074 seconds =      51.23 minutes
Total time:
	user time   =   23467.89 seconds =     391.13 minutes
	system time =     805.91 seconds =      13.43 minutes
	total time  =       3154 seconds =      52.57 minutes

    Psi4 stopped on: Friday, 24 April 2020 12:48AM
    Psi4 wall time for execution: 0:52:34.44

*** Psi4 exiting successfully. Buy a developer a beer!
