    -----------------------------------------------------------------------
          PSI4: An Open-Source Ab Initio Electronic Structure Package
                              PSI 4.0.0-beta4 Driver

    J. M. Turney, A. C. Simmonett, R. M. Parrish, E. G. Hohenstein,
    F. A. Evangelista, J. T. Fermann, B. J. Mintz, L. A. Burns, J. J. Wilke,
    M. L. Abrams, N. J. Russ, M. L. Leininger, C. L. Janssen, E. T. Seidl,
    W. D. Allen, H. F. Schaefer, R. A. King, E. F. Valeev, C. D. Sherrill,
    and T. D. Crawford, WIREs Comput. Mol. Sci., (2011) (doi: 10.1002/wcms.93)

                         Additional Contributions by
    A. E. DePrince, M. Saitow, U. Bozkaya, A. Yu. Sokolov
    -----------------------------------------------------------------------

    Process ID:   3948
    PSI4DATADIR: /home/xzhu216/psi4/psi4-install/share/psi

    Using LocalCommunicator (Number of processes = 1)

    Memory level set to 256.000 MB

  ==> Input File <==

--------------------------------------------------------------------------
#psi4
#
memory 20 gb

molecule AcOH_AcOH {
0 1
C   -1.061709204   1.297140572   0.292060003
O   -0.358161116   2.270458613   0.531812668
O   -0.589303516   0.094917758   0.003788813
H    0.404435659   0.127722621   0.018411838
C   -2.558427798   1.342549823   0.296257320
H   -2.895997978   2.347464002   0.518316340
H   -2.932889278   1.022390451  -0.672995551
H   -2.937211960   0.644910433   1.039557084
--
0 1
C    2.715089441   1.108090636   0.270615466
O    2.011471076   0.134776148   0.030827864
O    2.242663107   2.310526024   0.558393937
H    1.248874567   2.277627790   0.543993433
C    4.211801889   1.062187890   0.268651071
H    4.549381453   0.060868697   0.031125576
H    4.593300434   1.772540829  -0.460817827
H    4.583318200   1.364882407   1.244706432
units angstrom
no_reorient  #important for SAPT in psi4, default
symmetry c1  #important for SAPT in psi4, default
}

set {
basis aug-cc-pVTZ
scf_type DF
freeze_core True
}
energy('sapt2+')
--------------------------------------------------------------------------

  Memory set to  20.000 GiB by Python script.

  //>>>>>>>>>>>>>>>>>>>>>>>>>>>>>>>>>>>//
  //              Dimer HF             //
  //<<<<<<<<<<<<<<<<<<<<<<<<<<<<<<<<<<<//


  No DF_BASIS_SCF auxiliary basis selected, defaulting to aug-cc-pvtz-jkfit


*** tstart() called on node125.bme.utexas.edu
*** at Mon Oct  7 12:55:50 2013


         ---------------------------------------------------------
                                   SCF
            by Justin Turney, Rob Parrish, and Andy Simmonett
                              RHF Reference
                        8 Threads,  20000 MiB Core
         ---------------------------------------------------------

  ==> Geometry <==

    Molecular point group: c1
    Full point group: C1

    Geometry (in Angstrom), charge = 0, multiplicity = 1:

       Center              X                  Y                   Z       
    ------------   -----------------  -----------------  -----------------
           C         -1.888383991789     0.094566639237     0.010472011337
           O         -1.184835903789     1.067884680237     0.250224676337
           O         -1.415978303789    -1.107656174763    -0.277799178663
           H         -0.422239128789    -1.074851311763    -0.263176153663
           C         -3.385102585789     0.139975890237     0.014669328337
           H         -3.722672765789     1.144890069237     0.236728348337
           H         -3.759564065789    -0.180183481763    -0.954583542663
           H         -3.763886747789    -0.557663499763     0.757969092337
           C          1.888414653211    -0.094483296763    -0.010972525663
           O          1.184796288211    -1.067797784763    -0.250760127663
           O          1.415988319211     1.107952091237     0.276805945337
           H          0.422199779211     1.075053857237     0.262405441337
           C          3.385127101211    -0.140386042763    -0.012936920663
           H          3.722706665211    -1.141705235763    -0.250462415663
           H          3.766625646211     0.569966896237    -0.742405818663
           H          3.756643412211     0.162308474237     0.963118440337

  Running in c1 symmetry.

  Nuclear repulsion =  384.261455918102229

  Charge       = 0
  Multiplicity = 1
  Electrons    = 64
  Nalpha       = 32
  Nbeta        = 32

  ==> Algorithm <==

  SCF Algorithm Type is DF.
  DIIS enabled.
  MOM disabled.
  Fractional occupation disabled.
  Guess Type is CORE.
  Energy threshold   = 1.00e-08
  Density threshold  = 1.00e-08
  Integral threshold = 0.00e+00

  ==> Primary Basis <==

  Basis Set: AUG-CC-PVTZ
    Number of shells: 184
    Number of basis function: 552
    Number of Cartesian functions: 640
    Spherical Harmonics?: true
    Max angular momentum: 3

  ==> Pre-Iterations <==

   -------------------------------------------------------
    Irrep   Nso     Nmo     Nalpha   Nbeta   Ndocc  Nsocc
   -------------------------------------------------------
     A        552     552       0       0       0       0
   -------------------------------------------------------
    Total     552     552      32      32      32       0
   -------------------------------------------------------

 OEINTS: Wrapper to libmints.
   by Justin Turney

   Calculation information:
      Number of atoms:                  16
      Number of AO shells:             184
      Number of SO shells:             184
      Number of primitives:            328
      Number of atomic orbitals:       640
      Number of basis functions:       552

      Number of irreps:                  1
      Number of functions per irrep: [ 552 ]

      Overlap, kinetic, potential, dipole, and quadrupole integrals
        stored in file 35.

  ==> Integral Setup <==

  ==> DFJK: Density-Fitted J/K Matrices <==

    J tasked:                  Yes
    K tasked:                  Yes
    wK tasked:                  No
    OpenMP threads:              8
    Integrals threads:           8
    Memory (MB):             14305
    Algorithm:                Core
    Integral Cache:           SAVE
    Schwarz Cutoff:          0E+00
    Fitting Condition:       1E-12

   => Auxiliary Basis Set <=

  Basis Set: aug-cc-pvtz-jkfit
    Number of shells: 352
    Number of basis function: 1200
    Number of Cartesian functions: 1488
    Spherical Harmonics?: true
    Max angular momentum: 4

  Minimum eigenvalue in the overlap matrix is 6.3129983465E-06.
  Using Symmetric Orthogonalization.
  SCF Guess: Core (One-Electron) Hamiltonian.

  Guess energy:  -376.59245294905099

  ==> Iterations <==

                        Total Energy        Delta E     RMS |[F,P]|

   @RHF iter   1:  -339.30414497022139   -3.39304e+02   3.35943e-02 
   @RHF iter   2:  -275.45763102940123    6.38465e+01   1.98656e-02 DIIS
   @RHF iter   3:  -386.90674082576140   -1.11449e+02   1.58750e-02 DIIS
   @RHF iter   4:  -444.93122682491003   -5.80245e+01   8.05784e-03 DIIS
   @RHF iter   5:  -455.06120687959367   -1.01300e+01   2.25647e-03 DIIS
   @RHF iter   6:  -455.64975924473515   -5.88552e-01   1.12810e-03 DIIS
   @RHF iter   7:  -455.78612976902991   -1.36371e-01   4.65951e-04 DIIS
   @RHF iter   8:  -455.82849899513064   -4.23692e-02   5.68707e-05 DIIS
   @RHF iter   9:  -455.82927613613379   -7.77141e-04   1.45938e-05 DIIS
   @RHF iter  10:  -455.82933910366501   -6.29675e-05   6.22481e-06 DIIS
   @RHF iter  11:  -455.82934604718628   -6.94352e-06   2.85995e-06 DIIS
   @RHF iter  12:  -455.82934741554448   -1.36836e-06   6.29582e-07 DIIS
   @RHF iter  13:  -455.82934752126334   -1.05719e-07   1.39145e-07 DIIS
   @RHF iter  14:  -455.82934752832716   -7.06382e-09   4.67505e-08 DIIS
   @RHF iter  15:  -455.82934752921733   -8.90168e-10   1.77416e-08 DIIS
   @RHF iter  16:  -455.82934752937581   -1.58479e-10   6.67006e-09 DIIS

  ==> Post-Iterations <==

	Orbital Energies (a.u.)
	-----------------------

	Doubly Occupied:                                                      

	   1A    -20.595277     2A    -20.595270     3A    -20.559079  
	   4A    -20.559065     5A    -11.397490     6A    -11.397471  
	   7A    -11.243826     8A    -11.243821     9A     -1.472985  
	  10A     -1.457574    11A     -1.372296    12A     -1.354965  
	  13A     -1.035127    14A     -1.025577    15A     -0.841183  
	  16A     -0.815163    17A     -0.751751    18A     -0.696208  
	  19A     -0.685351    20A     -0.674526    21A     -0.655920  
	  22A     -0.648416    23A     -0.591251    24A     -0.582152  
	  25A     -0.573790    26A     -0.561402    27A     -0.557350  
	  28A     -0.556422    29A     -0.494607    30A     -0.481240  
	  31A     -0.474809    32A     -0.455313  

	Virtual:                                                              

	  33A      0.028889    34A      0.031582    35A      0.043784  
	  36A      0.045673    37A      0.050648    38A      0.052364  
	  39A      0.055136    40A      0.077325    41A      0.086235  
	  42A      0.099025    43A      0.101701    44A      0.120658  
	  45A      0.120678    46A      0.121355    47A      0.130012  
	  48A      0.131106    49A      0.135926    50A      0.140681  
	  51A      0.141833    52A      0.148542    53A      0.148748  
	  54A      0.158051    55A      0.167414    56A      0.178310  
	  57A      0.182226    58A      0.190164    59A      0.197587  
	  60A      0.198804    61A      0.209002    62A      0.209446  
	  63A      0.232435    64A      0.234986    65A      0.237510  
	  66A      0.239185    67A      0.249221    68A      0.257865  
	  69A      0.265282    70A      0.278201    71A      0.287496  
	  72A      0.290602    73A      0.294207    74A      0.312261  
	  75A      0.316083    76A      0.326252    77A      0.326508  
	  78A      0.328447    79A      0.332665    80A      0.333829  
	  81A      0.345979    82A      0.347529    83A      0.349145  
	  84A      0.358803    85A      0.363576    86A      0.364914  
	  87A      0.374735    88A      0.377411    89A      0.386669  
	  90A      0.386722    91A      0.405511    92A      0.409542  
	  93A      0.419276    94A      0.424554    95A      0.425519  
	  96A      0.429163    97A      0.429387    98A      0.440162  
	  99A      0.446567   100A      0.454530   101A      0.463539  
	 102A      0.464721   103A      0.473468   104A      0.474137  
	 105A      0.474648   106A      0.486358   107A      0.488742  
	 108A      0.490913   109A      0.507299   110A      0.508418  
	 111A      0.513313   112A      0.519467   113A      0.525304  
	 114A      0.542867   115A      0.546607   116A      0.549329  
	 117A      0.552645   118A      0.561169   119A      0.563227  
	 120A      0.576667   121A      0.579922   122A      0.587450  
	 123A      0.590734   124A      0.594463   125A      0.619141  
	 126A      0.624054   127A      0.637408   128A      0.656093  
	 129A      0.670292   130A      0.683320   131A      0.692272  
	 132A      0.717466   133A      0.722344   134A      0.740649  
	 135A      0.759059   136A      0.766025   137A      0.769681  
	 138A      0.778418   139A      0.784811   140A      0.786561  
	 141A      0.791635   142A      0.796124   143A      0.808489  
	 144A      0.811891   145A      0.812715   146A      0.825242  
	 147A      0.826477   148A      0.829299   149A      0.833611  
	 150A      0.851790   151A      0.863906   152A      0.867937  
	 153A      0.869607   154A      0.889536   155A      0.897095  
	 156A      0.904248   157A      0.908366   158A      0.910206  
	 159A      0.913056   160A      0.917156   161A      0.918679  
	 162A      0.929714   163A      0.935444   164A      0.941153  
	 165A      0.957752   166A      0.975942   167A      0.978305  
	 168A      0.981429   169A      0.989420   170A      0.991168  
	 171A      1.008928   172A      1.010118   173A      1.015597  
	 174A      1.021130   175A      1.032283   176A      1.035003  
	 177A      1.038125   178A      1.042008   179A      1.048712  
	 180A      1.067004   181A      1.072746   182A      1.079795  
	 183A      1.093038   184A      1.106038   185A      1.111710  
	 186A      1.117403   187A      1.117948   188A      1.124278  
	 189A      1.138839   190A      1.142387   191A      1.151308  
	 192A      1.171948   193A      1.173449   194A      1.184135  
	 195A      1.191293   196A      1.198257   197A      1.202077  
	 198A      1.218494   199A      1.224924   200A      1.227701  
	 201A      1.242169   202A      1.243866   203A      1.252831  
	 204A      1.276742   205A      1.288144   206A      1.288315  
	 207A      1.301340   208A      1.311866   209A      1.312469  
	 210A      1.326809   211A      1.342841   212A      1.349512  
	 213A      1.350642   214A      1.351854   215A      1.375318  
	 216A      1.408015   217A      1.408738   218A      1.429204  
	 219A      1.444858   220A      1.457312   221A      1.460762  
	 222A      1.467824   223A      1.488949   224A      1.496729  
	 225A      1.511716   226A      1.512612   227A      1.539676  
	 228A      1.541019   229A      1.542200   230A      1.548653  
	 231A      1.563512   232A      1.575672   233A      1.578875  
	 234A      1.594686   235A      1.601928   236A      1.608853  
	 237A      1.625980   238A      1.628403   239A      1.638920  
	 240A      1.639690   241A      1.665279   242A      1.665620  
	 243A      1.670841   244A      1.687365   245A      1.694135  
	 246A      1.695248   247A      1.713964   248A      1.717897  
	 249A      1.719625   250A      1.721098   251A      1.735474  
	 252A      1.759771   253A      1.762104   254A      1.775645  
	 255A      1.783315   256A      1.789354   257A      1.810482  
	 258A      1.813865   259A      1.847824   260A      1.850208  
	 261A      1.852131   262A      1.853534   263A      1.886407  
	 264A      1.904465   265A      1.905417   266A      1.913987  
	 267A      1.921053   268A      1.954326   269A      1.955909  
	 270A      1.956027   271A      1.962681   272A      1.978692  
	 273A      1.985197   274A      1.999526   275A      2.059075  
	 276A      2.088488   277A      2.090977   278A      2.098268  
	 279A      2.113172   280A      2.147002   281A      2.147881  
	 282A      2.172125   283A      2.176024   284A      2.188998  
	 285A      2.196332   286A      2.201618   287A      2.224150  
	 288A      2.231662   289A      2.235741   290A      2.275386  
	 291A      2.276857   292A      2.310916   293A      2.327237  
	 294A      2.358675   295A      2.361954   296A      2.392269  
	 297A      2.400731   298A      2.403578   299A      2.460907  
	 300A      2.466543   301A      2.473092   302A      2.543441  
	 303A      2.556910   304A      2.562339   305A      2.569542  
	 306A      2.586618   307A      2.589144   308A      2.603605  
	 309A      2.618618   310A      2.625821   311A      2.643100  
	 312A      2.647745   313A      2.672977   314A      2.676782  
	 315A      2.702368   316A      2.724011   317A      2.725531  
	 318A      2.757014   319A      2.796858   320A      2.798965  
	 321A      2.806609   322A      2.808100   323A      2.808417  
	 324A      2.827239   325A      2.852176   326A      2.868892  
	 327A      2.890338   328A      2.911606   329A      2.917577  
	 330A      2.938755   331A      2.958098   332A      2.983939  
	 333A      2.985708   334A      3.003083   335A      3.014557  
	 336A      3.028834   337A      3.047530   338A      3.112472  
	 339A      3.127619   340A      3.171173   341A      3.186186  
	 342A      3.190798   343A      3.217344   344A      3.218650  
	 345A      3.242191   346A      3.269278   347A      3.278735  
	 348A      3.282490   349A      3.296027   350A      3.339075  
	 351A      3.375911   352A      3.392247   353A      3.414905  
	 354A      3.437683   355A      3.478125   356A      3.487438  
	 357A      3.497480   358A      3.504716   359A      3.531656  
	 360A      3.532144   361A      3.568200   362A      3.574940  
	 363A      3.618301   364A      3.620346   365A      3.632126  
	 366A      3.637705   367A      3.643899   368A      3.652687  
	 369A      3.659719   370A      3.675304   371A      3.683570  
	 372A      3.696215   373A      3.697675   374A      3.740025  
	 375A      3.847242   376A      3.850397   377A      3.857955  
	 378A      3.870377   379A      3.885106   380A      3.895413  
	 381A      3.912581   382A      3.928125   383A      3.950345  
	 384A      3.959478   385A      3.959766   386A      3.964605  
	 387A      3.969448   388A      4.020571   389A      4.030162  
	 390A      4.054154   391A      4.067721   392A      4.074488  
	 393A      4.082103   394A      4.083765   395A      4.094910  
	 396A      4.108894   397A      4.129084   398A      4.137483  
	 399A      4.153749   400A      4.166568   401A      4.178850  
	 402A      4.198333   403A      4.245180   404A      4.249246  
	 405A      4.267441   406A      4.294774   407A      4.303812  
	 408A      4.325219   409A      4.337711   410A      4.340055  
	 411A      4.395952   412A      4.396562   413A      4.413238  
	 414A      4.414095   415A      4.453656   416A      4.464686  
	 417A      4.466164   418A      4.491822   419A      4.512861  
	 420A      4.553651   421A      4.557772   422A      4.594643  
	 423A      4.619436   424A      4.625135   425A      4.663897  
	 426A      4.672934   427A      4.701888   428A      4.704182  
	 429A      4.710916   430A      4.714624   431A      4.775686  
	 432A      4.782374   433A      4.798244   434A      4.801146  
	 435A      4.822055   436A      4.825596   437A      4.828072  
	 438A      4.852118   439A      4.859753   440A      4.883105  
	 441A      4.925550   442A      5.009243   443A      5.016922  
	 444A      5.017273   445A      5.060348   446A      5.074076  
	 447A      5.076255   448A      5.122685   449A      5.127431  
	 450A      5.130459   451A      5.134370   452A      5.137358  
	 453A      5.187966   454A      5.232101   455A      5.264106  
	 456A      5.277394   457A      5.282171   458A      5.350169  
	 459A      5.361628   460A      5.365738   461A      5.396298  
	 462A      5.439855   463A      5.483733   464A      5.512271  
	 465A      5.524563   466A      5.571822   467A      5.602036  
	 468A      5.638984   469A      5.651865   470A      5.685153  
	 471A      5.687924   472A      5.702489   473A      5.723295  
	 474A      5.760627   475A      5.775540   476A      5.783858  
	 477A      5.841848   478A      5.927044   479A      6.030792  
	 480A      6.037519   481A      6.055642   482A      6.120166  
	 483A      6.125580   484A      6.134077   485A      6.135643  
	 486A      6.150167   487A      6.262843   488A      6.266707  
	 489A      6.417116   490A      6.418658   491A      6.623953  
	 492A      6.652567   493A      6.681764   494A      6.703006  
	 495A      6.744508   496A      6.756436   497A      6.797628  
	 498A      6.823124   499A      6.849259   500A      6.903423  
	 501A      6.906470   502A      6.936449   503A      6.950133  
	 504A      6.981506   505A      6.990954   506A      7.007539  
	 507A      7.066055   508A      7.111712   509A      7.185092  
	 510A      7.189071   511A      7.243977   512A      7.247401  
	 513A      7.319348   514A      7.345645   515A      7.351753  
	 516A      7.373175   517A      7.374727   518A      7.397763  
	 519A      7.450344   520A      7.466980   521A      7.468225  
	 522A      7.487626   523A      7.542388   524A      7.543673  
	 525A      7.585898   526A      7.609628   527A      7.670077  
	 528A      7.717632   529A      7.728549   530A      7.771527  
	 531A      7.787681   532A      7.788262   533A      7.805135  
	 534A      7.923563   535A      7.937541   536A      8.033280  
	 537A      8.126752   538A      8.161821   539A      8.278720  
	 540A      8.289838   541A      8.362055   542A      8.440241  
	 543A      8.945118   544A      8.980839   545A     15.570543  
	 546A     15.753568   547A     16.202230   548A     16.696952  
	 549A     17.768805   550A     17.955566   551A     19.787589  
	 552A     20.193860  

	Final Occupation by Irrep:
	          A 
	DOCC [    32 ]

  Energy converged.

  @RHF Final Energy:  -455.82934752937581

   => Energetics <=

    Nuclear Repulsion Energy =            384.2614559181022287
    One-Electron Energy =               -1387.3682611219301180
    Two-Electron Energy =                 547.2774576744509432
    DFT Exchange-Correlation Energy =       0.0000000000000000
    Empirical Dispersion Energy =           0.0000000000000000
    Total Energy =                       -455.8293475293769461



Properties will be evaluated at   0.000000,   0.000000,   0.000000 Bohr
  ==> Properties <==


Properties computed using the SCF density density matrix
  Nuclear Dipole Moment: (a.u.)
     X:    -0.0002      Y:    -0.0020      Z:     0.0090

  Electronic Dipole Moment: (a.u.)
     X:     0.0003      Y:     0.0016      Z:    -0.0074

  Dipole Moment: (a.u.)
     X:     0.0001      Y:    -0.0005      Z:     0.0016     Total:     0.0017

  Dipole Moment: (Debye)
     X:     0.0003      Y:    -0.0012      Z:     0.0042     Total:     0.0043


  Saving occupied orbitals to File 180.

  Saving SAPT 2-DIMER file.

*** tstop() called on node125.bme.utexas.edu at Mon Oct  7 12:57:02 2013
Module time:
	user time   =     508.91 seconds =       8.48 minutes
	system time =       5.64 seconds =       0.09 minutes
	total time  =         72 seconds =       1.20 minutes
Total time:
	user time   =     508.91 seconds =       8.48 minutes
	system time =       5.64 seconds =       0.09 minutes
	total time  =         72 seconds =       1.20 minutes

  //>>>>>>>>>>>>>>>>>>>>>>>>>>>>>>>>>>>//
  //            Monomer A HF           //
  //<<<<<<<<<<<<<<<<<<<<<<<<<<<<<<<<<<<//


  No DF_BASIS_SCF auxiliary basis selected, defaulting to aug-cc-pvtz-jkfit


*** tstart() called on node125.bme.utexas.edu
*** at Mon Oct  7 12:57:02 2013


         ---------------------------------------------------------
                                   SCF
            by Justin Turney, Rob Parrish, and Andy Simmonett
                              RHF Reference
                        8 Threads,  20000 MiB Core
         ---------------------------------------------------------

  ==> Geometry <==

    Molecular point group: c1
    Full point group: C1

    Geometry (in Angstrom), charge = 0, multiplicity = 1:

       Center              X                  Y                   Z       
    ------------   -----------------  -----------------  -----------------
           C         -1.888383991789     0.094566639237     0.010472011337
           O         -1.184835903789     1.067884680237     0.250224676337
           O         -1.415978303789    -1.107656174763    -0.277799178663
           H         -0.422239128789    -1.074851311763    -0.263176153663
           C         -3.385102585789     0.139975890237     0.014669328337
           H         -3.722672765789     1.144890069237     0.236728348337
           H         -3.759564065789    -0.180183481763    -0.954583542663
           H         -3.763886747789    -0.557663499763     0.757969092337
           C(Gh)      1.888414653211    -0.094483296763    -0.010972525663
           O(Gh)      1.184796288211    -1.067797784763    -0.250760127663
           O(Gh)      1.415988319211     1.107952091237     0.276805945337
           H(Gh)      0.422199779211     1.075053857237     0.262405441337
           C(Gh)      3.385127101211    -0.140386042763    -0.012936920663
           H(Gh)      3.722706665211    -1.141705235763    -0.250462415663
           H(Gh)      3.766625646211     0.569966896237    -0.742405818663
           H(Gh)      3.756643412211     0.162308474237     0.963118440337

  Running in c1 symmetry.

  Nuclear repulsion =  121.353542000831141

  Charge       = 0
  Multiplicity = 1
  Electrons    = 32
  Nalpha       = 16
  Nbeta        = 16

  ==> Algorithm <==

  SCF Algorithm Type is DF.
  DIIS enabled.
  MOM disabled.
  Fractional occupation disabled.
  Guess Type is CORE.
  Energy threshold   = 1.00e-08
  Density threshold  = 1.00e-08
  Integral threshold = 0.00e+00

  ==> Primary Basis <==

  Basis Set: AUG-CC-PVTZ
    Number of shells: 184
    Number of basis function: 552
    Number of Cartesian functions: 640
    Spherical Harmonics?: true
    Max angular momentum: 3

  ==> Pre-Iterations <==

   -------------------------------------------------------
    Irrep   Nso     Nmo     Nalpha   Nbeta   Ndocc  Nsocc
   -------------------------------------------------------
     A        552     552       0       0       0       0
   -------------------------------------------------------
    Total     552     552      16      16      16       0
   -------------------------------------------------------

 OEINTS: Wrapper to libmints.
   by Justin Turney

   Calculation information:
      Number of atoms:                  16
      Number of AO shells:             184
      Number of SO shells:             184
      Number of primitives:            328
      Number of atomic orbitals:       640
      Number of basis functions:       552

      Number of irreps:                  1
      Number of functions per irrep: [ 552 ]

      Overlap, kinetic, potential, dipole, and quadrupole integrals
        stored in file 35.

  ==> Integral Setup <==

  ==> DFJK: Density-Fitted J/K Matrices <==

    J tasked:                  Yes
    K tasked:                  Yes
    wK tasked:                  No
    OpenMP threads:              8
    Integrals threads:           8
    Memory (MB):             14305
    Algorithm:                Core
    Integral Cache:           LOAD
    Schwarz Cutoff:          0E+00
    Fitting Condition:       1E-12

   => Auxiliary Basis Set <=

  Basis Set: aug-cc-pvtz-jkfit
    Number of shells: 352
    Number of basis function: 1200
    Number of Cartesian functions: 1488
    Spherical Harmonics?: true
    Max angular momentum: 4

  Minimum eigenvalue in the overlap matrix is 6.3129983466E-06.
  Using Symmetric Orthogonalization.
  SCF Guess: Core (One-Electron) Hamiltonian.

  Guess energy:  -183.32913152326833

  ==> Iterations <==

                        Total Energy        Delta E     RMS |[F,P]|

   @RHF iter   1:  -170.69352523324480   -1.70694e+02   2.38385e-02 
   @RHF iter   2:  -145.23962204663744    2.54539e+01   1.41103e-02 DIIS
   @RHF iter   3:  -199.95659094606251   -5.47170e+01   1.04652e-02 DIIS
   @RHF iter   4:  -224.72108756773068   -2.47645e+01   4.71237e-03 DIIS
   @RHF iter   5:  -227.36774541821600   -2.64666e+00   2.15646e-03 DIIS
   @RHF iter   6:  -227.85872767878121   -4.90982e-01   5.59065e-04 DIIS
   @RHF iter   7:  -227.89485560081110   -3.61279e-02   2.13710e-04 DIIS
   @RHF iter   8:  -227.90167738177237   -6.82178e-03   6.11486e-05 DIIS
   @RHF iter   9:  -227.90272653584779   -1.04915e-03   1.79160e-05 DIIS
   @RHF iter  10:  -227.90288557037545   -1.59035e-04   6.49112e-06 DIIS
   @RHF iter  11:  -227.90290265424991   -1.70839e-05   2.43456e-06 DIIS
   @RHF iter  12:  -227.90290504297715   -2.38873e-06   7.71112e-07 DIIS
   @RHF iter  13:  -227.90290526273989   -2.19763e-07   2.44309e-07 DIIS
   @RHF iter  14:  -227.90290528592979   -2.31899e-08   5.66996e-08 DIIS
   @RHF iter  15:  -227.90290528724981   -1.32002e-09   1.64169e-08 DIIS
   @RHF iter  16:  -227.90290528734803   -9.82254e-11   3.93948e-09 DIIS

  ==> Post-Iterations <==

	Orbital Energies (a.u.)
	-----------------------

	Doubly Occupied:                                                      

	   1A    -20.624995     2A    -20.545233     3A    -11.389362  
	   4A    -11.243646     5A     -1.471751     6A     -1.354652  
	   7A     -1.028768     8A     -0.833702     9A     -0.705208  
	  10A     -0.682430    11A     -0.656288    12A     -0.580178  
	  13A     -0.572698    14A     -0.565061    15A     -0.477817  
	  16A     -0.452408  

	Virtual:                                                              

	  17A      0.020764    18A      0.029831    19A      0.040583  
	  20A      0.042395    21A      0.051198    22A      0.051245  
	  23A      0.052260    24A      0.074704    25A      0.080778  
	  26A      0.088496    27A      0.093783    28A      0.099703  
	  29A      0.117131    30A      0.117211    31A      0.122072  
	  32A      0.128184    33A      0.128788    34A      0.132943  
	  35A      0.138463    36A      0.142124    37A      0.147427  
	  38A      0.159567    39A      0.161148    40A      0.170108  
	  41A      0.184111    42A      0.193127    43A      0.197037  
	  44A      0.197545    45A      0.210663    46A      0.211536  
	  47A      0.214109    48A      0.223087    49A      0.232938  
	  50A      0.238631    51A      0.243878    52A      0.252989  
	  53A      0.258604    54A      0.265803    55A      0.269536  
	  56A      0.286087    57A      0.292496    58A      0.295439  
	  59A      0.309139    60A      0.310529    61A      0.321269  
	  62A      0.325748    63A      0.330561    64A      0.331925  
	  65A      0.338932    66A      0.341314    67A      0.357404  
	  68A      0.362825    69A      0.365377    70A      0.370426  
	  71A      0.377320    72A      0.380159    73A      0.384045  
	  74A      0.391194    75A      0.399079    76A      0.405713  
	  77A      0.407789    78A      0.419823    79A      0.426463  
	  80A      0.434922    81A      0.442092    82A      0.446332  
	  83A      0.446951    84A      0.448334    85A      0.455153  
	  86A      0.455393    87A      0.467973    88A      0.470674  
	  89A      0.473573    90A      0.483974    91A      0.497310  
	  92A      0.498495    93A      0.507937    94A      0.509797  
	  95A      0.514190    96A      0.527144    97A      0.541494  
	  98A      0.543629    99A      0.546856   100A      0.552651  
	 101A      0.553592   102A      0.570132   103A      0.582497  
	 104A      0.583412   105A      0.600555   106A      0.606534  
	 107A      0.618424   108A      0.620573   109A      0.624788  
	 110A      0.649298   111A      0.653435   112A      0.662891  
	 113A      0.666076   114A      0.686310   115A      0.690305  
	 116A      0.704301   117A      0.718108   118A      0.725786  
	 119A      0.735546   120A      0.758914   121A      0.769379  
	 122A      0.774041   123A      0.782945   124A      0.804125  
	 125A      0.805765   126A      0.808922   127A      0.810773  
	 128A      0.815861   129A      0.826223   130A      0.830215  
	 131A      0.839050   132A      0.863967   133A      0.876598  
	 134A      0.877490   135A      0.882586   136A      0.889444  
	 137A      0.906601   138A      0.913824   139A      0.917294  
	 140A      0.922034   141A      0.930425   142A      0.941477  
	 143A      0.945029   144A      0.946623   145A      0.952090  
	 146A      0.960507   147A      0.974195   148A      0.975238  
	 149A      0.981415   150A      0.990256   151A      0.996869  
	 152A      1.004319   153A      1.008763   154A      1.027179  
	 155A      1.036206   156A      1.037220   157A      1.045261  
	 158A      1.048000   159A      1.062488   160A      1.065637  
	 161A      1.067896   162A      1.072659   163A      1.091236  
	 164A      1.092965   165A      1.095274   166A      1.114197  
	 167A      1.119675   168A      1.120326   169A      1.126520  
	 170A      1.135168   171A      1.142831   172A      1.157111  
	 173A      1.159537   174A      1.173537   175A      1.174422  
	 176A      1.185194   177A      1.191964   178A      1.218394  
	 179A      1.219822   180A      1.221643   181A      1.227349  
	 182A      1.240126   183A      1.250799   184A      1.264501  
	 185A      1.264980   186A      1.278045   187A      1.283173  
	 188A      1.284761   189A      1.288556   190A      1.303535  
	 191A      1.313646   192A      1.320769   193A      1.332570  
	 194A      1.336552   195A      1.344366   196A      1.360300  
	 197A      1.368348   198A      1.374491   199A      1.390698  
	 200A      1.398902   201A      1.405625   202A      1.407373  
	 203A      1.435131   204A      1.449545   205A      1.459793  
	 206A      1.474184   207A      1.501663   208A      1.509702  
	 209A      1.517569   210A      1.531763   211A      1.534506  
	 212A      1.550311   213A      1.564755   214A      1.565620  
	 215A      1.576037   216A      1.595439   217A      1.613598  
	 218A      1.616616   219A      1.640063   220A      1.644630  
	 221A      1.663074   222A      1.672712   223A      1.677940  
	 224A      1.696716   225A      1.698477   226A      1.712158  
	 227A      1.717024   228A      1.717915   229A      1.749808  
	 230A      1.753059   231A      1.774957   232A      1.779717  
	 233A      1.782861   234A      1.789826   235A      1.806779  
	 236A      1.810493   237A      1.829930   238A      1.833593  
	 239A      1.841613   240A      1.845483   241A      1.856859  
	 242A      1.887789   243A      1.900977   244A      1.908259  
	 245A      1.923731   246A      1.928992   247A      1.936209  
	 248A      1.944094   249A      1.953501   250A      1.976350  
	 251A      1.987913   252A      2.000527   253A      2.027885  
	 254A      2.037939   255A      2.053697   256A      2.077534  
	 257A      2.093541   258A      2.095846   259A      2.107783  
	 260A      2.132343   261A      2.136581   262A      2.149850  
	 263A      2.151521   264A      2.170408   265A      2.176431  
	 266A      2.190126   267A      2.204699   268A      2.218456  
	 269A      2.221069   270A      2.234689   271A      2.262847  
	 272A      2.265294   273A      2.295203   274A      2.303282  
	 275A      2.329793   276A      2.339012   277A      2.382720  
	 278A      2.394863   279A      2.397426   280A      2.424713  
	 281A      2.448056   282A      2.478735   283A      2.482544  
	 284A      2.509361   285A      2.538109   286A      2.551739  
	 287A      2.581410   288A      2.607901   289A      2.617938  
	 290A      2.624593   291A      2.641006   292A      2.649543  
	 293A      2.656509   294A      2.663362   295A      2.682286  
	 296A      2.691582   297A      2.712728   298A      2.723459  
	 299A      2.745670   300A      2.757688   301A      2.771826  
	 302A      2.800046   303A      2.802451   304A      2.814105  
	 305A      2.826090   306A      2.840429   307A      2.847410  
	 308A      2.849481   309A      2.891009   310A      2.896012  
	 311A      2.903668   312A      2.924335   313A      2.941213  
	 314A      2.962181   315A      2.991090   316A      3.000875  
	 317A      3.004276   318A      3.039702   319A      3.049398  
	 320A      3.082878   321A      3.097053   322A      3.128822  
	 323A      3.158057   324A      3.164132   325A      3.186772  
	 326A      3.191575   327A      3.240843   328A      3.283299  
	 329A      3.290498   330A      3.318368   331A      3.342121  
	 332A      3.347271   333A      3.381378   334A      3.385750  
	 335A      3.418866   336A      3.456477   337A      3.458098  
	 338A      3.490725   339A      3.519998   340A      3.529538  
	 341A      3.552507   342A      3.593558   343A      3.597440  
	 344A      3.608725   345A      3.621991   346A      3.643252  
	 347A      3.665677   348A      3.678976   349A      3.691350  
	 350A      3.701918   351A      3.725030   352A      3.740346  
	 353A      3.804157   354A      3.831595   355A      3.871767  
	 356A      3.884299   357A      3.907888   358A      3.920360  
	 359A      3.941624   360A      3.949614   361A      3.982823  
	 362A      3.991514   363A      4.009132   364A      4.031111  
	 365A      4.064568   366A      4.065439   367A      4.088183  
	 368A      4.095082   369A      4.102275   370A      4.117690  
	 371A      4.126263   372A      4.138331   373A      4.145050  
	 374A      4.186063   375A      4.188801   376A      4.223949  
	 377A      4.227179   378A      4.253403   379A      4.280717  
	 380A      4.296172   381A      4.297910   382A      4.329812  
	 383A      4.362305   384A      4.377980   385A      4.397073  
	 386A      4.431250   387A      4.445508   388A      4.454649  
	 389A      4.468974   390A      4.510090   391A      4.528056  
	 392A      4.537633   393A      4.565942   394A      4.582991  
	 395A      4.585970   396A      4.598981   397A      4.608013  
	 398A      4.613974   399A      4.647909   400A      4.669809  
	 401A      4.693899   402A      4.710504   403A      4.725307  
	 404A      4.749023   405A      4.765200   406A      4.765589  
	 407A      4.797664   408A      4.804938   409A      4.822416  
	 410A      4.829295   411A      4.860498   412A      4.892226  
	 413A      4.917496   414A      4.954690   415A      4.955904  
	 416A      4.965049   417A      5.006921   418A      5.039155  
	 419A      5.059011   420A      5.063982   421A      5.098177  
	 422A      5.108059   423A      5.126724   424A      5.138923  
	 425A      5.164130   426A      5.185214   427A      5.207930  
	 428A      5.214263   429A      5.282285   430A      5.292089  
	 431A      5.323074   432A      5.356361   433A      5.360483  
	 434A      5.367323   435A      5.394713   436A      5.408945  
	 437A      5.430771   438A      5.454387   439A      5.480614  
	 440A      5.483916   441A      5.514519   442A      5.523172  
	 443A      5.555427   444A      5.568858   445A      5.577547  
	 446A      5.586599   447A      5.642881   448A      5.680802  
	 449A      5.700161   450A      5.716878   451A      5.739130  
	 452A      5.771300   453A      5.875889   454A      5.911658  
	 455A      5.920834   456A      5.979439   457A      5.999513  
	 458A      6.036906   459A      6.096574   460A      6.123924  
	 461A      6.124075   462A      6.145727   463A      6.231975  
	 464A      6.248147   465A      6.250822   466A      6.304184  
	 467A      6.372255   468A      6.433640   469A      6.467863  
	 470A      6.633442   471A      6.678470   472A      6.690310  
	 473A      6.711165   474A      6.744095   475A      6.802898  
	 476A      6.831839   477A      6.869008   478A      6.908645  
	 479A      6.934378   480A      6.996281   481A      7.012480  
	 482A      7.092377   483A      7.159439   484A      7.195299  
	 485A      7.205356   486A      7.240064   487A      7.303316  
	 488A      7.314238   489A      7.384375   490A      7.390985  
	 491A      7.432320   492A      7.474761   493A      7.496354  
	 494A      7.615010   495A      7.643157   496A      7.681309  
	 497A      7.706070   498A      7.742610   499A      7.777211  
	 500A      7.787655   501A      7.830058   502A      7.838375  
	 503A      7.839075   504A      7.861904   505A      7.882313  
	 506A      7.919844   507A      7.981949   508A      8.045268  
	 509A      8.074279   510A      8.124718   511A      8.131917  
	 512A      8.197620   513A      8.249646   514A      8.255840  
	 515A      8.310710   516A      8.357148   517A      8.415344  
	 518A      8.492319   519A      8.575028   520A      8.605410  
	 521A      8.753079   522A      9.024727   523A      9.178082  
	 524A      9.195508   525A      9.768551   526A      9.914355  
	 527A      9.955668   528A     10.051543   529A     10.060746  
	 530A     10.130259   531A     10.308958   532A     10.430013  
	 533A     10.639509   534A     10.667935   535A     11.048567  
	 536A     11.229374   537A     11.928797   538A     11.972232  
	 539A     12.339573   540A     12.664854   541A     13.241365  
	 542A     13.576456   543A     14.029834   544A     14.509067  
	 545A     15.723907   546A     16.501312   547A     17.837670  
	 548A     19.975782   549A     51.748514   550A     54.311740  
	 551A     65.950591   552A     69.795194  

	Final Occupation by Irrep:
	          A 
	DOCC [    16 ]

  Energy converged.

  @RHF Final Energy:  -227.90290528734803

   => Energetics <=

    Nuclear Repulsion Energy =            121.3535420008311405
    One-Electron Energy =                -552.1444980359062811
    Two-Electron Energy =                 202.8880507477272772
    DFT Exchange-Correlation Energy =       0.0000000000000000
    Empirical Dispersion Energy =           0.0000000000000000
    Total Energy =                       -227.9029052873478918



Properties will be evaluated at   0.000000,   0.000000,   0.000000 Bohr
  ==> Properties <==


Properties computed using the SCF density density matrix
  Nuclear Dipole Moment: (a.u.)
     X:  -121.1613      Y:     0.7961      Z:    -0.5533

  Electronic Dipole Moment: (a.u.)
     X:   120.7230      Y:    -1.5355      Z:     0.3738

  Dipole Moment: (a.u.)
     X:    -0.4383      Y:    -0.7394      Z:    -0.1795     Total:     0.8781

  Dipole Moment: (Debye)
     X:    -1.1141      Y:    -1.8793      Z:    -0.4563     Total:     2.2318


  Saving occupied orbitals to File 180.

  Saving SAPT 2-MONOMER_A file.

*** tstop() called on node125.bme.utexas.edu at Mon Oct  7 12:57:53 2013
Module time:
	user time   =     374.58 seconds =       6.24 minutes
	system time =       2.73 seconds =       0.05 minutes
	total time  =         51 seconds =       0.85 minutes
Total time:
	user time   =     883.51 seconds =      14.73 minutes
	system time =       8.37 seconds =       0.14 minutes
	total time  =        123 seconds =       2.05 minutes

  //>>>>>>>>>>>>>>>>>>>>>>>>>>>>>>>>>>>//
  //            Monomer B HF           //
  //<<<<<<<<<<<<<<<<<<<<<<<<<<<<<<<<<<<//


  No DF_BASIS_SCF auxiliary basis selected, defaulting to aug-cc-pvtz-jkfit


*** tstart() called on node125.bme.utexas.edu
*** at Mon Oct  7 12:57:53 2013


         ---------------------------------------------------------
                                   SCF
            by Justin Turney, Rob Parrish, and Andy Simmonett
                              RHF Reference
                        8 Threads,  20000 MiB Core
         ---------------------------------------------------------

  ==> Geometry <==

    Molecular point group: c1
    Full point group: C1

    Geometry (in Angstrom), charge = 0, multiplicity = 1:

       Center              X                  Y                   Z       
    ------------   -----------------  -----------------  -----------------
           C(Gh)     -1.888383991789     0.094566639237     0.010472011337
           O(Gh)     -1.184835903789     1.067884680237     0.250224676337
           O(Gh)     -1.415978303789    -1.107656174763    -0.277799178663
           H(Gh)     -0.422239128789    -1.074851311763    -0.263176153663
           C(Gh)     -3.385102585789     0.139975890237     0.014669328337
           H(Gh)     -3.722672765789     1.144890069237     0.236728348337
           H(Gh)     -3.759564065789    -0.180183481763    -0.954583542663
           H(Gh)     -3.763886747789    -0.557663499763     0.757969092337
           C          1.888414653211    -0.094483296763    -0.010972525663
           O          1.184796288211    -1.067797784763    -0.250760127663
           O          1.415988319211     1.107952091237     0.276805945337
           H          0.422199779211     1.075053857237     0.262405441337
           C          3.385127101211    -0.140386042763    -0.012936920663
           H          3.722706665211    -1.141705235763    -0.250462415663
           H          3.766625646211     0.569966896237    -0.742405818663
           H          3.756643412211     0.162308474237     0.963118440337

  Running in c1 symmetry.

  Nuclear repulsion =  121.350375293972803

  Charge       = 0
  Multiplicity = 1
  Electrons    = 32
  Nalpha       = 16
  Nbeta        = 16

  ==> Algorithm <==

  SCF Algorithm Type is DF.
  DIIS enabled.
  MOM disabled.
  Fractional occupation disabled.
  Guess Type is CORE.
  Energy threshold   = 1.00e-08
  Density threshold  = 1.00e-08
  Integral threshold = 0.00e+00

  ==> Primary Basis <==

  Basis Set: AUG-CC-PVTZ
    Number of shells: 184
    Number of basis function: 552
    Number of Cartesian functions: 640
    Spherical Harmonics?: true
    Max angular momentum: 3

  ==> Pre-Iterations <==

   -------------------------------------------------------
    Irrep   Nso     Nmo     Nalpha   Nbeta   Ndocc  Nsocc
   -------------------------------------------------------
     A        552     552       0       0       0       0
   -------------------------------------------------------
    Total     552     552      16      16      16       0
   -------------------------------------------------------

 OEINTS: Wrapper to libmints.
   by Justin Turney

   Calculation information:
      Number of atoms:                  16
      Number of AO shells:             184
      Number of SO shells:             184
      Number of primitives:            328
      Number of atomic orbitals:       640
      Number of basis functions:       552

      Number of irreps:                  1
      Number of functions per irrep: [ 552 ]

      Overlap, kinetic, potential, dipole, and quadrupole integrals
        stored in file 35.

  ==> Integral Setup <==

  ==> DFJK: Density-Fitted J/K Matrices <==

    J tasked:                  Yes
    K tasked:                  Yes
    wK tasked:                  No
    OpenMP threads:              8
    Integrals threads:           8
    Memory (MB):             14305
    Algorithm:                Core
    Integral Cache:           LOAD
    Schwarz Cutoff:          0E+00
    Fitting Condition:       1E-12

   => Auxiliary Basis Set <=

  Basis Set: aug-cc-pvtz-jkfit
    Number of shells: 352
    Number of basis function: 1200
    Number of Cartesian functions: 1488
    Spherical Harmonics?: true
    Max angular momentum: 4

  Minimum eigenvalue in the overlap matrix is 6.3129983466E-06.
  Using Symmetric Orthogonalization.
  SCF Guess: Core (One-Electron) Hamiltonian.

  Guess energy:  -183.32788457911229

  ==> Iterations <==

                        Total Energy        Delta E     RMS |[F,P]|

   @RHF iter   1:  -170.69469163012164   -1.70695e+02   2.38383e-02 
   @RHF iter   2:  -145.23987069435739    2.54548e+01   1.41106e-02 DIIS
   @RHF iter   3:  -199.95681599806844   -5.47169e+01   1.04648e-02 DIIS
   @RHF iter   4:  -224.72019087562015   -2.47634e+01   4.71317e-03 DIIS
   @RHF iter   5:  -227.36707629548104   -2.64689e+00   2.15776e-03 DIIS
   @RHF iter   6:  -227.85866692976086   -4.91591e-01   5.59388e-04 DIIS
   @RHF iter   7:  -227.89483506841927   -3.61681e-02   2.13872e-04 DIIS
   @RHF iter   8:  -227.90166723588257   -6.83217e-03   6.11692e-05 DIIS
   @RHF iter   9:  -227.90271775045269   -1.05051e-03   1.79279e-05 DIIS
   @RHF iter  10:  -227.90287699289681   -1.59242e-04   6.49592e-06 DIIS
   @RHF iter  11:  -227.90289410690460   -1.71140e-05   2.43511e-06 DIIS
   @RHF iter  12:  -227.90289649725977   -2.39036e-06   7.71645e-07 DIIS
   @RHF iter  13:  -227.90289671753666   -2.20277e-07   2.44335e-07 DIIS
   @RHF iter  14:  -227.90289674072309   -2.31864e-08   5.67104e-08 DIIS
   @RHF iter  15:  -227.90289674204311   -1.32002e-09   1.64274e-08 DIIS
   @RHF iter  16:  -227.90289674213992   -9.68043e-11   3.94530e-09 DIIS

  ==> Post-Iterations <==

	Orbital Energies (a.u.)
	-----------------------

	Doubly Occupied:                                                      

	   1A    -20.624991     2A    -20.545250     3A    -11.389380  
	   4A    -11.243640     5A     -1.471698     6A     -1.354629  
	   7A     -1.028786     8A     -0.833668     9A     -0.705195  
	  10A     -0.682415    11A     -0.656272    12A     -0.580190  
	  13A     -0.572707    14A     -0.565074    15A     -0.477816  
	  16A     -0.452414  

	Virtual:                                                              

	  17A      0.020765    18A      0.029830    19A      0.040585  
	  20A      0.042393    21A      0.051176    22A      0.051267  
	  23A      0.052259    24A      0.074702    25A      0.080779  
	  26A      0.088495    27A      0.093784    28A      0.099707  
	  29A      0.117084    30A      0.117253    31A      0.122080  
	  32A      0.128205    33A      0.128758    34A      0.132949  
	  35A      0.138466    36A      0.142122    37A      0.147430  
	  38A      0.159557    39A      0.161143    40A      0.170112  
	  41A      0.184111    42A      0.193087    43A      0.197028  
	  44A      0.197593    45A      0.210608    46A      0.211586  
	  47A      0.214116    48A      0.223078    49A      0.232937  
	  50A      0.238626    51A      0.243877    52A      0.252979  
	  53A      0.258606    54A      0.265801    55A      0.269558  
	  56A      0.286079    57A      0.292489    58A      0.295445  
	  59A      0.309147    60A      0.310545    61A      0.321261  
	  62A      0.325750    63A      0.330560    64A      0.331923  
	  65A      0.339040    66A      0.341201    67A      0.357399  
	  68A      0.362828    69A      0.365357    70A      0.370439  
	  71A      0.377290    72A      0.380169    73A      0.384036  
	  74A      0.391206    75A      0.399068    76A      0.405733  
	  77A      0.407788    78A      0.419828    79A      0.426486  
	  80A      0.434910    81A      0.442082    82A      0.446186  
	  83A      0.447071    84A      0.448316    85A      0.455057  
	  86A      0.455539    87A      0.468036    88A      0.470652  
	  89A      0.473553    90A      0.483944    91A      0.497312  
	  92A      0.498504    93A      0.507874    94A      0.509824  
	  95A      0.514182    96A      0.527154    97A      0.541523  
	  98A      0.543618    99A      0.546863   100A      0.552611  
	 101A      0.553610   102A      0.570113   103A      0.582872  
	 104A      0.583182   105A      0.600394   106A      0.606529  
	 107A      0.618437   108A      0.620434   109A      0.624895  
	 110A      0.649338   111A      0.653432   112A      0.662946  
	 113A      0.666006   114A      0.686314   115A      0.690320  
	 116A      0.704262   117A      0.718119   118A      0.725788  
	 119A      0.735545   120A      0.758913   121A      0.769345  
	 122A      0.774056   123A      0.782950   124A      0.804056  
	 125A      0.805789   126A      0.808945   127A      0.810800  
	 128A      0.815877   129A      0.826287   130A      0.830119  
	 131A      0.839019   132A      0.863957   133A      0.876531  
	 134A      0.877523   135A      0.882586   136A      0.889445  
	 137A      0.906651   138A      0.913912   139A      0.917170  
	 140A      0.922078   141A      0.930352   142A      0.941475  
	 143A      0.944927   144A      0.946741   145A      0.952102  
	 146A      0.960518   147A      0.974550   148A      0.974955  
	 149A      0.981415   150A      0.990251   151A      0.996892  
	 152A      1.004435   153A      1.008678   154A      1.027193  
	 155A      1.036166   156A      1.037313   157A      1.045405  
	 158A      1.047863   159A      1.062451   160A      1.065613  
	 161A      1.067897   162A      1.072614   163A      1.091094  
	 164A      1.093020   165A      1.095334   166A      1.114216  
	 167A      1.119853   168A      1.120226   169A      1.126558  
	 170A      1.135086   171A      1.142848   172A      1.157028  
	 173A      1.159555   174A      1.173205   175A      1.174695  
	 176A      1.185298   177A      1.191818   178A      1.218353  
	 179A      1.220120   180A      1.221361   181A      1.227392  
	 182A      1.240087   183A      1.250660   184A      1.264766  
	 185A      1.264869   186A      1.278118   187A      1.282847  
	 188A      1.285138   189A      1.288634   190A      1.303647  
	 191A      1.313648   192A      1.320859   193A      1.332407  
	 194A      1.336596   195A      1.344383   196A      1.360325  
	 197A      1.368304   198A      1.374401   199A      1.390682  
	 200A      1.398944   201A      1.405605   202A      1.407256  
	 203A      1.435116   204A      1.449549   205A      1.459823  
	 206A      1.474225   207A      1.501619   208A      1.509725  
	 209A      1.517534   210A      1.531858   211A      1.534399  
	 212A      1.550238   213A      1.564808   214A      1.565697  
	 215A      1.575965   216A      1.595445   217A      1.613907  
	 218A      1.616307   219A      1.640022   220A      1.644584  
	 221A      1.663100   222A      1.672968   223A      1.677699  
	 224A      1.696621   225A      1.698432   226A      1.712132  
	 227A      1.716935   228A      1.718005   229A      1.749887  
	 230A      1.753031   231A      1.774956   232A      1.779576  
	 233A      1.783059   234A      1.789755   235A      1.806842  
	 236A      1.810524   237A      1.830018   238A      1.833630  
	 239A      1.841764   240A      1.845278   241A      1.856890  
	 242A      1.887740   243A      1.900968   244A      1.908268  
	 245A      1.923686   246A      1.929017   247A      1.936203  
	 248A      1.944120   249A      1.953543   250A      1.976357  
	 251A      1.987975   252A      2.000487   253A      2.027769  
	 254A      2.038091   255A      2.053728   256A      2.077509  
	 257A      2.093727   258A      2.095629   259A      2.107806  
	 260A      2.132648   261A      2.136458   262A      2.149807  
	 263A      2.151490   264A      2.170387   265A      2.176485  
	 266A      2.190030   267A      2.204794   268A      2.218910  
	 269A      2.220673   270A      2.234684   271A      2.263097  
	 272A      2.265052   273A      2.295108   274A      2.303294  
	 275A      2.329775   276A      2.338973   277A      2.382890  
	 278A      2.395372   279A      2.396621   280A      2.424654  
	 281A      2.448036   282A      2.478675   283A      2.482601  
	 284A      2.509418   285A      2.538128   286A      2.551652  
	 287A      2.581381   288A      2.607933   289A      2.617789  
	 290A      2.624585   291A      2.640955   292A      2.649411  
	 293A      2.656605   294A      2.663391   295A      2.682337  
	 296A      2.691652   297A      2.712739   298A      2.723481  
	 299A      2.745675   300A      2.757684   301A      2.771855  
	 302A      2.800149   303A      2.802340   304A      2.813971  
	 305A      2.826084   306A      2.840429   307A      2.847444  
	 308A      2.849504   309A      2.890925   310A      2.896054  
	 311A      2.903666   312A      2.924358   313A      2.941213  
	 314A      2.962138   315A      2.991103   316A      3.000898  
	 317A      3.004343   318A      3.039586   319A      3.049569  
	 320A      3.082942   321A      3.097086   322A      3.128826  
	 323A      3.158054   324A      3.164231   325A      3.186725  
	 326A      3.191605   327A      3.240861   328A      3.283263  
	 329A      3.290577   330A      3.318463   331A      3.341971  
	 332A      3.347319   333A      3.383096   334A      3.384011  
	 335A      3.418769   336A      3.456541   337A      3.458153  
	 338A      3.490752   339A      3.520001   340A      3.529456  
	 341A      3.552523   342A      3.593576   343A      3.597452  
	 344A      3.608753   345A      3.621976   346A      3.643226  
	 347A      3.665697   348A      3.678917   349A      3.691205  
	 350A      3.701898   351A      3.724994   352A      3.740419  
	 353A      3.804243   354A      3.831653   355A      3.871778  
	 356A      3.884220   357A      3.907817   358A      3.920462  
	 359A      3.941580   360A      3.949663   361A      3.982857  
	 362A      3.991480   363A      4.009119   364A      4.031138  
	 365A      4.064981   366A      4.065055   367A      4.088274  
	 368A      4.095157   369A      4.102202   370A      4.117651  
	 371A      4.126280   372A      4.138038   373A      4.145341  
	 374A      4.186065   375A      4.188735   376A      4.223955  
	 377A      4.227167   378A      4.253432   379A      4.280694  
	 380A      4.296063   381A      4.297948   382A      4.329825  
	 383A      4.362260   384A      4.378075   385A      4.396981  
	 386A      4.431109   387A      4.445518   388A      4.454809  
	 389A      4.468875   390A      4.509966   391A      4.528059  
	 392A      4.537598   393A      4.565950   394A      4.582998  
	 395A      4.585976   396A      4.598980   397A      4.607788  
	 398A      4.614246   399A      4.647910   400A      4.669852  
	 401A      4.693990   402A      4.710544   403A      4.725265  
	 404A      4.749003   405A      4.765107   406A      4.765784  
	 407A      4.797517   408A      4.804955   409A      4.822412  
	 410A      4.829152   411A      4.860518   412A      4.892225  
	 413A      4.917449   414A      4.954135   415A      4.956374  
	 416A      4.965048   417A      5.006999   418A      5.039239  
	 419A      5.059155   420A      5.063979   421A      5.098225  
	 422A      5.108218   423A      5.126723   424A      5.138829  
	 425A      5.164134   426A      5.185117   427A      5.207928  
	 428A      5.214275   429A      5.282482   430A      5.292213  
	 431A      5.322877   432A      5.356375   433A      5.360485  
	 434A      5.367217   435A      5.394738   436A      5.408842  
	 437A      5.430644   438A      5.454520   439A      5.480653  
	 440A      5.483984   441A      5.514413   442A      5.523236  
	 443A      5.555487   444A      5.568818   445A      5.577565  
	 446A      5.586615   447A      5.643148   448A      5.680863  
	 449A      5.700256   450A      5.716787   451A      5.739131  
	 452A      5.771351   453A      5.875901   454A      5.911593  
	 455A      5.920793   456A      5.979408   457A      5.999501  
	 458A      6.036944   459A      6.096663   460A      6.124020  
	 461A      6.124089   462A      6.145760   463A      6.231599  
	 464A      6.247842   465A      6.250894   466A      6.304340  
	 467A      6.372344   468A      6.433688   469A      6.467912  
	 470A      6.633428   471A      6.678559   472A      6.690320  
	 473A      6.711320   474A      6.744088   475A      6.802971  
	 476A      6.831793   477A      6.869009   478A      6.908584  
	 479A      6.934382   480A      6.996189   481A      7.012516  
	 482A      7.092357   483A      7.159449   484A      7.195066  
	 485A      7.205505   486A      7.239983   487A      7.303298  
	 488A      7.314205   489A      7.384318   490A      7.390887  
	 491A      7.432294   492A      7.474693   493A      7.496305  
	 494A      7.614900   495A      7.643055   496A      7.681341  
	 497A      7.706038   498A      7.742498   499A      7.777172  
	 500A      7.787689   501A      7.830087   502A      7.837782  
	 503A      7.839349   504A      7.861728   505A      7.882325  
	 506A      7.919832   507A      7.981842   508A      8.045371  
	 509A      8.074187   510A      8.124722   511A      8.131942  
	 512A      8.197594   513A      8.249592   514A      8.255923  
	 515A      8.310589   516A      8.357162   517A      8.415413  
	 518A      8.492260   519A      8.575081   520A      8.605390  
	 521A      8.752976   522A      9.024972   523A      9.178349  
	 524A      9.195600   525A      9.768611   526A      9.914412  
	 527A      9.955763   528A     10.051583   529A     10.060867  
	 530A     10.130261   531A     10.309227   532A     10.430014  
	 533A     10.639242   534A     10.667871   535A     11.048703  
	 536A     11.229650   537A     11.928946   538A     11.972448  
	 539A     12.339980   540A     12.665055   541A     13.241774  
	 542A     13.576898   543A     14.030010   544A     14.509346  
	 545A     15.722741   546A     16.499778   547A     17.837830  
	 548A     19.975695   549A     51.750804   550A     54.309568  
	 551A     65.953157   552A     69.797672  

	Final Occupation by Irrep:
	          A 
	DOCC [    16 ]

  Energy converged.

  @RHF Final Energy:  -227.90289674213992

   => Energetics <=

    Nuclear Repulsion Energy =            121.3503752939728031
    One-Electron Energy =                -552.1382937109258364
    Two-Electron Energy =                 202.8850216748129753
    DFT Exchange-Correlation Energy =       0.0000000000000000
    Empirical Dispersion Energy =           0.0000000000000000
    Total Energy =                       -227.9028967421400864



Properties will be evaluated at   0.000000,   0.000000,   0.000000 Bohr
  ==> Properties <==


Properties computed using the SCF density density matrix
  Nuclear Dipole Moment: (a.u.)
     X:   121.1611      Y:    -0.7981      Z:     0.5623

  Electronic Dipole Moment: (a.u.)
     X:  -120.7226      Y:     1.5370      Z:    -0.3812

  Dipole Moment: (a.u.)
     X:     0.4385      Y:     0.7389      Z:     0.1811     Total:     0.8780

  Dipole Moment: (Debye)
     X:     1.1145      Y:     1.8780      Z:     0.4603     Total:     2.2318


  Saving occupied orbitals to File 180.

  Saving SAPT 2-MONOMER_B file.

*** tstop() called on node125.bme.utexas.edu at Mon Oct  7 12:58:45 2013
Module time:
	user time   =     375.90 seconds =       6.27 minutes
	system time =       2.64 seconds =       0.04 minutes
	total time  =         52 seconds =       0.87 minutes
Total time:
	user time   =    1259.43 seconds =      20.99 minutes
	system time =      11.01 seconds =       0.18 minutes
	total time  =        175 seconds =       2.92 minutes
  No DF_BASIS_SAPT auxiliary basis selected, defaulting to aug-cc-pvtz-ri

  //>>>>>>>>>>>>>>>>>>>>>>>>>>>>>>>>>>>//
  //               SAPT2+              //
  //<<<<<<<<<<<<<<<<<<<<<<<<<<<<<<<<<<<//


*** tstart() called on node125.bme.utexas.edu
*** at Mon Oct  7 12:58:45 2013

        SAPT2+  
    Ed Hohenstein
     6 June 2009

      Orbital Information
  --------------------------
    NSO        =       552
    NMO        =       552
    NRI        =      1216
    NOCC A     =        16
    NOCC B     =        16
    FOCC A     =         4
    FOCC B     =         4
    NVIR A     =       536
    NVIR B     =       536

    Estimated memory usage: 4560.0 MB

    Elst10,r            =    -0.061944171939 H
    Exch10 (S^2)        =     0.070170207452 H
    Exch10              =     0.071712672095 H
    Ind20,r (A<-B)      =    -0.020546345200 H
    Ind20,r (B<-A)      =    -0.020547816501 H
    Ind20,r             =    -0.041094161701 H
    Exch-Ind20,r (A<-B) =     0.011200338565 H
    Exch-Ind20,r (B<-A) =     0.011201603388 H
    Exch-Ind20,r        =     0.022401941953 H
    Disp20              =    -0.020720448101 H
    Exch-Disp20         =     0.004430685822 H
    Elst12,r            =     0.001906323427 H
    Exch11              =     0.000293328428 H
    Exch12              =     0.009763300104 H
    Ind22               =    -0.006302726914 H
    Disp21              =     0.001745476668 H
    Disp22 (SDQ)        =    -0.000709531684 H

    (i =   1 of  12)       2239 seconds
    (i =   2 of  12)       4494 seconds
    (i =   3 of  12)       6756 seconds
    (i =   4 of  12)       9077 seconds
    (i =   5 of  12)      11300 seconds
    (i =   6 of  12)      13594 seconds
    (i =   7 of  12)      15875 seconds
    (i =   8 of  12)      18110 seconds
    (i =   9 of  12)      20325 seconds
    (i =  10 of  12)      22556 seconds
    (i =  11 of  12)      24778 seconds
    (i =  12 of  12)      26999 seconds

    Disp220 (T)         =    -0.001974379622 H

    (i =   1 of  12)       2229 seconds
    (i =   2 of  12)       4410 seconds
    (i =   3 of  12)       6654 seconds
    (i =   4 of  12)       8862 seconds
    (i =   5 of  12)      11058 seconds
    (i =   6 of  12)      13264 seconds
    (i =   7 of  12)      15480 seconds
    (i =   8 of  12)      17693 seconds
    (i =   9 of  12)      19996 seconds
    (i =  10 of  12)      22257 seconds
    (i =  11 of  12)      24510 seconds
    (i =  12 of  12)      26680 seconds

    Disp202 (T)         =    -0.001974439207 H

    Disp22 (T)          =    -0.003948818828 H

    SAPT Results  
  -----------------------------------------------------------------------
    Electrostatics         -60.03784851 mH     -37.67432030 kcal mol^-1
      Elst10,r             -61.94417194 mH     -38.87055636 kcal mol^-1
      Elst12,r               1.90632343 mH       1.19623606 kcal mol^-1

    Exchange                81.76930063 mH      51.31101295 kcal mol^-1
      Exch10                71.71267209 mH      45.00038301 kcal mol^-1
      Exch10(S^2)           70.17020745 mH      44.03247179 kcal mol^-1
      Exch11(S^2)            0.29332843 mH       0.18406638 kcal mol^-1
      Exch12(S^2)            9.76330010 mH       6.12656357 kcal mol^-1

    Induction              -36.18087825 mH     -22.70384482 kcal mol^-1
      Ind20,r              -41.09416170 mH     -25.78697686 kcal mol^-1
      Ind22                 -6.30272691 mH      -3.95502101 kcal mol^-1
      Exch-Ind20,r          22.40194195 mH      14.05743139 kcal mol^-1
      Exch-Ind22             3.43584871 mH       2.15602771 kcal mol^-1
      delta HF,r (2)       -14.62178030 mH      -9.17530604 kcal mol^-1

    Dispersion             -19.20263612 mH     -12.04983659 kcal mol^-1
      Disp20               -20.72044810 mH     -13.00227803 kcal mol^-1
      Disp21                 1.74547667 mH       1.09530319 kcal mol^-1
      Disp22 (SDQ)          -0.70953168 mH      -0.44523787 kcal mol^-1
      Disp22 (T)            -3.94881883 mH      -2.47792133 kcal mol^-1
      Exch-Disp20            4.43068582 mH       2.78029744 kcal mol^-1

    Total HF               -23.54549989 mH     -14.77502486 kcal mol^-1
    Total SAPT0            -39.83526217 mH     -24.99700544 kcal mol^-1
    Total SAPT2            -30.73918841 mH     -19.28913275 kcal mol^-1
    Total SAPT2+           -33.65206226 mH     -21.11698876 kcal mol^-1

*** tstop() called on node125.bme.utexas.edu at Tue Oct  8 06:18:04 2013
Module time:
	user time   =  389581.12 seconds =    6493.02 minutes
	system time =    1041.94 seconds =      17.37 minutes
	total time  =      62359 seconds =    1039.32 minutes
Total time:
	user time   =  390840.55 seconds =    6514.01 minutes
	system time =    1052.95 seconds =      17.55 minutes
	total time  =      62534 seconds =    1042.23 minutes

*** PSI4 exiting successfully. Buy a developer a beer!
