    -----------------------------------------------------------------------
          PSI4: An Open-Source Ab Initio Electronic Structure Package
                              PSI 4.0.0-beta4 Driver

    J. M. Turney, A. C. Simmonett, R. M. Parrish, E. G. Hohenstein,
    F. A. Evangelista, J. T. Fermann, B. J. Mintz, L. A. Burns, J. J. Wilke,
    M. L. Abrams, N. J. Russ, M. L. Leininger, C. L. Janssen, E. T. Seidl,
    W. D. Allen, H. F. Schaefer, R. A. King, E. F. Valeev, C. D. Sherrill,
    and T. D. Crawford, WIREs Comput. Mol. Sci., (2011) (doi: 10.1002/wcms.93)

                         Additional Contributions by
    A. E. DePrince, M. Saitow, U. Bozkaya, A. Yu. Sokolov
    -----------------------------------------------------------------------

    Process ID:  28708
    PSI4DATADIR: /home/xzhu216/psi4/psi4-install/share/psi

    Using LocalCommunicator (Number of processes = 1)

    Memory level set to 256.000 MB

  ==> Input File <==

--------------------------------------------------------------------------
#psi4
#
memory 7 gb

molecule AcOH_AcOH {
0 1
    C    -1.061709204     1.297140572     0.292060003
    O    -0.358161116     2.270458613     0.531812668
    O    -0.589303516     0.094917758     0.003788813
    H     0.404435659     0.127722621     0.018411838
    C    -2.558427798     1.342549823     0.296257320
    H    -2.895997978     2.347464002     0.518316340
    H    -2.932889278     1.022390451    -0.672995551
    H    -2.937211960     0.644910433     1.039557084
--
0 1
    C     2.292111609     1.106201554     0.267413771
    O     1.588493244     0.132887066     0.027626169
    O     1.819685275     2.308636942     0.555192242
    H     0.825896735     2.275738708     0.540791738
    C     3.788824057     1.060298808     0.265449376
    H     4.126403621     0.058979615     0.027923881
    H     4.170322602     1.770651747    -0.464019522
    H     4.160340368     1.362993325     1.241504737
units angstrom
no_reorient  #important for SAPT in psi4, default
symmetry c1  #important for SAPT in psi4, default
}

set {
basis aug-cc-pVTZ
scf_type DF
freeze_core True
}
energy('sapt2+')
--------------------------------------------------------------------------

  Memory set to   7.000 GiB by Python script.

  //>>>>>>>>>>>>>>>>>>>>>>>>>>>>>>>>>>>//
  //              Dimer HF             //
  //<<<<<<<<<<<<<<<<<<<<<<<<<<<<<<<<<<<//


  No DF_BASIS_SCF auxiliary basis selected, defaulting to aug-cc-pvtz-jkfit


*** tstart() called on node138.bme.utexas.edu
*** at Thu Feb 20 15:06:44 2014


         ---------------------------------------------------------
                                   SCF
            by Justin Turney, Rob Parrish, and Andy Simmonett
                              RHF Reference
                        4 Threads,   7000 MiB Core
         ---------------------------------------------------------

  ==> Geometry <==

    Molecular point group: c1
    Full point group: C1

    Geometry (in Angstrom), charge = 0, multiplicity = 1:

       Center              X                  Y                   Z       
    ------------   -----------------  -----------------  -----------------
           C         -1.676895075789     0.095511180237     0.012072858837
           O         -0.973346987789     1.068829221237     0.251825523837
           O         -1.204489387789    -1.106711633763    -0.276198331163
           H         -0.210750212789    -1.073906770763    -0.261575306163
           C         -3.173613669789     0.140920431237     0.016270175837
           H         -3.511183849789     1.145834610237     0.238329195837
           H         -3.548075149789    -0.179238940763    -0.952982695163
           H         -3.552397831789    -0.556718958763     0.759569939837
           C          1.676925737211    -0.095427837763    -0.012573373163
           O          0.973307372211    -1.068742325763    -0.252360975163
           O          1.204499403211     1.107007550237     0.275205097837
           H          0.210710863211     1.074109316237     0.260804593837
           C          3.173638185211    -0.141330583763    -0.014537768163
           H          3.511217749211    -1.142649776763    -0.252063263163
           H          3.555136730211     0.569022355237    -0.744006666163
           H          3.545154496211     0.161363933237     0.961517592837

  Running in c1 symmetry.

  Nuclear repulsion =  402.801267857793960

  Charge       = 0
  Multiplicity = 1
  Electrons    = 64
  Nalpha       = 32
  Nbeta        = 32

  ==> Algorithm <==

  SCF Algorithm Type is DF.
  DIIS enabled.
  MOM disabled.
  Fractional occupation disabled.
  Guess Type is CORE.
  Energy threshold   = 1.00e-08
  Density threshold  = 1.00e-08
  Integral threshold = 0.00e+00

  ==> Primary Basis <==

  Basis Set: AUG-CC-PVTZ
    Number of shells: 184
    Number of basis function: 552
    Number of Cartesian functions: 640
    Spherical Harmonics?: true
    Max angular momentum: 3

  ==> Pre-Iterations <==

   -------------------------------------------------------
    Irrep   Nso     Nmo     Nalpha   Nbeta   Ndocc  Nsocc
   -------------------------------------------------------
     A        552     552       0       0       0       0
   -------------------------------------------------------
    Total     552     552      32      32      32       0
   -------------------------------------------------------

 OEINTS: Wrapper to libmints.
   by Justin Turney

   Calculation information:
      Number of atoms:                  16
      Number of AO shells:             184
      Number of SO shells:             184
      Number of primitives:            328
      Number of atomic orbitals:       640
      Number of basis functions:       552

      Number of irreps:                  1
      Number of functions per irrep: [ 552 ]

      Overlap, kinetic, potential, dipole, and quadrupole integrals
        stored in file 35.

  ==> Integral Setup <==

  ==> DFJK: Density-Fitted J/K Matrices <==

    J tasked:                  Yes
    K tasked:                  Yes
    wK tasked:                  No
    OpenMP threads:              4
    Integrals threads:           4
    Memory (MB):              5006
    Algorithm:                Core
    Integral Cache:           SAVE
    Schwarz Cutoff:          0E+00
    Fitting Condition:       1E-12

   => Auxiliary Basis Set <=

  Basis Set: aug-cc-pvtz-jkfit
    Number of shells: 352
    Number of basis function: 1200
    Number of Cartesian functions: 1488
    Spherical Harmonics?: true
    Max angular momentum: 4

  Minimum eigenvalue in the overlap matrix is 6.1095662499E-06.
  Using Symmetric Orthogonalization.
  SCF Guess: Core (One-Electron) Hamiltonian.

  Guess energy:  -378.71416395484982

  ==> Iterations <==

                        Total Energy        Delta E     RMS |[F,P]|

   @RHF iter   1:  -339.10868397281115   -3.39109e+02   3.37299e-02 
   @RHF iter   2:  -270.57209713471559    6.85366e+01   1.98861e-02 DIIS
   @RHF iter   3:  -384.56053875647535   -1.13988e+02   1.68225e-02 DIIS
   @RHF iter   4:  -439.09225847034531   -5.45317e+01   9.22696e-03 DIIS
   @RHF iter   5:  -454.66807405005864   -1.55758e+01   2.75915e-03 DIIS
   @RHF iter   6:  -455.44409974243126   -7.76026e-01   1.48940e-03 DIIS
   @RHF iter   7:  -455.69582852545000   -2.51729e-01   6.49298e-04 DIIS
   @RHF iter   8:  -455.77313918146194   -7.73107e-02   1.09115e-04 DIIS
   @RHF iter   9:  -455.77480156093463   -1.66238e-03   6.12763e-05 DIIS
   @RHF iter  10:  -455.77527079399374   -4.69233e-04   1.28099e-05 DIIS
   @RHF iter  11:  -455.77531774893396   -4.69549e-05   4.31215e-06 DIIS
   @RHF iter  12:  -455.77532233740715   -4.58847e-06   1.21624e-06 DIIS
   @RHF iter  13:  -455.77532281333004   -4.75923e-07   3.25106e-07 DIIS
   @RHF iter  14:  -455.77532285386155   -4.05315e-08   7.45360e-08 DIIS
   @RHF iter  15:  -455.77532285609232   -2.23076e-09   2.43552e-08 DIIS
   @RHF iter  16:  -455.77532285632151   -2.29193e-10   6.18589e-09 DIIS

  ==> Post-Iterations <==

	Orbital Energies (a.u.)
	-----------------------

	Doubly Occupied:                                                      

	   1A    -20.564673     2A    -20.564664     3A    -20.560732  
	   4A    -20.560726     5A    -11.401034     6A    -11.401017  
	   7A    -11.242824     8A    -11.242817     9A     -1.496693  
	  10A     -1.447451    11A     -1.399081    12A     -1.341986  
	  13A     -1.048044    14A     -1.020984    15A     -0.876598  
	  16A     -0.848687    17A     -0.766653    18A     -0.705954  
	  19A     -0.668108    20A     -0.667299    21A     -0.661912  
	  22A     -0.642595    23A     -0.596781    24A     -0.581951  
	  25A     -0.566808    26A     -0.563767    27A     -0.552273  
	  28A     -0.550456    29A     -0.506738    30A     -0.471290  
	  31A     -0.470144    32A     -0.445017  

	Virtual:                                                              

	  33A      0.028797    34A      0.030596    35A      0.043714  
	  36A      0.045422    37A      0.051575    38A      0.052487  
	  39A      0.055249    40A      0.077592    41A      0.088491  
	  42A      0.100420    43A      0.100815    44A      0.113735  
	  45A      0.120252    46A      0.120753    47A      0.130858  
	  48A      0.131274    49A      0.137657    50A      0.142891  
	  51A      0.143461    52A      0.143675    53A      0.149311  
	  54A      0.158248    55A      0.168020    56A      0.177894  
	  57A      0.187175    58A      0.192757    59A      0.196134  
	  60A      0.200512    61A      0.212104    62A      0.212649  
	  63A      0.236875    64A      0.238440    65A      0.240148  
	  66A      0.240858    67A      0.257797    68A      0.257968  
	  69A      0.266480    70A      0.281830    71A      0.284860  
	  72A      0.287273    73A      0.296385    74A      0.320134  
	  75A      0.321274    76A      0.327536    77A      0.328804  
	  78A      0.331841    79A      0.333765    80A      0.335200  
	  81A      0.346833    82A      0.356632    83A      0.357121  
	  84A      0.366655    85A      0.370900    86A      0.374113  
	  87A      0.384900    88A      0.385610    89A      0.393578  
	  90A      0.399610    91A      0.401912    92A      0.410276  
	  93A      0.425696    94A      0.431409    95A      0.432765  
	  96A      0.436204    97A      0.442811    98A      0.453370  
	  99A      0.456160   100A      0.462149   101A      0.470475  
	 102A      0.476040   103A      0.481226   104A      0.485437  
	 105A      0.488623   106A      0.497449   107A      0.504567  
	 108A      0.506719   109A      0.510339   110A      0.512512  
	 111A      0.526239   112A      0.529799   113A      0.545344  
	 114A      0.547573   115A      0.549660   116A      0.555416  
	 117A      0.561842   118A      0.577596   119A      0.582587  
	 120A      0.588597   121A      0.593136   122A      0.593562  
	 123A      0.598289   124A      0.624587   125A      0.638078  
	 126A      0.644190   127A      0.656968   128A      0.664177  
	 129A      0.685243   130A      0.689332   131A      0.697032  
	 132A      0.708851   133A      0.758646   134A      0.764577  
	 135A      0.771069   136A      0.775244   137A      0.780546  
	 138A      0.785328   139A      0.799382   140A      0.802587  
	 141A      0.804010   142A      0.808028   143A      0.811614  
	 144A      0.819434   145A      0.828859   146A      0.829337  
	 147A      0.833256   148A      0.836811   149A      0.843645  
	 150A      0.867570   151A      0.877410   152A      0.879567  
	 153A      0.880064   154A      0.898349   155A      0.906451  
	 156A      0.911623   157A      0.917728   158A      0.920244  
	 159A      0.924310   160A      0.932576   161A      0.933133  
	 162A      0.940706   163A      0.956697   164A      0.974154  
	 165A      0.984738   166A      0.986754   167A      0.988786  
	 168A      0.998682   169A      1.000182   170A      1.011761  
	 171A      1.017987   172A      1.026167   173A      1.030638  
	 174A      1.032352   175A      1.047689   176A      1.052277  
	 177A      1.056963   178A      1.070460   179A      1.071325  
	 180A      1.083485   181A      1.089373   182A      1.090526  
	 183A      1.110750   184A      1.115819   185A      1.121164  
	 186A      1.122900   187A      1.137781   188A      1.138088  
	 189A      1.155416   190A      1.159937   191A      1.166501  
	 192A      1.174067   193A      1.194535   194A      1.202099  
	 195A      1.216683   196A      1.217594   197A      1.230007  
	 198A      1.230747   199A      1.248054   200A      1.252456  
	 201A      1.254276   202A      1.269811   203A      1.271311  
	 204A      1.294997   205A      1.302671   206A      1.306952  
	 207A      1.312853   208A      1.339669   209A      1.340955  
	 210A      1.346125   211A      1.353196   212A      1.365959  
	 213A      1.376807   214A      1.380823   215A      1.408895  
	 216A      1.416431   217A      1.423932   218A      1.445756  
	 219A      1.465725   220A      1.475358   221A      1.491359  
	 222A      1.502294   223A      1.502920   224A      1.523630  
	 225A      1.529383   226A      1.533578   227A      1.555384  
	 228A      1.566127   229A      1.567886   230A      1.578468  
	 231A      1.596527   232A      1.603631   233A      1.608196  
	 234A      1.625164   235A      1.631472   236A      1.634927  
	 237A      1.649474   238A      1.656919   239A      1.663705  
	 240A      1.665776   241A      1.674107   242A      1.678692  
	 243A      1.684678   244A      1.704526   245A      1.723793  
	 246A      1.726924   247A      1.752257   248A      1.757069  
	 249A      1.757294   250A      1.773900   251A      1.782174  
	 252A      1.786544   253A      1.790761   254A      1.791232  
	 255A      1.814550   256A      1.817990   257A      1.830496  
	 258A      1.859874   259A      1.877627   260A      1.884099  
	 261A      1.892869   262A      1.896300   263A      1.919346  
	 264A      1.925058   265A      1.931546   266A      1.956721  
	 267A      1.958919   268A      1.985765   269A      1.989857  
	 270A      1.997536   271A      2.007777   272A      2.013291  
	 273A      2.080611   274A      2.098491   275A      2.104092  
	 276A      2.108138   277A      2.132668   278A      2.139005  
	 279A      2.146833   280A      2.174772   281A      2.177279  
	 282A      2.187747   283A      2.204012   284A      2.217073  
	 285A      2.218366   286A      2.223522   287A      2.257194  
	 288A      2.276034   289A      2.297949   290A      2.300432  
	 291A      2.330745   292A      2.369517   293A      2.388052  
	 294A      2.398110   295A      2.405224   296A      2.431018  
	 297A      2.440594   298A      2.485933   299A      2.502685  
	 300A      2.534944   301A      2.562582   302A      2.575557  
	 303A      2.585724   304A      2.586343   305A      2.591145  
	 306A      2.595668   307A      2.620320   308A      2.634673  
	 309A      2.681449   310A      2.682043   311A      2.713805  
	 312A      2.750405   313A      2.769625   314A      2.770713  
	 315A      2.779620   316A      2.784924   317A      2.790305  
	 318A      2.793260   319A      2.841416   320A      2.845987  
	 321A      2.859202   322A      2.880663   323A      2.902098  
	 324A      2.910469   325A      2.918217   326A      2.933026  
	 327A      2.937380   328A      2.944843   329A      2.966357  
	 330A      2.995452   331A      3.003989   332A      3.020986  
	 333A      3.055571   334A      3.078194   335A      3.099800  
	 336A      3.119648   337A      3.151503   338A      3.164592  
	 339A      3.205764   340A      3.225454   341A      3.233773  
	 342A      3.235707   343A      3.270879   344A      3.300425  
	 345A      3.345832   346A      3.346999   347A      3.347888  
	 348A      3.367679   349A      3.369217   350A      3.377022  
	 351A      3.398354   352A      3.409353   353A      3.471892  
	 354A      3.502363   355A      3.545371   356A      3.554316  
	 357A      3.557919   358A      3.559105   359A      3.585685  
	 360A      3.586505   361A      3.610963   362A      3.618320  
	 363A      3.643473   364A      3.648141   365A      3.652196  
	 366A      3.654600   367A      3.686083   368A      3.688716  
	 369A      3.690566   370A      3.724729   371A      3.727684  
	 372A      3.778453   373A      3.801465   374A      3.808153  
	 375A      3.834962   376A      3.872521   377A      3.901242  
	 378A      3.906042   379A      3.909745   380A      3.915458  
	 381A      3.933610   382A      3.939616   383A      3.960966  
	 384A      3.963658   385A      3.999573   386A      4.011434  
	 387A      4.023257   388A      4.057636   389A      4.062868  
	 390A      4.066480   391A      4.074525   392A      4.075501  
	 393A      4.090312   394A      4.099802   395A      4.101880  
	 396A      4.143785   397A      4.147601   398A      4.173681  
	 399A      4.186881   400A      4.188554   401A      4.199268  
	 402A      4.236453   403A      4.280671   404A      4.284005  
	 405A      4.332534   406A      4.360910   407A      4.371807  
	 408A      4.372752   409A      4.372953   410A      4.397570  
	 411A      4.431880   412A      4.451524   413A      4.477854  
	 414A      4.506638   415A      4.506927   416A      4.538661  
	 417A      4.556987   418A      4.598063   419A      4.602776  
	 420A      4.603787   421A      4.671122   422A      4.676141  
	 423A      4.685795   424A      4.687944   425A      4.697908  
	 426A      4.740864   427A      4.746974   428A      4.788947  
	 429A      4.792919   430A      4.807008   431A      4.809558  
	 432A      4.814717   433A      4.840357   434A      4.879038  
	 435A      4.891089   436A      4.892266   437A      4.921993  
	 438A      4.931627   439A      4.978437   440A      5.017663  
	 441A      5.018782   442A      5.042042   443A      5.060100  
	 444A      5.106660   445A      5.116454   446A      5.135603  
	 447A      5.146684   448A      5.147907   449A      5.149673  
	 450A      5.195953   451A      5.250569   452A      5.283466  
	 453A      5.306672   454A      5.314999   455A      5.344465  
	 456A      5.373444   457A      5.376701   458A      5.380871  
	 459A      5.384011   460A      5.432990   461A      5.448094  
	 462A      5.561451   463A      5.590141   464A      5.631264  
	 465A      5.643752   466A      5.645663   467A      5.648857  
	 468A      5.653195   469A      5.685220   470A      5.721098  
	 471A      5.735787   472A      5.783885   473A      5.799973  
	 474A      5.848113   475A      5.875144   476A      5.944228  
	 477A      6.061071   478A      6.068917   479A      6.099823  
	 480A      6.121720   481A      6.129764   482A      6.139006  
	 483A      6.165644   484A      6.262834   485A      6.270079  
	 486A      6.293454   487A      6.369344   488A      6.474477  
	 489A      6.579201   490A      6.606800   491A      6.690015  
	 492A      6.692204   493A      6.711514   494A      6.725827  
	 495A      6.804004   496A      6.816858   497A      6.825176  
	 498A      6.849707   499A      6.906927   500A      6.908958  
	 501A      6.941297   502A      6.947738   503A      6.966408  
	 504A      7.032554   505A      7.068444   506A      7.093207  
	 507A      7.131932   508A      7.135398   509A      7.219555  
	 510A      7.249431   511A      7.260954   512A      7.404149  
	 513A      7.416911   514A      7.436051   515A      7.445938  
	 516A      7.492033   517A      7.548021   518A      7.551160  
	 519A      7.559850   520A      7.596904   521A      7.622484  
	 522A      7.648961   523A      7.705567   524A      7.713977  
	 525A      7.747257   526A      7.763610   527A      7.848533  
	 528A      7.891421   529A      7.907677   530A      7.922601  
	 531A      8.002293   532A      8.030032   533A      8.052807  
	 534A      8.053532   535A      8.226415   536A      8.298704  
	 537A      8.325257   538A      8.346683   539A      8.357197  
	 540A      8.592647   541A      9.008305   542A      9.016541  
	 543A      9.409536   544A      9.547119   545A     15.603820  
	 546A     16.004709   547A     17.886020   548A     18.065166  
	 549A     18.113988   550A     18.382917   551A     20.405785  
	 552A     20.572948  

	Final Occupation by Irrep:
	          A 
	DOCC [    32 ]

  Energy converged.

  @RHF Final Energy:  -455.77532285632151

   => Energetics <=

    Nuclear Repulsion Energy =            402.8012678577939596
    One-Electron Energy =               -1424.2816663942228388
    Two-Electron Energy =                 565.7050756801066882
    DFT Exchange-Correlation Energy =       0.0000000000000000
    Empirical Dispersion Energy =           0.0000000000000000
    Total Energy =                       -455.7753228563221910



Properties will be evaluated at   0.000000,   0.000000,   0.000000 Bohr
  ==> Properties <==


Properties computed using the SCF density density matrix
  Nuclear Dipole Moment: (a.u.)
     X:    -0.0002      Y:    -0.0020      Z:     0.0090

  Electronic Dipole Moment: (a.u.)
     X:     0.0003      Y:     0.0015      Z:    -0.0073

  Dipole Moment: (a.u.)
     X:     0.0001      Y:    -0.0005      Z:     0.0017     Total:     0.0018

  Dipole Moment: (Debye)
     X:     0.0002      Y:    -0.0013      Z:     0.0043     Total:     0.0045


  Saving occupied orbitals to File 180.

  Saving SAPT 2-DIMER file.

*** tstop() called on node138.bme.utexas.edu at Thu Feb 20 15:09:20 2014
Module time:
	user time   =     580.73 seconds =       9.68 minutes
	system time =       6.88 seconds =       0.11 minutes
	total time  =        156 seconds =       2.60 minutes
Total time:
	user time   =     580.73 seconds =       9.68 minutes
	system time =       6.88 seconds =       0.11 minutes
	total time  =        156 seconds =       2.60 minutes

  //>>>>>>>>>>>>>>>>>>>>>>>>>>>>>>>>>>>//
  //            Monomer A HF           //
  //<<<<<<<<<<<<<<<<<<<<<<<<<<<<<<<<<<<//


  No DF_BASIS_SCF auxiliary basis selected, defaulting to aug-cc-pvtz-jkfit


*** tstart() called on node138.bme.utexas.edu
*** at Thu Feb 20 15:09:20 2014


         ---------------------------------------------------------
                                   SCF
            by Justin Turney, Rob Parrish, and Andy Simmonett
                              RHF Reference
                        4 Threads,   7000 MiB Core
         ---------------------------------------------------------

  ==> Geometry <==

    Molecular point group: c1
    Full point group: C1

    Geometry (in Angstrom), charge = 0, multiplicity = 1:

       Center              X                  Y                   Z       
    ------------   -----------------  -----------------  -----------------
           C         -1.676895075789     0.095511180237     0.012072858837
           O         -0.973346987789     1.068829221237     0.251825523837
           O         -1.204489387789    -1.106711633763    -0.276198331163
           H         -0.210750212789    -1.073906770763    -0.261575306163
           C         -3.173613669789     0.140920431237     0.016270175837
           H         -3.511183849789     1.145834610237     0.238329195837
           H         -3.548075149789    -0.179238940763    -0.952982695163
           H         -3.552397831789    -0.556718958763     0.759569939837
           C(Gh)      1.676925737211    -0.095427837763    -0.012573373163
           O(Gh)      0.973307372211    -1.068742325763    -0.252360975163
           O(Gh)      1.204499403211     1.107007550237     0.275205097837
           H(Gh)      0.210710863211     1.074109316237     0.260804593837
           C(Gh)      3.173638185211    -0.141330583763    -0.014537768163
           H(Gh)      3.511217749211    -1.142649776763    -0.252063263163
           H(Gh)      3.555136730211     0.569022355237    -0.744006666163
           H(Gh)      3.545154496211     0.161363933237     0.961517592837

  Running in c1 symmetry.

  Nuclear repulsion =  121.353542000831126

  Charge       = 0
  Multiplicity = 1
  Electrons    = 32
  Nalpha       = 16
  Nbeta        = 16

  ==> Algorithm <==

  SCF Algorithm Type is DF.
  DIIS enabled.
  MOM disabled.
  Fractional occupation disabled.
  Guess Type is CORE.
  Energy threshold   = 1.00e-08
  Density threshold  = 1.00e-08
  Integral threshold = 0.00e+00

  ==> Primary Basis <==

  Basis Set: AUG-CC-PVTZ
    Number of shells: 184
    Number of basis function: 552
    Number of Cartesian functions: 640
    Spherical Harmonics?: true
    Max angular momentum: 3

  ==> Pre-Iterations <==

   -------------------------------------------------------
    Irrep   Nso     Nmo     Nalpha   Nbeta   Ndocc  Nsocc
   -------------------------------------------------------
     A        552     552       0       0       0       0
   -------------------------------------------------------
    Total     552     552      16      16      16       0
   -------------------------------------------------------

 OEINTS: Wrapper to libmints.
   by Justin Turney

   Calculation information:
      Number of atoms:                  16
      Number of AO shells:             184
      Number of SO shells:             184
      Number of primitives:            328
      Number of atomic orbitals:       640
      Number of basis functions:       552

      Number of irreps:                  1
      Number of functions per irrep: [ 552 ]

      Overlap, kinetic, potential, dipole, and quadrupole integrals
        stored in file 35.

  ==> Integral Setup <==

  ==> DFJK: Density-Fitted J/K Matrices <==

    J tasked:                  Yes
    K tasked:                  Yes
    wK tasked:                  No
    OpenMP threads:              4
    Integrals threads:           4
    Memory (MB):              5006
    Algorithm:                Core
    Integral Cache:           LOAD
    Schwarz Cutoff:          0E+00
    Fitting Condition:       1E-12

   => Auxiliary Basis Set <=

  Basis Set: aug-cc-pvtz-jkfit
    Number of shells: 352
    Number of basis function: 1200
    Number of Cartesian functions: 1488
    Spherical Harmonics?: true
    Max angular momentum: 4

  Minimum eigenvalue in the overlap matrix is 6.1095662502E-06.
  Using Symmetric Orthogonalization.
  SCF Guess: Core (One-Electron) Hamiltonian.

  Guess energy:  -183.33646099283419

  ==> Iterations <==

                        Total Energy        Delta E     RMS |[F,P]|

   @RHF iter   1:  -170.62100941750657   -1.70621e+02   2.39847e-02 
   @RHF iter   2:  -145.23439793935592    2.53866e+01   1.41138e-02 DIIS
   @RHF iter   3:  -199.87307400376812   -5.46387e+01   1.05028e-02 DIIS
   @RHF iter   4:  -224.73533555835439   -2.48623e+01   4.69441e-03 DIIS
   @RHF iter   5:  -227.38640986682213   -2.65107e+00   2.11744e-03 DIIS
   @RHF iter   6:  -227.86026604615085   -4.73856e-01   5.50966e-04 DIIS
   @RHF iter   7:  -227.89533191151412   -3.50659e-02   2.09528e-04 DIIS
   @RHF iter   8:  -227.90187419760605   -6.54229e-03   6.08301e-05 DIIS
   @RHF iter   9:  -227.90288881750109   -1.01462e-03   1.76206e-05 DIIS
   @RHF iter  10:  -227.90304279914278   -1.53982e-04   6.36435e-06 DIIS
   @RHF iter  11:  -227.90305910330795   -1.63042e-05   2.44296e-06 DIIS
   @RHF iter  12:  -227.90306149982166   -2.39651e-06   7.68644e-07 DIIS
   @RHF iter  13:  -227.90306170801927   -2.08198e-07   2.50444e-07 DIIS
   @RHF iter  14:  -227.90306173301917   -2.49999e-08   5.84536e-08 DIIS
   @RHF iter  15:  -227.90306173444026   -1.42109e-09   1.65227e-08 DIIS
   @RHF iter  16:  -227.90306173454002   -9.97602e-11   3.83223e-09 DIIS

  ==> Post-Iterations <==

	Orbital Energies (a.u.)
	-----------------------

	Doubly Occupied:                                                      

	   1A    -20.624914     2A    -20.545198     3A    -11.389344  
	   4A    -11.243633     5A     -1.471715     6A     -1.354619  
	   7A     -1.028756     8A     -0.833683     9A     -0.705193  
	  10A     -0.682404    11A     -0.656275    12A     -0.580164  
	  13A     -0.572685    14A     -0.565051    15A     -0.477799  
	  16A     -0.452382  

	Virtual:                                                              

	  17A      0.021057    18A      0.028946    19A      0.040779  
	  20A      0.042221    21A      0.051760    22A      0.052039  
	  23A      0.052946    24A      0.075232    25A      0.081789  
	  26A      0.089552    27A      0.096237    28A      0.098761  
	  29A      0.114391    30A      0.117176    31A      0.123323  
	  32A      0.128641    33A      0.128935    34A      0.134914  
	  35A      0.141350    36A      0.144769    37A      0.149134  
	  38A      0.161629    39A      0.163407    40A      0.172126  
	  41A      0.185092    42A      0.190630    43A      0.198034  
	  44A      0.199412    45A      0.212286    46A      0.212690  
	  47A      0.218179    48A      0.224821    49A      0.238990  
	  50A      0.244642    51A      0.246001    52A      0.254909  
	  53A      0.268153    54A      0.272220    55A      0.272454  
	  56A      0.289716    57A      0.297655    58A      0.297926  
	  59A      0.308407    60A      0.312274    61A      0.325675  
	  62A      0.328129    63A      0.334201    64A      0.337117  
	  65A      0.339153    66A      0.345187    67A      0.364431  
	  68A      0.367540    69A      0.371400    70A      0.377102  
	  71A      0.380036    72A      0.388932    73A      0.392339  
	  74A      0.397353    75A      0.404520    76A      0.413191  
	  77A      0.414785    78A      0.422841    79A      0.428795  
	  80A      0.443365    81A      0.447340    82A      0.452835  
	  83A      0.453697    84A      0.455228    85A      0.461671  
	  86A      0.462292    87A      0.473506    88A      0.477669  
	  89A      0.483490    90A      0.487237    91A      0.501466  
	  92A      0.502866    93A      0.517655    94A      0.519076  
	  95A      0.527986    96A      0.530230    97A      0.543486  
	  98A      0.548948    99A      0.555756   100A      0.559548  
	 101A      0.561261   102A      0.578609   103A      0.583312  
	 104A      0.599924   105A      0.604379   106A      0.617907  
	 107A      0.627028   108A      0.627961   109A      0.639843  
	 110A      0.663631   111A      0.670173   112A      0.671183  
	 113A      0.673835   114A      0.693863   115A      0.701046  
	 116A      0.706131   117A      0.722819   118A      0.734486  
	 119A      0.751187   120A      0.772143   121A      0.778777  
	 122A      0.780264   123A      0.805310   124A      0.808962  
	 125A      0.812804   126A      0.817454   127A      0.820234  
	 128A      0.825181   129A      0.831385   130A      0.849329  
	 131A      0.862899   132A      0.872068   133A      0.881300  
	 134A      0.892923   135A      0.898223   136A      0.911380  
	 137A      0.927244   138A      0.928996   139A      0.931615  
	 140A      0.937035   141A      0.945666   142A      0.948963  
	 143A      0.952438   144A      0.953306   145A      0.972929  
	 146A      0.977627   147A      0.987556   148A      0.989242  
	 149A      0.995536   150A      0.998684   151A      1.006990  
	 152A      1.021922   153A      1.024669   154A      1.030635  
	 155A      1.041415   156A      1.051515   157A      1.056657  
	 158A      1.057953   159A      1.070479   160A      1.077572  
	 161A      1.084537   162A      1.096427   163A      1.109158  
	 164A      1.115215   165A      1.121572   166A      1.123909  
	 167A      1.126099   168A      1.132446   169A      1.145555  
	 170A      1.152231   171A      1.165957   172A      1.178680  
	 173A      1.187950   174A      1.190342   175A      1.203614  
	 176A      1.215094   177A      1.217849   178A      1.235729  
	 179A      1.236779   180A      1.244802   181A      1.247284  
	 182A      1.256189   183A      1.269283   184A      1.279075  
	 185A      1.284979   186A      1.291675   187A      1.300580  
	 188A      1.305421   189A      1.314040   190A      1.322002  
	 191A      1.326211   192A      1.349281   193A      1.353282  
	 194A      1.355536   195A      1.385230   196A      1.390258  
	 197A      1.404035   198A      1.409010   199A      1.414555  
	 200A      1.425403   201A      1.436143   202A      1.442835  
	 203A      1.451704   204A      1.474539   205A      1.483494  
	 206A      1.501575   207A      1.528583   208A      1.529972  
	 209A      1.553339   210A      1.558267   211A      1.569994  
	 212A      1.579781   213A      1.595526   214A      1.613261  
	 215A      1.626864   216A      1.639385   217A      1.646901  
	 218A      1.659695   219A      1.661544   220A      1.674447  
	 221A      1.676508   222A      1.687202   223A      1.705948  
	 224A      1.713617   225A      1.724444   226A      1.736777  
	 227A      1.758023   228A      1.768606   229A      1.776398  
	 230A      1.790859   231A      1.803870   232A      1.811159  
	 233A      1.815206   234A      1.820445   235A      1.824112  
	 236A      1.838292   237A      1.845079   238A      1.852104  
	 239A      1.879821   240A      1.895096   241A      1.911421  
	 242A      1.915873   243A      1.928248   244A      1.931422  
	 245A      1.950549   246A      1.952146   247A      1.959770  
	 248A      1.966258   249A      1.969536   250A      2.000056  
	 251A      2.020697   252A      2.023355   253A      2.055268  
	 254A      2.061128   255A      2.083933   256A      2.088856  
	 257A      2.108263   258A      2.129373   259A      2.141438  
	 260A      2.165322   261A      2.173275   262A      2.188330  
	 263A      2.189831   264A      2.208566   265A      2.218683  
	 266A      2.228241   267A      2.245202   268A      2.246409  
	 269A      2.254861   270A      2.274133   271A      2.301015  
	 272A      2.306871   273A      2.322244   274A      2.324255  
	 275A      2.385284   276A      2.391233   277A      2.402547  
	 278A      2.434713   279A      2.446426   280A      2.462758  
	 281A      2.485949   282A      2.526278   283A      2.558090  
	 284A      2.570002   285A      2.579191   286A      2.592505  
	 287A      2.602953   288A      2.628588   289A      2.674419  
	 290A      2.683013   291A      2.694492   292A      2.704158  
	 293A      2.707666   294A      2.709299   295A      2.715153  
	 296A      2.717389   297A      2.755852   298A      2.758831  
	 299A      2.786488   300A      2.794489   301A      2.823011  
	 302A      2.834220   303A      2.855269   304A      2.868299  
	 305A      2.876710   306A      2.901261   307A      2.921852  
	 308A      2.926761   309A      2.945703   310A      2.953430  
	 311A      2.972616   312A      2.991486   313A      3.006540  
	 314A      3.026712   315A      3.070294   316A      3.099575  
	 317A      3.101770   318A      3.136620   319A      3.164510  
	 320A      3.175303   321A      3.186063   322A      3.204683  
	 323A      3.214817   324A      3.279803   325A      3.285550  
	 326A      3.296189   327A      3.303325   328A      3.326290  
	 329A      3.360878   330A      3.383777   331A      3.403897  
	 332A      3.415713   333A      3.436974   334A      3.460219  
	 335A      3.492662   336A      3.515847   337A      3.519186  
	 338A      3.577570   339A      3.594998   340A      3.625117  
	 341A      3.626263   342A      3.639444   343A      3.642294  
	 344A      3.677121   345A      3.686459   346A      3.692138  
	 347A      3.702351   348A      3.714538   349A      3.789861  
	 350A      3.802705   351A      3.821028   352A      3.838708  
	 353A      3.845409   354A      3.890826   355A      3.909907  
	 356A      3.912608   357A      3.916487   358A      3.934363  
	 359A      3.961707   360A      3.974468   361A      3.989754  
	 362A      4.005988   363A      4.052797   364A      4.068906  
	 365A      4.078668   366A      4.096186   367A      4.114589  
	 368A      4.119627   369A      4.142171   370A      4.144972  
	 371A      4.173373   372A      4.198806   373A      4.207083  
	 374A      4.211144   375A      4.239903   376A      4.244765  
	 377A      4.281146   378A      4.286260   379A      4.323241  
	 380A      4.349235   381A      4.355720   382A      4.390384  
	 383A      4.418887   384A      4.424203   385A      4.447982  
	 386A      4.450319   387A      4.495607   388A      4.507823  
	 389A      4.537327   390A      4.541996   391A      4.549128  
	 392A      4.579096   393A      4.603788   394A      4.606907  
	 395A      4.637006   396A      4.647423   397A      4.677915  
	 398A      4.691561   399A      4.692961   400A      4.728978  
	 401A      4.730844   402A      4.786107   403A      4.795485  
	 404A      4.801956   405A      4.804892   406A      4.834608  
	 407A      4.849799   408A      4.862050   409A      4.902926  
	 410A      4.915588   411A      4.929602   412A      4.942563  
	 413A      4.985214   414A      4.997726   415A      5.021279  
	 416A      5.057494   417A      5.071520   418A      5.084404  
	 419A      5.090371   420A      5.126842   421A      5.137998  
	 422A      5.149696   423A      5.154520   424A      5.188986  
	 425A      5.228775   426A      5.262190   427A      5.310951  
	 428A      5.312558   429A      5.353279   430A      5.354163  
	 431A      5.385325   432A      5.412948   433A      5.422413  
	 434A      5.445460   435A      5.465000   436A      5.498569  
	 437A      5.510507   438A      5.519884   439A      5.535229  
	 440A      5.544584   441A      5.571077   442A      5.584132  
	 443A      5.652388   444A      5.669243   445A      5.675020  
	 446A      5.718853   447A      5.748767   448A      5.783132  
	 449A      5.812606   450A      5.842764   451A      5.883753  
	 452A      5.956172   453A      6.008742   454A      6.067763  
	 455A      6.074183   456A      6.097185   457A      6.129516  
	 458A      6.131620   459A      6.152259   460A      6.178626  
	 461A      6.235149   462A      6.251484   463A      6.264642  
	 464A      6.309571   465A      6.339204   466A      6.402704  
	 467A      6.507289   468A      6.532752   469A      6.631615  
	 470A      6.671086   471A      6.699714   472A      6.719329  
	 473A      6.776898   474A      6.840772   475A      6.858045  
	 476A      6.894496   477A      6.931738   478A      6.953677  
	 479A      7.007843   480A      7.029836   481A      7.118625  
	 482A      7.150179   483A      7.201650   484A      7.243361  
	 485A      7.285789   486A      7.408064   487A      7.416530  
	 488A      7.446152   489A      7.478615   490A      7.486116  
	 491A      7.494097   492A      7.585172   493A      7.637693  
	 494A      7.726758   495A      7.766337   496A      7.768382  
	 497A      7.809343   498A      7.813812   499A      7.845434  
	 500A      7.846367   501A      7.848980   502A      7.855009  
	 503A      7.921887   504A      7.969430   505A      8.027742  
	 506A      8.078677   507A      8.088491   508A      8.152316  
	 509A      8.219482   510A      8.260133   511A      8.306389  
	 512A      8.332616   513A      8.394387   514A      8.417006  
	 515A      8.495889   516A      8.520062   517A      8.686463  
	 518A      8.707806   519A      8.749439   520A      8.858966  
	 521A      9.096684   522A      9.282307   523A      9.362437  
	 524A      9.470117   525A      9.914547   526A      9.950728  
	 527A     10.015684   528A     10.098671   529A     10.323362  
	 530A     10.404204   531A     10.499425   532A     10.603279  
	 533A     10.716713   534A     10.957082   535A     11.183848  
	 536A     11.363087   537A     11.955279   538A     12.109437  
	 539A     12.736218   540A     13.118910   541A     13.371679  
	 542A     13.844376   543A     14.440836   544A     14.609665  
	 545A     16.640446   546A     17.539490   547A     18.203132  
	 548A     20.502735   549A     53.131862   550A     55.120797  
	 551A     67.312074   552A     71.108003  

	Final Occupation by Irrep:
	          A 
	DOCC [    16 ]

  Energy converged.

  @RHF Final Energy:  -227.90306173454002

   => Energetics <=

    Nuclear Repulsion Energy =            121.3535420008311263
    One-Electron Energy =                -552.1455806140069171
    Two-Electron Energy =                 202.8889768786370098
    DFT Exchange-Correlation Energy =       0.0000000000000000
    Empirical Dispersion Energy =           0.0000000000000000
    Total Energy =                       -227.9030617345387952



Properties will be evaluated at   0.000000,   0.000000,   0.000000 Bohr
  ==> Properties <==


Properties computed using the SCF density density matrix
  Nuclear Dipole Moment: (a.u.)
     X:  -108.3723      Y:     0.8532      Z:    -0.4565

  Electronic Dipole Moment: (a.u.)
     X:   107.9342      Y:    -1.5925      Z:     0.2770

  Dipole Moment: (a.u.)
     X:    -0.4381      Y:    -0.7393      Z:    -0.1795     Total:     0.8779

  Dipole Moment: (Debye)
     X:    -1.1134      Y:    -1.8790      Z:    -0.4562     Total:     2.2313


  Saving occupied orbitals to File 180.

  Saving SAPT 2-MONOMER_A file.

*** tstop() called on node138.bme.utexas.edu at Thu Feb 20 15:11:17 2014
Module time:
	user time   =     444.40 seconds =       7.41 minutes
	system time =       4.08 seconds =       0.07 minutes
	total time  =        117 seconds =       1.95 minutes
Total time:
	user time   =    1025.16 seconds =      17.09 minutes
	system time =      10.96 seconds =       0.18 minutes
	total time  =        273 seconds =       4.55 minutes

  //>>>>>>>>>>>>>>>>>>>>>>>>>>>>>>>>>>>//
  //            Monomer B HF           //
  //<<<<<<<<<<<<<<<<<<<<<<<<<<<<<<<<<<<//


  No DF_BASIS_SCF auxiliary basis selected, defaulting to aug-cc-pvtz-jkfit


*** tstart() called on node138.bme.utexas.edu
*** at Thu Feb 20 15:11:17 2014


         ---------------------------------------------------------
                                   SCF
            by Justin Turney, Rob Parrish, and Andy Simmonett
                              RHF Reference
                        4 Threads,   7000 MiB Core
         ---------------------------------------------------------

  ==> Geometry <==

    Molecular point group: c1
    Full point group: C1

    Geometry (in Angstrom), charge = 0, multiplicity = 1:

       Center              X                  Y                   Z       
    ------------   -----------------  -----------------  -----------------
           C(Gh)     -1.676895075789     0.095511180237     0.012072858837
           O(Gh)     -0.973346987789     1.068829221237     0.251825523837
           O(Gh)     -1.204489387789    -1.106711633763    -0.276198331163
           H(Gh)     -0.210750212789    -1.073906770763    -0.261575306163
           C(Gh)     -3.173613669789     0.140920431237     0.016270175837
           H(Gh)     -3.511183849789     1.145834610237     0.238329195837
           H(Gh)     -3.548075149789    -0.179238940763    -0.952982695163
           H(Gh)     -3.552397831789    -0.556718958763     0.759569939837
           C          1.676925737211    -0.095427837763    -0.012573373163
           O          0.973307372211    -1.068742325763    -0.252360975163
           O          1.204499403211     1.107007550237     0.275205097837
           H          0.210710863211     1.074109316237     0.260804593837
           C          3.173638185211    -0.141330583763    -0.014537768163
           H          3.511217749211    -1.142649776763    -0.252063263163
           H          3.555136730211     0.569022355237    -0.744006666163
           H          3.545154496211     0.161363933237     0.961517592837

  Running in c1 symmetry.

  Nuclear repulsion =  121.350375293972832

  Charge       = 0
  Multiplicity = 1
  Electrons    = 32
  Nalpha       = 16
  Nbeta        = 16

  ==> Algorithm <==

  SCF Algorithm Type is DF.
  DIIS enabled.
  MOM disabled.
  Fractional occupation disabled.
  Guess Type is CORE.
  Energy threshold   = 1.00e-08
  Density threshold  = 1.00e-08
  Integral threshold = 0.00e+00

  ==> Primary Basis <==

  Basis Set: AUG-CC-PVTZ
    Number of shells: 184
    Number of basis function: 552
    Number of Cartesian functions: 640
    Spherical Harmonics?: true
    Max angular momentum: 3

  ==> Pre-Iterations <==

   -------------------------------------------------------
    Irrep   Nso     Nmo     Nalpha   Nbeta   Ndocc  Nsocc
   -------------------------------------------------------
     A        552     552       0       0       0       0
   -------------------------------------------------------
    Total     552     552      16      16      16       0
   -------------------------------------------------------

 OEINTS: Wrapper to libmints.
   by Justin Turney

   Calculation information:
      Number of atoms:                  16
      Number of AO shells:             184
      Number of SO shells:             184
      Number of primitives:            328
      Number of atomic orbitals:       640
      Number of basis functions:       552

      Number of irreps:                  1
      Number of functions per irrep: [ 552 ]

      Overlap, kinetic, potential, dipole, and quadrupole integrals
        stored in file 35.

  ==> Integral Setup <==

  ==> DFJK: Density-Fitted J/K Matrices <==

    J tasked:                  Yes
    K tasked:                  Yes
    wK tasked:                  No
    OpenMP threads:              4
    Integrals threads:           4
    Memory (MB):              5006
    Algorithm:                Core
    Integral Cache:           LOAD
    Schwarz Cutoff:          0E+00
    Fitting Condition:       1E-12

   => Auxiliary Basis Set <=

  Basis Set: aug-cc-pvtz-jkfit
    Number of shells: 352
    Number of basis function: 1200
    Number of Cartesian functions: 1488
    Spherical Harmonics?: true
    Max angular momentum: 4

  Minimum eigenvalue in the overlap matrix is 6.1095662502E-06.
  Using Symmetric Orthogonalization.
  SCF Guess: Core (One-Electron) Hamiltonian.

  Guess energy:  -183.33521417874982

  ==> Iterations <==

                        Total Energy        Delta E     RMS |[F,P]|

   @RHF iter   1:  -170.62217663503685   -1.70622e+02   2.39845e-02 
   @RHF iter   2:  -145.23453955968426    2.53876e+01   1.41141e-02 DIIS
   @RHF iter   3:  -199.87330744896281   -5.46388e+01   1.05024e-02 DIIS
   @RHF iter   4:  -224.73444507351752   -2.48611e+01   4.69529e-03 DIIS
   @RHF iter   5:  -227.38568544853700   -2.65124e+00   2.11889e-03 DIIS
   @RHF iter   6:  -227.86020228867073   -4.74517e-01   5.51305e-04 DIIS
   @RHF iter   7:  -227.89531063866889   -3.51083e-02   2.09703e-04 DIIS
   @RHF iter   8:  -227.90186395593037   -6.55332e-03   6.08472e-05 DIIS
   @RHF iter   9:  -227.90287997136528   -1.01602e-03   1.76338e-05 DIIS
   @RHF iter  10:  -227.90303419864011   -1.54227e-04   6.36909e-06 DIIS
   @RHF iter  11:  -227.90305053068465   -1.63320e-05   2.44340e-06 DIIS
   @RHF iter  12:  -227.90305292850525   -2.39782e-06   7.68963e-07 DIIS
   @RHF iter  13:  -227.90305313712423   -2.08619e-07   2.50435e-07 DIIS
   @RHF iter  14:  -227.90305316210481   -2.49806e-08   5.84385e-08 DIIS
   @RHF iter  15:  -227.90305316352504   -1.42023e-09   1.65332e-08 DIIS
   @RHF iter  16:  -227.90305316362611   -1.01068e-10   3.83817e-09 DIIS

  ==> Post-Iterations <==

	Orbital Energies (a.u.)
	-----------------------

	Doubly Occupied:                                                      

	   1A    -20.624909     2A    -20.545214     3A    -11.389362  
	   4A    -11.243627     5A     -1.471661     6A     -1.354596  
	   7A     -1.028774     8A     -0.833648     9A     -0.705180  
	  10A     -0.682390    11A     -0.656260    12A     -0.580175  
	  13A     -0.572694    14A     -0.565063    15A     -0.477798  
	  16A     -0.452388  

	Virtual:                                                              

	  17A      0.021058    18A      0.028946    19A      0.040781  
	  20A      0.042219    21A      0.051753    22A      0.052046  
	  23A      0.052945    24A      0.075230    25A      0.081790  
	  26A      0.089551    27A      0.096234    28A      0.098770  
	  29A      0.114390    30A      0.117171    31A      0.123331  
	  32A      0.128718    33A      0.128851    34A      0.134917  
	  35A      0.141350    36A      0.144767    37A      0.149139  
	  38A      0.161627    39A      0.163392    40A      0.172132  
	  41A      0.185094    42A      0.190590    43A      0.198029  
	  44A      0.199454    45A      0.212140    46A      0.212841  
	  47A      0.218176    48A      0.224810    49A      0.238984  
	  50A      0.244642    51A      0.246000    52A      0.254903  
	  53A      0.268158    54A      0.272068    55A      0.272622  
	  56A      0.289713    57A      0.297599    58A      0.297975  
	  59A      0.308417    60A      0.312282    61A      0.325675  
	  62A      0.328128    63A      0.334201    64A      0.337115  
	  65A      0.339205    66A      0.345130    67A      0.364424  
	  68A      0.367538    69A      0.371392    70A      0.377116  
	  71A      0.380022    72A      0.388924    73A      0.392291  
	  74A      0.397396    75A      0.404512    76A      0.413174  
	  77A      0.414824    78A      0.422841    79A      0.428814  
	  80A      0.443368    81A      0.447338    82A      0.452808  
	  83A      0.453668    84A      0.455231    85A      0.461716  
	  86A      0.462287    87A      0.473566    88A      0.477628  
	  89A      0.483492    90A      0.487210    91A      0.501435  
	  92A      0.502916    93A      0.517653    94A      0.519049  
	  95A      0.528019    96A      0.530173    97A      0.543481  
	  98A      0.548969    99A      0.555717   100A      0.559562  
	 101A      0.561309   102A      0.578597   103A      0.583285  
	 104A      0.600486   105A      0.603777   106A      0.617897  
	 107A      0.626995   108A      0.627990   109A      0.639886  
	 110A      0.663623   111A      0.670504   112A      0.670884  
	 113A      0.673823   114A      0.693843   115A      0.701062  
	 116A      0.706102   117A      0.722800   118A      0.734485  
	 119A      0.751200   120A      0.772134   121A      0.778711  
	 122A      0.780281   123A      0.805280   124A      0.808976  
	 125A      0.812807   126A      0.817588   127A      0.820104  
	 128A      0.825173   129A      0.831417   130A      0.849314  
	 131A      0.862869   132A      0.872074   133A      0.881313  
	 134A      0.892902   135A      0.898261   136A      0.911360  
	 137A      0.927449   138A      0.928898   139A      0.931466  
	 140A      0.937037   141A      0.945625   142A      0.948987  
	 143A      0.952036   144A      0.953818   145A      0.972879  
	 146A      0.977686   147A      0.988135   148A      0.988895  
	 149A      0.995523   150A      0.998465   151A      1.006994  
	 152A      1.022035   153A      1.024540   154A      1.030651  
	 155A      1.041501   156A      1.051532   157A      1.056648  
	 158A      1.057994   159A      1.070434   160A      1.077523  
	 161A      1.084538   162A      1.096482   163A      1.109105  
	 164A      1.115169   165A      1.121600   166A      1.123893  
	 167A      1.126095   168A      1.132428   169A      1.145551  
	 170A      1.152233   171A      1.166033   172A      1.178627  
	 173A      1.187890   174A      1.190412   175A      1.203457  
	 176A      1.215244   177A      1.217786   178A      1.235256  
	 179A      1.237258   180A      1.244749   181A      1.247218  
	 182A      1.256186   183A      1.269291   184A      1.279107  
	 185A      1.285057   186A      1.291755   187A      1.300594  
	 188A      1.305555   189A      1.314097   190A      1.321965  
	 191A      1.326140   192A      1.349854   193A      1.353567  
	 194A      1.354741   195A      1.385202   196A      1.390268  
	 197A      1.403881   198A      1.409158   199A      1.414605  
	 200A      1.425306   201A      1.435994   202A      1.442784  
	 203A      1.451651   204A      1.474566   205A      1.483556  
	 206A      1.501623   207A      1.528717   208A      1.529807  
	 209A      1.553237   210A      1.558278   211A      1.569963  
	 212A      1.579813   213A      1.595565   214A      1.613251  
	 215A      1.626846   216A      1.639549   217A      1.646894  
	 218A      1.659597   219A      1.661576   220A      1.674620  
	 221A      1.676295   222A      1.687107   223A      1.705900  
	 224A      1.713518   225A      1.724599   226A      1.736740  
	 227A      1.758048   228A      1.768620   229A      1.776460  
	 230A      1.790816   231A      1.803857   232A      1.811326  
	 233A      1.815263   234A      1.820391   235A      1.824097  
	 236A      1.838317   237A      1.845004   238A      1.852197  
	 239A      1.879821   240A      1.895103   241A      1.911351  
	 242A      1.915867   243A      1.928207   244A      1.931388  
	 245A      1.950492   246A      1.952177   247A      1.959800  
	 248A      1.966287   249A      1.969479   250A      2.000161  
	 251A      2.020720   252A      2.023395   253A      2.055206  
	 254A      2.061145   255A      2.083922   256A      2.088843  
	 257A      2.108290   258A      2.129339   259A      2.141455  
	 260A      2.165630   261A      2.173183   262A      2.188681  
	 263A      2.189226   264A      2.208496   265A      2.218814  
	 266A      2.228145   267A      2.245207   268A      2.246483  
	 269A      2.254864   270A      2.274246   271A      2.300973  
	 272A      2.306909   273A      2.322084   274A      2.324409  
	 275A      2.385294   276A      2.391241   277A      2.402455  
	 278A      2.434755   279A      2.446325   280A      2.462733  
	 281A      2.485941   282A      2.526279   283A      2.558042  
	 284A      2.570046   285A      2.579222   286A      2.592417  
	 287A      2.602892   288A      2.628517   289A      2.674409  
	 290A      2.683002   291A      2.694487   292A      2.704168  
	 293A      2.707695   294A      2.709359   295A      2.714998  
	 296A      2.717485   297A      2.755835   298A      2.758867  
	 299A      2.786502   300A      2.794521   301A      2.823054  
	 302A      2.834102   303A      2.855244   304A      2.868269  
	 305A      2.876753   306A      2.901300   307A      2.921779  
	 308A      2.926784   309A      2.945735   310A      2.953453  
	 311A      2.972648   312A      2.991547   313A      3.006535  
	 314A      3.026703   315A      3.070442   316A      3.099615  
	 317A      3.101782   318A      3.136520   319A      3.164542  
	 320A      3.175221   321A      3.186143   322A      3.204652  
	 323A      3.214856   324A      3.279781   325A      3.285513  
	 326A      3.296166   327A      3.303474   328A      3.326193  
	 329A      3.361090   330A      3.383815   331A      3.404031  
	 332A      3.415441   333A      3.436867   334A      3.460182  
	 335A      3.492743   336A      3.515647   337A      3.519367  
	 338A      3.577484   339A      3.594933   340A      3.625288  
	 341A      3.626166   342A      3.639462   343A      3.642432  
	 344A      3.677051   345A      3.686410   346A      3.692107  
	 347A      3.702335   348A      3.714535   349A      3.789833  
	 350A      3.802765   351A      3.821050   352A      3.838689  
	 353A      3.845452   354A      3.890961   355A      3.910421  
	 356A      3.912270   357A      3.916262   358A      3.934415  
	 359A      3.961716   360A      3.974510   361A      3.989682  
	 362A      4.005979   363A      4.052822   364A      4.068949  
	 365A      4.078548   366A      4.096148   367A      4.114591  
	 368A      4.119606   369A      4.142125   370A      4.145160  
	 371A      4.173312   372A      4.198820   373A      4.207082  
	 374A      4.211107   375A      4.239658   376A      4.245116  
	 377A      4.281049   378A      4.286323   379A      4.323329  
	 380A      4.349234   381A      4.355670   382A      4.390395  
	 383A      4.418780   384A      4.424281   385A      4.448508  
	 386A      4.449583   387A      4.495665   388A      4.507947  
	 389A      4.537274   390A      4.541918   391A      4.549082  
	 392A      4.579103   393A      4.603033   394A      4.607755  
	 395A      4.636907   396A      4.647508   397A      4.677949  
	 398A      4.691587   399A      4.693001   400A      4.728301  
	 401A      4.731421   402A      4.785659   403A      4.795871  
	 404A      4.802630   405A      4.804204   406A      4.834599  
	 407A      4.849822   408A      4.862078   409A      4.902889  
	 410A      4.915427   411A      4.929506   412A      4.942539  
	 413A      4.985138   414A      4.997687   415A      5.021401  
	 416A      5.057504   417A      5.071487   418A      5.084484  
	 419A      5.090436   420A      5.126806   421A      5.138410  
	 422A      5.149661   423A      5.154481   424A      5.188863  
	 425A      5.228745   426A      5.262145   427A      5.310917  
	 428A      5.312652   429A      5.352488   430A      5.354874  
	 431A      5.385447   432A      5.412675   433A      5.422671  
	 434A      5.445431   435A      5.464939   436A      5.498460  
	 437A      5.510714   438A      5.519951   439A      5.535223  
	 440A      5.544555   441A      5.571018   442A      5.584182  
	 443A      5.652528   444A      5.669196   445A      5.675204  
	 446A      5.718831   447A      5.748896   448A      5.783105  
	 449A      5.812501   450A      5.842924   451A      5.883751  
	 452A      5.956185   453A      6.008719   454A      6.067803  
	 455A      6.074299   456A      6.097132   457A      6.129777  
	 458A      6.131429   459A      6.152311   460A      6.178630  
	 461A      6.234911   462A      6.251402   463A      6.264395  
	 464A      6.309750   465A      6.339226   466A      6.402603  
	 467A      6.507268   468A      6.532860   469A      6.631669  
	 470A      6.671065   471A      6.699744   472A      6.719423  
	 473A      6.776932   474A      6.840926   475A      6.857991  
	 476A      6.894472   477A      6.931748   478A      6.953643  
	 479A      7.007837   480A      7.029720   481A      7.118626  
	 482A      7.150002   483A      7.201922   484A      7.243290  
	 485A      7.285588   486A      7.408023   487A      7.416504  
	 488A      7.446054   489A      7.478562   490A      7.486099  
	 491A      7.494053   492A      7.585146   493A      7.637645  
	 494A      7.726671   495A      7.766313   496A      7.768401  
	 497A      7.809280   498A      7.813749   499A      7.845270  
	 500A      7.846137   501A      7.848978   502A      7.855047  
	 503A      7.921892   504A      7.969334   505A      8.027670  
	 506A      8.078609   507A      8.088632   508A      8.152257  
	 509A      8.219403   510A      8.260122   511A      8.306413  
	 512A      8.332509   513A      8.394354   514A      8.417051  
	 515A      8.495841   516A      8.520091   517A      8.686426  
	 518A      8.707908   519A      8.749370   520A      8.859039  
	 521A      9.096616   522A      9.282422   523A      9.362635  
	 524A      9.470347   525A      9.914578   526A      9.950802  
	 527A     10.015774   528A     10.098762   529A     10.323327  
	 530A     10.404462   531A     10.499439   532A     10.603192  
	 533A     10.716465   534A     10.957112   535A     11.184031  
	 536A     11.363335   537A     11.955432   538A     12.109619  
	 539A     12.736453   540A     13.119066   541A     13.371988  
	 542A     13.844915   543A     14.440950   544A     14.609913  
	 545A     16.639534   546A     17.538209   547A     18.203439  
	 548A     20.502475   549A     53.133504   550A     55.118991  
	 551A     67.314430   552A     71.110597  

	Final Occupation by Irrep:
	          A 
	DOCC [    16 ]

  Energy converged.

  @RHF Final Energy:  -227.90305316362611

   => Energetics <=

    Nuclear Repulsion Energy =            121.3503752939728315
    One-Electron Energy =                -552.1393761479737350
    Two-Electron Energy =                 202.8859476903759855
    DFT Exchange-Correlation Energy =       0.0000000000000000
    Empirical Dispersion Energy =           0.0000000000000000
    Total Energy =                       -227.9030531636249179



Properties will be evaluated at   0.000000,   0.000000,   0.000000 Bohr
  ==> Properties <==


Properties computed using the SCF density density matrix
  Nuclear Dipole Moment: (a.u.)
     X:   108.3721      Y:    -0.8553      Z:     0.4655

  Electronic Dipole Moment: (a.u.)
     X:  -107.9339      Y:     1.5940      Z:    -0.2844

  Dipole Moment: (a.u.)
     X:     0.4382      Y:     0.7388      Z:     0.1811     Total:     0.8778

  Dipole Moment: (Debye)
     X:     1.1138      Y:     1.8778      Z:     0.4602     Total:     2.2312


  Saving occupied orbitals to File 180.

  Saving SAPT 2-MONOMER_B file.

*** tstop() called on node138.bme.utexas.edu at Thu Feb 20 15:13:14 2014
Module time:
	user time   =     444.49 seconds =       7.41 minutes
	system time =       4.19 seconds =       0.07 minutes
	total time  =        117 seconds =       1.95 minutes
Total time:
	user time   =    1469.68 seconds =      24.49 minutes
	system time =      15.15 seconds =       0.25 minutes
	total time  =        390 seconds =       6.50 minutes
  No DF_BASIS_SAPT auxiliary basis selected, defaulting to aug-cc-pvtz-ri

  //>>>>>>>>>>>>>>>>>>>>>>>>>>>>>>>>>>>//
  //               SAPT2+              //
  //<<<<<<<<<<<<<<<<<<<<<<<<<<<<<<<<<<<//


*** tstart() called on node138.bme.utexas.edu
*** at Thu Feb 20 15:13:14 2014

        SAPT2+  
    Ed Hohenstein
     6 June 2009

      Orbital Information
  --------------------------
    NSO        =       552
    NMO        =       552
    NRI        =      1216
    NOCC A     =        16
    NOCC B     =        16
    FOCC A     =         4
    FOCC B     =         4
    NVIR A     =       536
    NVIR B     =       536

    Estimated memory usage: 4560.0 MB

    Elst10,r            =    -0.145118358763 H
    Exch10 (S^2)        =     0.283431996780 H
    Exch10              =     0.304496646946 H
    Ind20,r (A<-B)      =    -0.093480191894 H
    Ind20,r (B<-A)      =    -0.093486888864 H
    Ind20,r             =    -0.186967080758 H
    Exch-Ind20,r (A<-B) =     0.053975562488 H
    Exch-Ind20,r (B<-A) =     0.053981975984 H
    Exch-Ind20,r        =     0.107957538472 H
    Disp20              =    -0.055346153246 H
    Exch-Disp20         =     0.013318864602 H
    Elst12,r            =     0.001104849393 H
    Exch11              =    -0.000369749955 H
    Exch12              =     0.020258015436 H
    Ind22               =    -0.025169647909 H
    Disp21              =     0.007478565827 H
    Disp22 (SDQ)        =    -0.002008870721 H

    (i =   1 of  12)       3787 seconds
    (i =   2 of  12)       7573 seconds
    (i =   3 of  12)      11358 seconds
    (i =   4 of  12)      15150 seconds
    (i =   5 of  12)      18940 seconds
    (i =   6 of  12)      22727 seconds
    (i =   7 of  12)      26514 seconds
    (i =   8 of  12)      30302 seconds
    (i =   9 of  12)      34088 seconds
    (i =  10 of  12)      37877 seconds
    (i =  11 of  12)      41664 seconds
    (i =  12 of  12)      45453 seconds

    Disp220 (T)         =    -0.004632247103 H

    (i =   1 of  12)       3797 seconds
    (i =   2 of  12)       7598 seconds
    (i =   3 of  12)      11401 seconds
    (i =   4 of  12)      15207 seconds
    (i =   5 of  12)      19011 seconds
    (i =   6 of  12)      22807 seconds
    (i =   7 of  12)      26612 seconds
    (i =   8 of  12)      30406 seconds
    (i =   9 of  12)      34209 seconds
    (i =  10 of  12)      38010 seconds
    (i =  11 of  12)      41809 seconds
    (i =  12 of  12)      45612 seconds

    Disp202 (T)         =    -0.004632400329 H

    Disp22 (T)          =    -0.009264647432 H

    SAPT Results  
  -----------------------------------------------------------------------
    Electrostatics        -144.01350937 mH     -90.36984526 kcal mol^-1
      Elst10,r            -145.11835876 mH     -91.06314875 kcal mol^-1
      Elst12,r               1.10484939 mH       0.69330349 kcal mol^-1

    Exchange               324.38491243 mH     203.55461420 kcal mol^-1
      Exch10               304.49664695 mH     191.07453868 kcal mol^-1
      Exch10(S^2)          283.43199678 mH     177.85627058 kcal mol^-1
      Exch11(S^2)           -0.36974996 mH      -0.23202161 kcal mol^-1
      Exch12(S^2)           20.25801544 mH      12.71209714 kcal mol^-1

    Induction             -139.22256987 mH     -87.36348521 kcal mol^-1
      Ind20,r             -186.96708076 mH    -117.32361936 kcal mol^-1
      Ind22                -25.16964791 mH     -15.79419317 kcal mol^-1
      Exch-Ind20,r         107.95753847 mH      67.74438099 kcal mol^-1
      Exch-Ind22            14.53332438 mH       9.11979911 kcal mol^-1
      delta HF,r (2)       -49.57670405 mH     -31.10985277 kcal mol^-1

    Dispersion             -45.82224097 mH     -28.75389152 kcal mol^-1
      Disp20               -55.34615325 mH     -34.73023695 kcal mol^-1
      Disp21                 7.47856583 mH       4.69287110 kcal mol^-1
      Disp22 (SDQ)          -2.00887072 mH      -1.26058546 kcal mol^-1
      Disp22 (T)            -9.26464743 mH      -5.81365428 kcal mol^-1
      Exch-Disp20           13.31886460 mH       8.35771407 kcal mol^-1

    Total HF                30.79204184 mH      19.32229878 kcal mol^-1
    Total SAPT0            -11.23524680 mH      -7.05022410 kcal mol^-1
    Total SAPT2             -0.87845546 mH      -0.55123914 kcal mol^-1
    Total SAPT2+            -4.67340778 mH      -2.93260778 kcal mol^-1

*** tstop() called on node138.bme.utexas.edu at Fri Feb 21 21:07:10 2014
Module time:
	user time   =  380206.93 seconds =    6336.78 minutes
	system time =     521.25 seconds =       8.69 minutes
	total time  =     107636 seconds =    1793.93 minutes
Total time:
	user time   =  381676.61 seconds =    6361.28 minutes
	system time =     536.40 seconds =       8.94 minutes
	total time  =     108026 seconds =    1800.43 minutes

*** PSI4 exiting successfully. Buy a developer a beer!
    -----------------------------------------------------------------------
          PSI4: An Open-Source Ab Initio Electronic Structure Package
                              PSI 4.0.0-beta4 Driver

    J. M. Turney, A. C. Simmonett, R. M. Parrish, E. G. Hohenstein,
    F. A. Evangelista, J. T. Fermann, B. J. Mintz, L. A. Burns, J. J. Wilke,
    M. L. Abrams, N. J. Russ, M. L. Leininger, C. L. Janssen, E. T. Seidl,
    W. D. Allen, H. F. Schaefer, R. A. King, E. F. Valeev, C. D. Sherrill,
    and T. D. Crawford, WIREs Comput. Mol. Sci., (2011) (doi: 10.1002/wcms.93)

                         Additional Contributions by
    A. E. DePrince, M. Saitow, U. Bozkaya, A. Yu. Sokolov
    -----------------------------------------------------------------------

    Process ID:  29073
    PSI4DATADIR: /home/xzhu216/psi4/psi4-install/share/psi

    Using LocalCommunicator (Number of processes = 1)

    Memory level set to 256.000 MB

  ==> Input File <==

--------------------------------------------------------------------------
#psi4
#
memory 7 gb

molecule AcOH_AcOH {
0 1
    C    -1.061709204     1.297140572     0.292060003
    O    -0.358161116     2.270458613     0.531812668
    O    -0.589303516     0.094917758     0.003788813
    H     0.404435659     0.127722621     0.018411838
    C    -2.558427798     1.342549823     0.296257320
    H    -2.895997978     2.347464002     0.518316340
    H    -2.932889278     1.022390451    -0.672995551
    H    -2.937211960     0.644910433     1.039557084
--
0 1
    C     2.461262731     1.106955853     0.268696495
    O     1.757644366     0.133641365     0.028908893
    O     1.988836397     2.309391241     0.556474966
    H     0.995047857     2.276493007     0.542074462
    C     3.957975179     1.061053107     0.266732100
    H     4.295554743     0.059733914     0.029206605
    H     4.339473724     1.771406046    -0.462736798
    H     4.329491490     1.363747624     1.242787461
units angstrom
no_reorient  #important for SAPT in psi4, default
symmetry c1  #important for SAPT in psi4, default
}

set {
basis aug-cc-pVTZ
scf_type DF
freeze_core True
}
energy('sapt2+')
--------------------------------------------------------------------------

  Memory set to   7.000 GiB by Python script.

  //>>>>>>>>>>>>>>>>>>>>>>>>>>>>>>>>>>>//
  //              Dimer HF             //
  //<<<<<<<<<<<<<<<<<<<<<<<<<<<<<<<<<<<//


  No DF_BASIS_SCF auxiliary basis selected, defaulting to aug-cc-pvtz-jkfit


*** tstart() called on node126.bme.utexas.edu
*** at Fri Feb 14 16:14:46 2014


         ---------------------------------------------------------
                                   SCF
            by Justin Turney, Rob Parrish, and Andy Simmonett
                              RHF Reference
                        4 Threads,   7000 MiB Core
         ---------------------------------------------------------

  ==> Geometry <==

    Molecular point group: c1
    Full point group: C1

    Geometry (in Angstrom), charge = 0, multiplicity = 1:

       Center              X                  Y                   Z       
    ------------   -----------------  -----------------  -----------------
           C         -1.761470636789     0.095134030737     0.011431496837
           O         -1.057922548789     1.068452071737     0.251184161837
           O         -1.289064948789    -1.107088783263    -0.276839693163
           H         -0.295325773789    -1.074283920263    -0.262216668163
           C         -3.258189230789     0.140543281737     0.015628813837
           H         -3.595759410789     1.145457460737     0.237687833837
           H         -3.632650710789    -0.179616090263    -0.953624057163
           H         -3.636973392789    -0.557096108263     0.758928577837
           C          1.761501298211    -0.095050688263    -0.011932011163
           O          1.057882933211    -1.068365176263    -0.251719613163
           O          1.289074964211     1.107384699737     0.275846459837
           H          0.295286424211     1.074486465737     0.261445955837
           C          3.258213746211    -0.140953434263    -0.013896406163
           H          3.595793310211    -1.142272627263    -0.251421901163
           H          3.639712291211     0.569399504737    -0.743365304163
           H          3.629730057211     0.161741082737     0.962158954837

  Running in c1 symmetry.

  Nuclear repulsion =  394.773728816844141

  Charge       = 0
  Multiplicity = 1
  Electrons    = 64
  Nalpha       = 32
  Nbeta        = 32

  ==> Algorithm <==

  SCF Algorithm Type is DF.
  DIIS enabled.
  MOM disabled.
  Fractional occupation disabled.
  Guess Type is CORE.
  Energy threshold   = 1.00e-08
  Density threshold  = 1.00e-08
  Integral threshold = 0.00e+00

  ==> Primary Basis <==

  Basis Set: AUG-CC-PVTZ
    Number of shells: 184
    Number of basis function: 552
    Number of Cartesian functions: 640
    Spherical Harmonics?: true
    Max angular momentum: 3

  ==> Pre-Iterations <==

   -------------------------------------------------------
    Irrep   Nso     Nmo     Nalpha   Nbeta   Ndocc  Nsocc
   -------------------------------------------------------
     A        552     552       0       0       0       0
   -------------------------------------------------------
    Total     552     552      32      32      32       0
   -------------------------------------------------------

 OEINTS: Wrapper to libmints.
   by Justin Turney

   Calculation information:
      Number of atoms:                  16
      Number of AO shells:             184
      Number of SO shells:             184
      Number of primitives:            328
      Number of atomic orbitals:       640
      Number of basis functions:       552

      Number of irreps:                  1
      Number of functions per irrep: [ 552 ]

      Overlap, kinetic, potential, dipole, and quadrupole integrals
        stored in file 35.

  ==> Integral Setup <==

  ==> DFJK: Density-Fitted J/K Matrices <==

    J tasked:                  Yes
    K tasked:                  Yes
    wK tasked:                  No
    OpenMP threads:              4
    Integrals threads:           4
    Memory (MB):              5006
    Algorithm:                Core
    Integral Cache:           SAVE
    Schwarz Cutoff:          0E+00
    Fitting Condition:       1E-12

   => Auxiliary Basis Set <=

  Basis Set: aug-cc-pvtz-jkfit
    Number of shells: 352
    Number of basis function: 1200
    Number of Cartesian functions: 1488
    Spherical Harmonics?: true
    Max angular momentum: 4

  Minimum eigenvalue in the overlap matrix is 6.1076581507E-06.
  Using Symmetric Orthogonalization.
  SCF Guess: Core (One-Electron) Hamiltonian.

  Guess energy:  -377.79449487602824

  ==> Iterations <==

                        Total Energy        Delta E     RMS |[F,P]|

   @RHF iter   1:  -339.16888665150543   -3.39169e+02   3.36475e-02 
   @RHF iter   2:  -272.78375270573304    6.63851e+01   1.98745e-02 DIIS
   @RHF iter   3:  -387.07420804528488   -1.14290e+02   1.62516e-02 DIIS
   @RHF iter   4:  -443.66343176638350   -5.65892e+01   8.19005e-03 DIIS
   @RHF iter   5:  -454.94316094599787   -1.12797e+01   2.41496e-03 DIIS
   @RHF iter   6:  -455.58621017621181   -6.43049e-01   1.24804e-03 DIIS
   @RHF iter   7:  -455.75668980705893   -1.70480e-01   5.33048e-04 DIIS
   @RHF iter   8:  -455.81088197411225   -5.41922e-02   6.30287e-05 DIIS
   @RHF iter   9:  -455.81189318584700   -1.01121e-03   1.75773e-05 DIIS
   @RHF iter  10:  -455.81197939689162   -8.62110e-05   7.65943e-06 DIIS
   @RHF iter  11:  -455.81199056827199   -1.11714e-05   2.91413e-06 DIIS
   @RHF iter  12:  -455.81199222981945   -1.66155e-06   8.76086e-07 DIIS
   @RHF iter  13:  -455.81199240784406   -1.78025e-07   2.44640e-07 DIIS
   @RHF iter  14:  -455.81199242722300   -1.93789e-08   6.05311e-08 DIIS
   @RHF iter  15:  -455.81199242853290   -1.30990e-09   1.64684e-08 DIIS
   @RHF iter  16:  -455.81199242863363   -1.00727e-10   3.69739e-09 DIIS

  ==> Post-Iterations <==

	Orbital Energies (a.u.)
	-----------------------

	Doubly Occupied:                                                      

	   1A    -20.577552     2A    -20.577545     3A    -20.562646  
	   4A    -20.562635     5A    -11.399573     6A    -11.399555  
	   7A    -11.243327     8A    -11.243321     9A     -1.482356  
	  10A     -1.450617    11A     -1.385431    12A     -1.349225  
	  13A     -1.040727    14A     -1.023165    15A     -0.857304  
	  16A     -0.822688    17A     -0.768230    18A     -0.700373  
	  19A     -0.676423    20A     -0.670241    21A     -0.658177  
	  22A     -0.644970    23A     -0.595162    24A     -0.582178  
	  25A     -0.570714    26A     -0.561994    27A     -0.552979  
	  28A     -0.552441    29A     -0.501657    30A     -0.476658  
	  31A     -0.474995    32A     -0.451915  

	Virtual:                                                              

	  33A      0.028859    34A      0.031028    35A      0.043744  
	  36A      0.045563    37A      0.051179    38A      0.052446  
	  39A      0.055220    40A      0.077567    41A      0.087511  
	  42A      0.099992    43A      0.101200    44A      0.116586  
	  45A      0.120775    46A      0.120832    47A      0.130635  
	  48A      0.131019    49A      0.136990    50A      0.142396  
	  51A      0.142626    52A      0.145888    53A      0.149107  
	  54A      0.158542    55A      0.167843    56A      0.178205  
	  57A      0.184974    58A      0.193208    59A      0.195424  
	  60A      0.199779    61A      0.211121    62A      0.211299  
	  63A      0.236713    64A      0.236973    65A      0.238145  
	  66A      0.239511    67A      0.255051    68A      0.258066  
	  69A      0.266310    70A      0.282260    71A      0.284366  
	  72A      0.288008    73A      0.295664    74A      0.316971  
	  75A      0.320795    76A      0.326919    77A      0.328005  
	  78A      0.330702    79A      0.333719    80A      0.334510  
	  81A      0.346361    82A      0.352813    83A      0.354497  
	  84A      0.365768    85A      0.366498    86A      0.370710  
	  87A      0.380932    88A      0.382051    89A      0.390488  
	  90A      0.394715    91A      0.405426    92A      0.408530  
	  93A      0.423453    94A      0.429327    95A      0.431092  
	  96A      0.433232    97A      0.436623    98A      0.448122  
	  99A      0.452375   100A      0.459532   101A      0.468365  
	 102A      0.475089   103A      0.480700   104A      0.481173  
	 105A      0.484571   106A      0.492931   107A      0.499478  
	 108A      0.503406   109A      0.509399   110A      0.514765  
	 111A      0.520129   112A      0.520598   113A      0.536578  
	 114A      0.548366   115A      0.549942   116A      0.551728  
	 117A      0.557346   118A      0.568518   119A      0.577468  
	 120A      0.579593   121A      0.588216   122A      0.589198  
	 123A      0.592511   124A      0.616520   125A      0.630080  
	 126A      0.634075   127A      0.640902   128A      0.659118  
	 129A      0.679610   130A      0.687348   131A      0.702854  
	 132A      0.706984   133A      0.744999   134A      0.747722  
	 135A      0.769310   136A      0.773558   137A      0.774490  
	 138A      0.786965   139A      0.787946   140A      0.788005  
	 141A      0.801218   142A      0.804191   143A      0.809703  
	 144A      0.815364   145A      0.819871   146A      0.828725  
	 147A      0.829620   148A      0.833055   149A      0.834758  
	 150A      0.862180   151A      0.866244   152A      0.873782  
	 153A      0.875703   154A      0.893492   155A      0.905221  
	 156A      0.908239   157A      0.913164   158A      0.916655  
	 159A      0.921603   160A      0.921935   161A      0.928141  
	 162A      0.934949   163A      0.946083   164A      0.960687  
	 165A      0.974176   166A      0.983023   167A      0.983392  
	 168A      0.990787   169A      0.995119   170A      1.001523  
	 171A      1.009082   172A      1.020766   173A      1.023622  
	 174A      1.025116   175A      1.040755   176A      1.046594  
	 177A      1.046640   178A      1.051730   179A      1.058356  
	 180A      1.080592   181A      1.082099   182A      1.084977  
	 183A      1.103366   184A      1.110870   185A      1.120261  
	 186A      1.121583   187A      1.129796   188A      1.130807  
	 189A      1.150005   190A      1.150497   191A      1.156582  
	 192A      1.172598   193A      1.186514   194A      1.199442  
	 195A      1.209696   196A      1.212144   197A      1.218060  
	 198A      1.226087   199A      1.236191   200A      1.240850  
	 201A      1.252742   202A      1.257993   203A      1.266778  
	 204A      1.294672   205A      1.302443   206A      1.307183  
	 207A      1.312038   208A      1.313158   209A      1.329773  
	 210A      1.342363   211A      1.353330   212A      1.360635  
	 213A      1.368109   214A      1.368831   215A      1.396276  
	 216A      1.417215   217A      1.423904   218A      1.429362  
	 219A      1.459775   220A      1.466783   221A      1.483868  
	 222A      1.494781   223A      1.500361   224A      1.502016  
	 225A      1.522995   226A      1.538214   227A      1.544919  
	 228A      1.560223   229A      1.567180   230A      1.568436  
	 231A      1.581415   232A      1.586006   233A      1.604182  
	 234A      1.619159   235A      1.619380   236A      1.620364  
	 237A      1.638854   238A      1.650918   239A      1.660014  
	 240A      1.660639   241A      1.664165   242A      1.675463  
	 243A      1.676623   244A      1.698213   245A      1.714424  
	 246A      1.721337   247A      1.734715   248A      1.740633  
	 249A      1.758911   250A      1.763051   251A      1.764705  
	 252A      1.775840   253A      1.781737   254A      1.784123  
	 255A      1.796571   256A      1.798293   257A      1.825423  
	 258A      1.840308   259A      1.870155   260A      1.873696  
	 261A      1.878002   262A      1.889218   263A      1.890315  
	 264A      1.912932   265A      1.934623   266A      1.936709  
	 267A      1.968439   268A      1.973392   269A      1.979090  
	 270A      1.987098   271A      1.988683   272A      1.991626  
	 273A      2.026484   274A      2.073314   275A      2.088376  
	 276A      2.102337   277A      2.119171   278A      2.129167  
[...]
      68A      0.336920    69A      0.342284    70A      0.350475  
      71A      0.354386    72A      0.354880    73A      0.363233  
      74A      0.380224    75A      0.383611    76A      0.388980  
      77A      0.392066    78A      0.400936    79A      0.403473  
      80A      0.407127    81A      0.416239    82A      0.423128  
      83A      0.426629    84A      0.433835    85A      0.434535  
      86A      0.444581    87A      0.446297    88A      0.451962  
      89A      0.457569    90A      0.460937    91A      0.470141  
      92A      0.474449    93A      0.479715    94A      0.487049  
      95A      0.492537    96A      0.499627    97A      0.510174  
      98A      0.514041    99A      0.521466   100A      0.530065  
     101A      0.531915   102A      0.543849   103A      0.551735  
     104A      0.556001   105A      0.565094   106A      0.574257  
     107A      0.593114   108A      0.601407   109A      0.604228  
     110A      0.612956   111A      0.615832   112A      0.625512  
     113A      0.652550   114A      0.655297   115A      0.673437  
     116A      0.673644   117A      0.685186   118A      0.691055  
     119A      0.706427   120A      0.715249   121A      0.727597  
     122A      0.752423   123A      0.756289   124A      0.772190  
     125A      0.780021   126A      0.786333   127A      0.791731  
     128A      0.792222   129A      0.807321   130A      0.809008  
     131A      0.828197   132A      0.834346   133A      0.836602  
     134A      0.848013   135A      0.857663   136A      0.869979  
     137A      0.873120   138A      0.877256   139A      0.881647  
     140A      0.883043   141A      0.895789   142A      0.897542  
     143A      0.902665   144A      0.903992   145A      0.915722  
     146A      0.917573   147A      0.928837   148A      0.929599  
     149A      0.933324   150A      0.952299   151A      0.956796  
     152A      0.970948   153A      0.973707   154A      0.979286  
     155A      0.989619   156A      0.993571   157A      0.997648  
     158A      0.999392   159A      1.017212   160A      1.028260  
     161A      1.031676   162A      1.032174   163A      1.033240  
     164A      1.047209   165A      1.054033   166A      1.055336  
     167A      1.066136   168A      1.087931   169A      1.088641  
     170A      1.099804   171A      1.101947   172A      1.108186  
     173A      1.116351   174A      1.121450   175A      1.124029  
     176A      1.131982   177A      1.140089   178A      1.146492  
     179A      1.147533   180A      1.158325   181A      1.164368  
     182A      1.185776   183A      1.190368   184A      1.191454  
     185A      1.197146   186A      1.199082   187A      1.206929  
     188A      1.220995   189A      1.222157   190A      1.228506  
     191A      1.247989   192A      1.253814   193A      1.255363  
     194A      1.262599   195A      1.264743   196A      1.277765  
     197A      1.285119   198A      1.289114   199A      1.313700  
     200A      1.315140   201A      1.317319   202A      1.341168  
     203A      1.349925   204A      1.357644   205A      1.367502  
     206A      1.388690   207A      1.400969   208A      1.415259  
     209A      1.421017   210A      1.425657   211A      1.444138  
     212A      1.459752   213A      1.465722   214A      1.471108  
     215A      1.473305   216A      1.488754   217A      1.498556  
     218A      1.520314   219A      1.533155   220A      1.540422  
     221A      1.582923   222A      1.584945   223A      1.590694  
     224A      1.602365   225A      1.603103   226A      1.645353  
     227A      1.652226   228A      1.659245   229A      1.660797  
     230A      1.673764   231A      1.685733   232A      1.706723  
     233A      1.711654   234A      1.715767   235A      1.717447  
     236A      1.736257   237A      1.745560   238A      1.758061  
     239A      1.778962   240A      1.789431   241A      1.797089  
     242A      1.813186   243A      1.815186   244A      1.831078  
     245A      1.847036   246A      1.861277   247A      1.870736  
     248A      1.874625   249A      1.898536   250A      1.911237  
     251A      1.914291   252A      1.921232   253A      1.954438  
     254A      1.962028   255A      1.978044   256A      1.982500  
     257A      1.987643   258A      2.018073   259A      2.038103  
     260A      2.048506   261A      2.051059   262A      2.066808  
     263A      2.084485   264A      2.098059   265A      2.115191  
     266A      2.131700   267A      2.148254   268A      2.154727  
     269A      2.162296   270A      2.176781   271A      2.185097  
     272A      2.194908   273A      2.208280   274A      2.211209  
     275A      2.225491   276A      2.256191   277A      2.280114  
     278A      2.310129   279A      2.338663   280A      2.340557  
     281A      2.368244   282A      2.369401   283A      2.413572  
     284A      2.428645   285A      2.443384   286A      2.454400  
     287A      2.461766   288A      2.473433   289A      2.497525  
     290A      2.524645   291A      2.554060   292A      2.559394  
     293A      2.560706   294A      2.598479   295A      2.611480  
     296A      2.612462   297A      2.617941   298A      2.628852  
     299A      2.655276   300A      2.662717   301A      2.679269  
     302A      2.687001   303A      2.695605   304A      2.702425  
     305A      2.718193   306A      2.737683   307A      2.755678  
     308A      2.757575   309A      2.776570   310A      2.776978  
     311A      2.786924   312A      2.822873   313A      2.824148  
     314A      2.836708   315A      2.842351   316A      2.857746  
     317A      2.876334   318A      2.916465   319A      2.932615  
     320A      2.938235   321A      2.957300   322A      2.972518  
     323A      2.980110   324A      2.991747   325A      3.000738  
     326A      3.009889   327A      3.070893   328A      3.109674  
     329A      3.119862   330A      3.167972   331A      3.225989  
     332A      3.244010   333A      3.257104   334A      3.269182  
     335A      3.286652   336A      3.315206   337A      3.348159  
     338A      3.369198   339A      3.371723   340A      3.412857  
     341A      3.421645   342A      3.468041   343A      3.471868  
     344A      3.482288   345A      3.556922   346A      3.560393  
     347A      3.588181   348A      3.599347   349A      3.604922  
     350A      3.652442   351A      3.664066   352A      3.677824  
     353A      3.700008   354A      3.712009   355A      3.744029  
     356A      3.802368   357A      3.835301   358A      3.845796  
     359A      3.850256   360A      3.884896   361A      3.910307  
     362A      3.933402   363A      3.934528   364A      3.942828  
     365A      3.972035   366A      3.978037   367A      3.985843  
     368A      4.014794   369A      4.046232   370A      4.063237  
     371A      4.083573   372A      4.093109   373A      4.095592  
     374A      4.110282   375A      4.126294   376A      4.133034  
     377A      4.143338   378A      4.157345   379A      4.165058  
     380A      4.235501   381A      4.283044   382A      4.292547  
     383A      4.303777   384A      4.314452   385A      4.322933  
     386A      4.344821   387A      4.393257   388A      4.415665  
     389A      4.425539   390A      4.437686   391A      4.441965  
     392A      4.480438   393A      4.497117   394A      4.505261  
     395A      4.505705   396A      4.536751   397A      4.544782  
     398A      4.563198   399A      4.575970   400A      4.601126  
     401A      4.642444   402A      4.651396   403A      4.655039  
     404A      4.676473   405A      4.680393   406A      4.710617  
     407A      4.729528   408A      4.741733   409A      4.776880  
     410A      4.798787   411A      4.809481   412A      4.809863  
     413A      4.835354   414A      4.879393   415A      4.893430  
     416A      4.926969   417A      4.941826   418A      4.979877  
     419A      4.988773   420A      5.008841   421A      5.027785  
     422A      5.040932   423A      5.058384   424A      5.060692  
     425A      5.061565   426A      5.101280   427A      5.116471  
     428A      5.127062   429A      5.149457   430A      5.172522  
     431A      5.252691   432A      5.263368   433A      5.296869  
     434A      5.317514   435A      5.341167   436A      5.344633  
     437A      5.356550   438A      5.380614   439A      5.380698  
     440A      5.392182   441A      5.437315   442A      5.493941  
     443A      5.496796   444A      5.508519   445A      5.519641  
     446A      5.535672   447A      5.546110   448A      5.617068  
     449A      5.634506   450A      5.667647   451A      5.675987  
     452A      5.687014   453A      5.688283   454A      5.789154  
     455A      5.812414   456A      5.910032   457A      5.921099  
     458A      5.943798   459A      5.969727   460A      6.052919  
     461A      6.095402   462A      6.119970   463A      6.174018  
     464A      6.217688   465A      6.223327   466A      6.242314  
     467A      6.247745   468A      6.358310   469A      6.430568  
     470A      6.520352   471A      6.595552   472A      6.650231  
     473A      6.678438   474A      6.696413   475A      6.705772  
     476A      6.712435   477A      6.759033   478A      6.827580  
     479A      6.855251   480A      6.869399   481A      6.885053  
     482A      7.014082   483A      7.046091   484A      7.053833  
     485A      7.168629   486A      7.203594   487A      7.207608  
     488A      7.243401   489A      7.257524   490A      7.316422  
     491A      7.354649   492A      7.361629   493A      7.381484  
     494A      7.477518   495A      7.531964   496A      7.539329  
     497A      7.564223   498A      7.609351   499A      7.618497  
     500A      7.667957   501A      7.732600   502A      7.750331  
     503A      7.823520   504A      7.829191   505A      7.830557  
     506A      7.843111   507A      7.856409   508A      7.868014  
     509A      7.932658   510A      7.951899   511A      8.031545  
     512A      8.055237   513A      8.149797   514A      8.151690  
     515A      8.227088   516A      8.239816   517A      8.288919  
     518A      8.297408   519A      8.303470   520A      8.510751  
     521A      8.569897   522A      8.858712   523A      8.970010  
     524A      9.043376   525A      9.619770   526A      9.814733  
     527A      9.919606   528A      9.972373   529A     10.008104  
     530A     10.112994   531A     10.226153   532A     10.245248  
     533A     10.292597   534A     10.583439   535A     10.906780  
     536A     11.025315   537A     11.794525   538A     11.948567  
     539A     11.962354   540A     12.580852   541A     12.983700  
     542A     13.413815   543A     13.967641   544A     14.245585  
     545A     15.133982   546A     15.655177   547A     17.321286  
     548A     19.097140   549A     50.264695   550A     53.656478  
     551A     64.284142   552A     68.098356  

    Final Occupation by Irrep:
              A 
    DOCC [    16 ]

  @DF-RHF Final Energy:  -227.90264972472409

   => Energetics <=

    Nuclear Repulsion Energy =            121.3504364814108385
    One-Electron Energy =                -552.1368191514643513
    Two-Electron Energy =                 202.8837329453294274
    Total Energy =                       -227.9026497247240854

Computation Completed


Properties will be evaluated at   0.000000,   0.000000,   0.000000 [a0]

Properties computed using the SCF density matrix

  Nuclear Dipole Moment: [e a0]
     X:   169.7478      Y:    -0.5818      Z:     0.9311

  Electronic Dipole Moment: [e a0]
     X:  -169.3089      Y:     1.3208      Z:    -0.7500

  Dipole Moment: [e a0]
     X:     0.4389      Y:     0.7389      Z:     0.1811     Total:     0.8783

  Dipole Moment: [D]
     X:     1.1156      Y:     1.8782      Z:     0.4604     Total:     2.2325


*** tstop() called on g2-node38.bme.utexas.edu at Thu Apr 23 23:56:19 2020
Module time:
	user time   =     126.79 seconds =       2.11 minutes
	system time =       2.73 seconds =       0.05 minutes
	total time  =         18 seconds =       0.30 minutes
Total time:
	user time   =     592.51 seconds =       9.88 minutes
	system time =      16.25 seconds =       0.27 minutes
	total time  =        112 seconds =       1.87 minutes
  Constructing Basis Sets for SAPT...

   => Loading Basis Set <=

    Name: (AUG-CC-PVTZ AUX)
    Role: RIFIT
    Keyword: DF_BASIS_SAPT
    atoms 1, 5, 9, 13       entry C          line   148 file /home/liuchw/anaconda3/envs/psi4env/share/psi4/basis/aug-cc-pvtz-ri.gbs 
    atoms 2-3, 10-11        entry O          line   264 file /home/liuchw/anaconda3/envs/psi4env/share/psi4/basis/aug-cc-pvtz-ri.gbs 
    atoms 4, 6-8, 12, 14-16 entry H          line    30 file /home/liuchw/anaconda3/envs/psi4env/share/psi4/basis/aug-cc-pvtz-ri.gbs 


  //>>>>>>>>>>>>>>>>>>>>>>>>>>>>>>>>>>>//
  //               SAPT2+              //
  //<<<<<<<<<<<<<<<<<<<<<<<<<<<<<<<<<<<//


*** tstart() called on g2-node38.bme.utexas.edu
*** at Thu Apr 23 23:56:19 2020

        SAPT2+  
    Ed Hohenstein
     6 June 2009

      Orbital Information
  --------------------------
    NSO        =       552
    NMO        =       552
    NRI        =      1216
    NOCC A     =        16
    NOCC B     =        16
    FOCC A     =         4
    FOCC B     =         4
    NVIR A     =       536
    NVIR B     =       536

    Estimated memory usage: 4560.0 MB

    Natural Orbital Cutoff:   1.000E-06
    Disp(T3) Truncation:            Yes
    CCD (vv|vv) Truncation:         Yes
    MBPT T2 Truncation:             Yes

    Monomer A: 303 virtual orbitals dropped
    Monomer B: 303 virtual orbitals dropped

    Elst10,r            =    -0.006474558105 [Eh]
    Exch10 (S^2)        =     0.000260896537 [Eh]
    Exch10              =     0.000260957410 [Eh]
    Ind20,r (A<-B)      =    -0.000252435977 [Eh]
    Ind20,r (B<-A)      =    -0.000252468651 [Eh]
    Ind20,r             =    -0.000504904628 [Eh]
    Exch-Ind20,r (A<-B) =     0.000028196592 [Eh]
    Exch-Ind20,r (B<-A) =     0.000028197553 [Eh]
    Exch-Ind20,r        =     0.000056394144 [Eh]
    Disp20              =    -0.000987161353 [Eh]
    Disp20 (NO)         =    -0.000920284834 [Eh]
    Exch-Disp20         =     0.000029842644 [Eh]
    Elst12,r            =     0.000934445535 [Eh]
    Exch11              =    -0.000002373176 [Eh]
    Exch12              =     0.000127291079 [Eh]
    Ind22               =    -0.000042882727 [Eh]
    Disp21              =     0.000071391575 [Eh]
    Disp22 (SDQ)        =    -0.000044126430 [Eh]

    (i =   1 of  12)         76 seconds
    (i =   2 of  12)        151 seconds
    (i =   3 of  12)        237 seconds
    (i =   4 of  12)        353 seconds
    (i =   5 of  12)        445 seconds
    (i =   6 of  12)        562 seconds
    (i =   7 of  12)        664 seconds
    (i =   8 of  12)        755 seconds
    (i =   9 of  12)        843 seconds
    (i =  10 of  12)        932 seconds
    (i =  11 of  12)       1025 seconds
    (i =  12 of  12)       1120 seconds

    Disp220 (T)         =    -0.000108874753 [Eh]

    (i =   1 of  12)         85 seconds
    (i =   2 of  12)        176 seconds
    (i =   3 of  12)        267 seconds
    (i =   4 of  12)        360 seconds
    (i =   5 of  12)        454 seconds
    (i =   6 of  12)        565 seconds
    (i =   7 of  12)        669 seconds
    (i =   8 of  12)        764 seconds
    (i =   9 of  12)        866 seconds
    (i =  10 of  12)        951 seconds
    (i =  11 of  12)       1029 seconds
    (i =  12 of  12)       1148 seconds

    Disp202 (T)         =    -0.000108877377 [Eh]

    Disp22 (T)          =    -0.000217752130 [Eh]

    Est. Disp220 (T)    =    -0.000116786613 [Eh]
    Est. Disp202 (T)    =    -0.000116789427 [Eh]

    Est. Disp22 (T)     =    -0.000233576040 [Eh]

    SAPT Results 
  --------------------------------------------------------------------------------------------------------
    Electrostatics                 -5.54011257 [mEh]      -3.47647312 [kcal/mol]     -14.54556355 [kJ/mol]
      Elst10,r                     -6.47455811 [mEh]      -4.06284655 [kcal/mol]     -16.99894996 [kJ/mol]
      Elst12,r                      0.93444553 [mEh]       0.58637343 [kcal/mol]       2.45338641 [kJ/mol]

    Exchange                        0.38587531 [mEh]       0.24214041 [kcal/mol]       1.01311549 [kJ/mol]
      Exch10                        0.26095741 [mEh]       0.16375325 [kcal/mol]       0.68514358 [kJ/mol]
      Exch10(S^2)                   0.26089654 [mEh]       0.16371505 [kcal/mol]       0.68498376 [kJ/mol]
      Exch11(S^2)                  -0.00237318 [mEh]      -0.00148919 [kcal/mol]      -0.00623077 [kJ/mol]
      Exch12(S^2)                   0.12729108 [mEh]       0.07987636 [kcal/mol]       0.33420268 [kJ/mol]

    Induction                      -0.54621611 [mEh]      -0.34275579 [kcal/mol]      -1.43409021 [kJ/mol]
      Ind20,r                      -0.50490463 [mEh]      -0.31683244 [kcal/mol]      -1.32562692 [kJ/mol]
      Ind22                        -0.04288273 [mEh]      -0.02690932 [kcal/mol]      -0.11258858 [kJ/mol]
      Exch-Ind20,r                  0.05639414 [mEh]       0.03538786 [kcal/mol]       0.14806281 [kJ/mol]
      Exch-Ind22                    0.00478969 [mEh]       0.00300557 [kcal/mol]       0.01257532 [kJ/mol]
      delta HF,r (2)               -0.05961259 [mEh]      -0.03740747 [kcal/mol]      -0.15651283 [kJ/mol]

    Dispersion                     -1.16362960 [mEh]      -0.73018860 [kcal/mol]      -3.05510911 [kJ/mol]
      Disp20                       -0.98716135 [mEh]      -0.61945310 [kcal/mol]      -2.59179178 [kJ/mol]
      Disp21                        0.07139158 [mEh]       0.04479889 [kcal/mol]       0.18743856 [kJ/mol]
      Disp22 (SDQ)                 -0.04412643 [mEh]      -0.02768975 [kcal/mol]      -0.11585393 [kJ/mol]
      Disp22 (T)                   -0.21775213 [mEh]      -0.13664152 [kcal/mol]      -0.57170814 [kJ/mol]
      Est. Disp22 (T)              -0.23357604 [mEh]      -0.14657118 [kcal/mol]      -0.61325381 [kJ/mol]
      Exch-Disp20                   0.02984264 [mEh]       0.01872654 [kcal/mol]       0.07835185 [kJ/mol]

  Total HF                         -6.72172377 [mEh]      -4.21794535 [kcal/mol]     -17.64788332 [kJ/mol]
  Total SAPT0                      -7.67904248 [mEh]      -4.81867190 [kcal/mol]     -20.16132325 [kJ/mol]
  Total SAPT2                      -6.65777208 [mEh]      -4.17781506 [kcal/mol]     -17.47997819 [kJ/mol]
  Total SAPT2+                     -6.86408298 [mEh]      -4.30727710 [kcal/mol]     -18.02164737 [kJ/mol]

  Special recipe for scaled SAPT0 (see Manual):
    Electrostatics sSAPT0          -6.47455811 [mEh]      -4.06284655 [kcal/mol]     -16.99894996 [kJ/mol]
    Exchange sSAPT0                 0.26095741 [mEh]       0.16375325 [kcal/mol]       0.68514358 [kJ/mol]
    Induction sSAPT0               -0.50808359 [mEh]      -0.31882727 [kcal/mol]      -1.33397328 [kJ/mol]
    Dispersion sSAPT0              -0.95729782 [mEh]      -0.60071345 [kcal/mol]      -2.51338507 [kJ/mol]
  Total sSAPT0                     -7.67898210 [mEh]      -4.81863402 [kcal/mol]     -20.16116473 [kJ/mol]
  --------------------------------------------------------------------------------------------------------

*** tstop() called on g2-node38.bme.utexas.edu at Fri Apr 24 00:48:59 2020
Module time:
	user time   =   21940.73 seconds =     365.68 minutes
	system time =     506.78 seconds =       8.45 minutes
	total time  =       3160 seconds =      52.67 minutes
Total time:
	user time   =   22534.41 seconds =     375.57 minutes
	system time =     523.09 seconds =       8.72 minutes
	total time  =       3272 seconds =      54.53 minutes

    Psi4 stopped on: Friday, 24 April 2020 12:48AM
    Psi4 wall time for execution: 0:54:31.99

*** Psi4 exiting successfully. Buy a developer a beer!
