    -----------------------------------------------------------------------
          PSI4: An Open-Source Ab Initio Electronic Structure Package
                              PSI 4.0.0-beta4 Driver

    J. M. Turney, A. C. Simmonett, R. M. Parrish, E. G. Hohenstein,
    F. A. Evangelista, J. T. Fermann, B. J. Mintz, L. A. Burns, J. J. Wilke,
    M. L. Abrams, N. J. Russ, M. L. Leininger, C. L. Janssen, E. T. Seidl,
    W. D. Allen, H. F. Schaefer, R. A. King, E. F. Valeev, C. D. Sherrill,
    and T. D. Crawford, WIREs Comput. Mol. Sci., (2011) (doi: 10.1002/wcms.93)

                         Additional Contributions by
    A. E. DePrince, M. Saitow, U. Bozkaya, A. Yu. Sokolov
    -----------------------------------------------------------------------

    Process ID:  20173
    PSI4DATADIR: /home/xzhu216/psi4/psi4-install/share/psi

    Using LocalCommunicator (Number of processes = 1)

    Memory level set to 256.000 MB

  ==> Input File <==

--------------------------------------------------------------------------
#psi4
#
memory 7 gb

molecule AcNH2_AcNH2 {
0 1
    C    -1.309749745     1.180176173    -0.025170341
    O    -0.725300438     2.155147669     0.452713346
    N    -0.665621156     0.095054696    -0.491994491
    H     0.354582662     0.051448166    -0.459309217
    H    -1.183627037    -0.673599692    -0.870756096
    C    -2.816719340     1.155998649    -0.110605975
    H    -3.220628949     1.262541455     0.893082386
    H    -3.209427538     0.248634016    -0.561900090
    H    -3.143158132     2.016595633    -0.688893115
--
0 1
    C     2.422911496     1.056439264     0.112281492
    O     1.838489733     0.082418828    -0.367449474
    N     1.778823932     2.141182487     0.580128046
    H     0.758718564     2.185620271     0.545826729
    H     2.296847998     2.909143687     0.960248696
    C     3.929910678     1.080723644     0.197506577
    H     4.321781742     1.980373160     0.664690587
    H     4.333466872     0.993178607    -0.808273732
    H     4.257689440     0.210148740     0.759686915
units angstrom
no_reorient  #important for SAPT in psi4, default
symmetry c1  #important for SAPT in psi4, default
}

set {
basis aug-cc-pVTZ
scf_type DF
freeze_core True
}
energy('sapt2+')
--------------------------------------------------------------------------

  Memory set to   7.000 GiB by Python script.

  //>>>>>>>>>>>>>>>>>>>>>>>>>>>>>>>>>>>//
  //              Dimer HF             //
  //<<<<<<<<<<<<<<<<<<<<<<<<<<<<<<<<<<<//


  No DF_BASIS_SCF auxiliary basis selected, defaulting to aug-cc-pvtz-jkfit


*** tstart() called on node136.bme.utexas.edu
*** at Fri Feb 14 13:21:40 2014


         ---------------------------------------------------------
                                   SCF
            by Justin Turney, Rob Parrish, and Andy Simmonett
                              RHF Reference
                        4 Threads,   7000 MiB Core
         ---------------------------------------------------------

  ==> Geometry <==

    Molecular point group: c1
    Full point group: C1

    Geometry (in Angstrom), charge = 0, multiplicity = 1:

       Center              X                  Y                   Z       
    ------------   -----------------  -----------------  -----------------
           C         -1.866345952970     0.061765024533    -0.068565690418
           O         -1.281896645970     1.036736520533     0.409317996582
           N         -1.222217363970    -1.023356452467    -0.535389840418
           H         -0.202013545970    -1.066962982467    -0.502704566418
           H         -1.740223244970    -1.792010840467    -0.914151445418
           C         -3.373315547970     0.037587500533    -0.154001324418
           H         -3.777225156970     0.144130306533     0.849687036582
           H         -3.766023745970    -0.869777132467    -0.605295439418
           H         -3.699754339970     0.898184484533    -0.732288464418
           C          1.866315288030    -0.061971884467     0.068886142582
           O          1.281893525030    -1.035992320467    -0.410844823418
           N          1.222227724030     1.022771338533     0.536732696582
           H          0.202122356030     1.067209122533     0.502431379582
           H          1.740251790030     1.790732538533     0.916853346582
           C          3.373314470030    -0.037687504467     0.154111227582
           H          3.765185534030     0.861962011533     0.621295237582
           H          3.776870664030    -0.125232541467    -0.851669081418
           H          3.701093232030    -0.908262408467     0.716291565582

  Running in c1 symmetry.

  Nuclear repulsion =  386.302976540652310

  Charge       = 0
  Multiplicity = 1
  Electrons    = 64
  Nalpha       = 32
  Nbeta        = 32

  ==> Algorithm <==

  SCF Algorithm Type is DF.
  DIIS enabled.
  MOM disabled.
  Fractional occupation disabled.
  Guess Type is CORE.
  Energy threshold   = 1.00e-08
  Density threshold  = 1.00e-08
  Integral threshold = 0.00e+00

  ==> Primary Basis <==

  Basis Set: AUG-CC-PVTZ
    Number of shells: 202
    Number of basis function: 598
    Number of Cartesian functions: 690
    Spherical Harmonics?: true
    Max angular momentum: 3

  ==> Pre-Iterations <==

   -------------------------------------------------------
    Irrep   Nso     Nmo     Nalpha   Nbeta   Ndocc  Nsocc
   -------------------------------------------------------
     A        598     598       0       0       0       0
   -------------------------------------------------------
    Total     598     598      32      32      32       0
   -------------------------------------------------------

 OEINTS: Wrapper to libmints.
   by Justin Turney

   Calculation information:
      Number of atoms:                  18
      Number of AO shells:             202
      Number of SO shells:             202
      Number of primitives:            350
      Number of atomic orbitals:       690
      Number of basis functions:       598

      Number of irreps:                  1
      Number of functions per irrep: [ 598 ]

      Overlap, kinetic, potential, dipole, and quadrupole integrals
        stored in file 35.

  ==> Integral Setup <==

  ==> DFJK: Density-Fitted J/K Matrices <==

    J tasked:                  Yes
    K tasked:                  Yes
    wK tasked:                  No
    OpenMP threads:              4
    Integrals threads:           4
    Memory (MB):              5006
    Algorithm:                Core
    Integral Cache:           SAVE
    Schwarz Cutoff:          0E+00
    Fitting Condition:       1E-12

   => Auxiliary Basis Set <=

  Basis Set: aug-cc-pvtz-jkfit
    Number of shells: 380
    Number of basis function: 1292
    Number of Cartesian functions: 1598
    Spherical Harmonics?: true
    Max angular momentum: 4

  Minimum eigenvalue in the overlap matrix is 4.9848369255E-06.
  Using Symmetric Orthogonalization.
  SCF Guess: Core (One-Electron) Hamiltonian.

  Guess energy:  -346.82858525217131

  ==> Iterations <==

                        Total Energy        Delta E     RMS |[F,P]|

   @RHF iter   1:  -297.63522958619336   -2.97635e+02   2.99818e-02 
   @RHF iter   2:  -244.13679861706879    5.34984e+01   1.81520e-02 DIIS
   @RHF iter   3:  -348.68691154583001   -1.04550e+02   1.43202e-02 DIIS
   @RHF iter   4:  -409.28945495616898   -6.06025e+01   6.12363e-03 DIIS
   @RHF iter   5:  -415.59751934644777   -6.30806e+00   1.72417e-03 DIIS
   @RHF iter   6:  -416.03494735450550   -4.37428e-01   6.79944e-04 DIIS
   @RHF iter   7:  -416.10734204347301   -7.23947e-02   2.59816e-04 DIIS
   @RHF iter   8:  -416.12404886366215   -1.67068e-02   5.39110e-05 DIIS
   @RHF iter   9:  -416.12460729653804   -5.58433e-04   2.84771e-05 DIIS
   @RHF iter  10:  -416.12476234600780   -1.55049e-04   9.04701e-06 DIIS
   @RHF iter  11:  -416.12479552956046   -3.31836e-05   2.19948e-06 DIIS
   @RHF iter  12:  -416.12479863852928   -3.10897e-06   8.49888e-07 DIIS
   @RHF iter  13:  -416.12479905000959   -4.11480e-07   3.44494e-07 DIIS
   @RHF iter  14:  -416.12479910828409   -5.82745e-08   9.88113e-08 DIIS
   @RHF iter  15:  -416.12479911400754   -5.72345e-09   2.70415e-08 DIIS
   @RHF iter  16:  -416.12479911442068   -4.13138e-10   6.54387e-09 DIIS

  ==> Post-Iterations <==

	Orbital Energies (a.u.)
	-----------------------

	Doubly Occupied:                                                      

	   1A    -20.516002     2A    -20.515971     3A    -15.551836  
	   4A    -15.551832     5A    -11.351644     6A    -11.351631  
	   7A    -11.232219     8A    -11.232210     9A     -1.389216  
	  10A     -1.378066    11A     -1.206449    12A     -1.190116  
	  13A     -1.007341    14A     -0.995571    15A     -0.811787  
	  16A     -0.775165    17A     -0.744476    18A     -0.727149  
	  19A     -0.670198    20A     -0.633820    21A     -0.615637  
	  22A     -0.610252    23A     -0.593688    24A     -0.574773  
	  25A     -0.559717    26A     -0.545573    27A     -0.527657  
	  28A     -0.516445    29A     -0.443516    30A     -0.414293  
	  31A     -0.408811    32A     -0.393499  

	Virtual:                                                              

	  33A      0.028701    34A      0.029851    35A      0.041121  
	  36A      0.047071    37A      0.048735    38A      0.051789  
	  39A      0.053602    40A      0.066103    41A      0.079915  
	  42A      0.081082    43A      0.105272    44A      0.105732  
	  45A      0.107966    46A      0.117533    47A      0.118058  
	  48A      0.120763    49A      0.128487    50A      0.137159  
	  51A      0.144233    52A      0.144684    53A      0.145479  
	  54A      0.156437    55A      0.157628    56A      0.161540  
	  57A      0.166092    58A      0.173668    59A      0.184667  
	  60A      0.184963    61A      0.191301    62A      0.191422  
	  63A      0.192832    64A      0.197411    65A      0.233962  
	  66A      0.235643    67A      0.237270    68A      0.238526  
	  69A      0.242805    70A      0.247949    71A      0.269501  
	  72A      0.274309    73A      0.280916    74A      0.286180  
	  75A      0.288541    76A      0.292201    77A      0.298879  
	  78A      0.312621    79A      0.320335    80A      0.325098  
	  81A      0.326895    82A      0.331117    83A      0.336346  
	  84A      0.340408    85A      0.344904    86A      0.349501  
	  87A      0.356084    88A      0.357761    89A      0.365588  
	  90A      0.371740    91A      0.374641    92A      0.376355  
	  93A      0.384406    94A      0.385129    95A      0.388420  
	  96A      0.394584    97A      0.407821    98A      0.411260  
	  99A      0.418567   100A      0.421700   101A      0.424447  
	 102A      0.428423   103A      0.429097   104A      0.438547  
	 105A      0.439401   106A      0.446814   107A      0.458481  
	 108A      0.459021   109A      0.461892   110A      0.469087  
	 111A      0.485924   112A      0.487835   113A      0.502174  
	 114A      0.507511   115A      0.509839   116A      0.515511  
	 117A      0.516148   118A      0.521222   119A      0.522328  
	 120A      0.535855   121A      0.539363   122A      0.545370  
	 123A      0.549577   124A      0.551584   125A      0.559928  
	 126A      0.562578   127A      0.566639   128A      0.567672  
	 129A      0.581416   130A      0.598084   131A      0.599663  
	 132A      0.618809   133A      0.622821   134A      0.626314  
	 135A      0.629567   136A      0.650810   137A      0.652026  
	 138A      0.659830   139A      0.661776   140A      0.665191  
	 141A      0.679916   142A      0.690225   143A      0.701022  
	 144A      0.703727   145A      0.719179   146A      0.738916  
	 147A      0.740849   148A      0.776054   149A      0.778716  
	 150A      0.790595   151A      0.791135   152A      0.798878  
	 153A      0.811686   154A      0.819019   155A      0.822987  
	 156A      0.826331   157A      0.830377   158A      0.832578  
	 159A      0.837803   160A      0.843446   161A      0.857714  
	 162A      0.859764   163A      0.868016   164A      0.871112  
	 165A      0.884733   166A      0.899239   167A      0.899750  
	 168A      0.907198   169A      0.907420   170A      0.908038  
	 171A      0.908399   172A      0.923091   173A      0.927276  
	 174A      0.932968   175A      0.939783   176A      0.944203  
	 177A      0.950155   178A      0.952680   179A      0.969075  
	 180A      0.975738   181A      0.981566   182A      0.983293  
	 183A      0.993616   184A      1.005933   185A      1.010829  
	 186A      1.021672   187A      1.026918   188A      1.034776  
	 189A      1.038714   190A      1.042226   191A      1.059878  
	 192A      1.064636   193A      1.074926   194A      1.075718  
	 195A      1.084506   196A      1.090113   197A      1.101925  
	 198A      1.106663   199A      1.111135   200A      1.123363  
	 201A      1.135085   202A      1.136039   203A      1.136863  
	 204A      1.142404   205A      1.152404   206A      1.153296  
	 207A      1.154848   208A      1.166549   209A      1.174782  
	 210A      1.191429   211A      1.192036   212A      1.207230  
	 213A      1.211556   214A      1.223186   215A      1.246788  
	 216A      1.249493   217A      1.253169   218A      1.254773  
	 219A      1.255476   220A      1.263205   221A      1.267195  
	 222A      1.272766   223A      1.282852   224A      1.297410  
	 225A      1.301772   226A      1.335229   227A      1.339073  
	 228A      1.345976   229A      1.352300   230A      1.359402  
	 231A      1.368407   232A      1.378512   233A      1.379992  
	 234A      1.381618   235A      1.386672   236A      1.408955  
	 237A      1.423480   238A      1.425563   239A      1.426610  
	 240A      1.436242   241A      1.463717   242A      1.467224  
	 243A      1.470476   244A      1.480692   245A      1.486088  
	 246A      1.504278   247A      1.514882   248A      1.529856  
	 249A      1.530492   250A      1.533174   251A      1.552680  
	 252A      1.561303   253A      1.574529   254A      1.578144  
	 255A      1.578909   256A      1.593652   257A      1.600557  
	 258A      1.602147   259A      1.611316   260A      1.613379  
	 261A      1.620032   262A      1.625263   263A      1.643461  
	 264A      1.653905   265A      1.659646   266A      1.667949  
	 267A      1.674090   268A      1.693092   269A      1.703789  
	 270A      1.708501   271A      1.719313   272A      1.746974  
	 273A      1.749549   274A      1.756222   275A      1.758032  
	 276A      1.766971   277A      1.778859   278A      1.779465  
	 279A      1.781979   280A      1.787040   281A      1.794948  
	 282A      1.824311   283A      1.843667   284A      1.853759  
	 285A      1.863947   286A      1.866587   287A      1.874950  
	 288A      1.911752   289A      1.913775   290A      1.917016  
	 291A      1.921178   292A      1.930100   293A      1.953652  
	 294A      1.975744   295A      1.980156   296A      1.992200  
	 297A      1.995551   298A      2.001035   299A      2.020215  
	 300A      2.020355   301A      2.026246   302A      2.033208  
	 303A      2.050275   304A      2.088084   305A      2.088648  
	 306A      2.110089   307A      2.138298   308A      2.146368  
	 309A      2.152121   310A      2.174056   311A      2.179086  
	 312A      2.193010   313A      2.208538   314A      2.209642  
	 315A      2.223560   316A      2.247912   317A      2.251867  
	 318A      2.265420   319A      2.274863   320A      2.287871  
	 321A      2.303291   322A      2.327236   323A      2.329075  
	 324A      2.332907   325A      2.366680   326A      2.390078  
	 327A      2.402106   328A      2.405669   329A      2.420249  
	 330A      2.437529   331A      2.460566   332A      2.470411  
	 333A      2.490847   334A      2.517154   335A      2.527611  
	 336A      2.549411   337A      2.553194   338A      2.568538  
	 339A      2.582297   340A      2.595240   341A      2.606157  
	 342A      2.643519   343A      2.657890   344A      2.666467  
	 345A      2.682675   346A      2.687608   347A      2.702365  
	 348A      2.721207   349A      2.725226   350A      2.752892  
	 351A      2.767271   352A      2.767405   353A      2.790531  
	 354A      2.799112   355A      2.819689   356A      2.846228  
	 357A      2.858997   358A      2.905441   359A      2.913907  
	 360A      2.920527   361A      2.954264   362A      2.960914  
	 363A      2.968051   364A      2.983197   365A      3.020572  
	 366A      3.037081   367A      3.057724   368A      3.119697  
	 369A      3.128018   370A      3.133169   371A      3.157753  
	 372A      3.182080   373A      3.233466   374A      3.237743  
	 375A      3.240371   376A      3.255020   377A      3.281269  
	 378A      3.298132   379A      3.328809   380A      3.410209  
	 381A      3.411355   382A      3.435764   383A      3.475373  
	 384A      3.492748   385A      3.516141   386A      3.519302  
	 387A      3.526293   388A      3.558927   389A      3.574694  
	 390A      3.594233   391A      3.602450   392A      3.622277  
	 393A      3.628983   394A      3.631760   395A      3.636076  
	 396A      3.655986   397A      3.657503   398A      3.684451  
	 399A      3.699064   400A      3.700643   401A      3.712598  
	 402A      3.736760   403A      3.771918   404A      3.792696  
	 405A      3.819895   406A      3.851491   407A      3.874246  
	 408A      3.877657   409A      3.884422   410A      3.894457  
	 411A      3.913317   412A      3.919251   413A      3.938790  
	 414A      3.952666   415A      3.956717   416A      3.963030  
	 417A      3.972350   418A      4.008188   419A      4.011699  
	 420A      4.038358   421A      4.046004   422A      4.082091  
	 423A      4.091257   424A      4.092187   425A      4.108162  
	 426A      4.112757   427A      4.122708   428A      4.132338  
	 429A      4.142104   430A      4.164724   431A      4.169081  
	 432A      4.210251   433A      4.229206   434A      4.232858  
	 435A      4.247892   436A      4.268684   437A      4.311340  
	 438A      4.317120   439A      4.319309   440A      4.335197  
	 441A      4.348554   442A      4.352931   443A      4.367303  
	 444A      4.380318   445A      4.396413   446A      4.403475  
	 447A      4.404351   448A      4.428254   449A      4.446867  
	 450A      4.456513   451A      4.456888   452A      4.463839  
	 453A      4.512028   454A      4.515635   455A      4.539824  
	 456A      4.547103   457A      4.550816   458A      4.551185  
	 459A      4.581000   460A      4.600341   461A      4.604061  
	 462A      4.614115   463A      4.647335   464A      4.673377  
	 465A      4.698608   466A      4.702625   467A      4.735628  
	 468A      4.738486   469A      4.743419   470A      4.747121  
	 471A      4.790114   472A      4.807539   473A      4.809454  
	 474A      4.857668   475A      4.871727   476A      4.882414  
	 477A      4.919323   478A      4.953405   479A      4.957545  
	 480A      4.962511   481A      4.966453   482A      4.979217  
	 483A      4.995495   484A      5.013156   485A      5.018339  
	 486A      5.019413   487A      5.030281   488A      5.075185  
	 489A      5.095474   490A      5.102332   491A      5.114632  
	 492A      5.125007   493A      5.194060   494A      5.200123  
	 495A      5.200758   496A      5.209757   497A      5.214977  
	 498A      5.288286   499A      5.289368   500A      5.295979  
	 501A      5.306606   502A      5.310411   503A      5.338420  
	 504A      5.357177   505A      5.362839   506A      5.374027  
	 507A      5.412992   508A      5.437190   509A      5.464277  
	 510A      5.484326   511A      5.488876   512A      5.530756  
	 513A      5.531390   514A      5.555856   515A      5.566634  
	 516A      5.580629   517A      5.624864   518A      5.626530  
	 519A      5.631044   520A      5.645947   521A      5.707880  
	 522A      5.725939   523A      5.728388   524A      5.746841  
	 525A      5.774454   526A      5.821434   527A      5.844898  
	 528A      5.856743   529A      5.909983   530A      5.934439  
	 531A      5.965412   532A      6.011869   533A      6.024547  
	 534A      6.028687   535A      6.064663   536A      6.083116  
	 537A      6.139321   538A      6.140168   539A      6.175030  
	 540A      6.179818   541A      6.202904   542A      6.204803  
	 543A      6.206753   544A      6.216524   545A      6.349666  
	 546A      6.355644   547A      6.375831   548A      6.399731  
	 549A      6.443920   550A      6.467517   551A      6.555838  
	 552A      6.580302   553A      6.716266   554A      6.725195  
	 555A      6.755875   556A      6.781415   557A      6.822496  
	 558A      6.859295   559A      6.911640   560A      6.934063  
	 561A      6.937142   562A      6.974455   563A      7.028357  
	 564A      7.080701   565A      7.152414   566A      7.176970  
	 567A      7.180597   568A      7.200875   569A      7.209035  
	 570A      7.236560   571A      7.248267   572A      7.339974  
	 573A      7.468260   574A      7.472649   575A      7.485411  
	 576A      7.532649   577A      7.570168   578A      7.659560  
	 579A      7.753372   580A      7.766598   581A      7.793402  
	 582A      7.806176   583A      7.844137   584A      7.926735  
	 585A      8.026055   586A      8.061102   587A      8.239366  
	 588A      8.299018   589A      8.816829   590A      8.883121  
	 591A     15.890306   592A     16.139881   593A     17.777488  
	 594A     17.955271   595A     19.051777   596A     19.164883  
	 597A     20.314323   598A     20.668235  

	Final Occupation by Irrep:
	          A 
	DOCC [    32 ]

  Energy converged.

  @RHF Final Energy:  -416.12479911442068

   => Energetics <=

    Nuclear Repulsion Energy =            386.3029765406523097
    One-Electron Energy =               -1334.7824288841800353
    Two-Electron Energy =                 532.3546532291095446
    DFT Exchange-Correlation Energy =       0.0000000000000000
    Empirical Dispersion Energy =           0.0000000000000000
    Total Energy =                       -416.1247991144182379



Properties will be evaluated at   0.000000,   0.000000,   0.000000 Bohr
  ==> Properties <==


Properties computed using the SCF density density matrix
  Nuclear Dipole Moment: (a.u.)
     X:     0.0003      Y:    -0.0000      Z:     0.0004

  Electronic Dipole Moment: (a.u.)
     X:     0.0000      Y:    -0.0005      Z:     0.0004

  Dipole Moment: (a.u.)
     X:     0.0003      Y:    -0.0006      Z:     0.0008     Total:     0.0010

  Dipole Moment: (Debye)
     X:     0.0007      Y:    -0.0014      Z:     0.0021     Total:     0.0026


  Saving occupied orbitals to File 180.

  Saving SAPT 2-DIMER file.

*** tstop() called on node136.bme.utexas.edu at Fri Feb 14 13:25:05 2014
Module time:
	user time   =     753.42 seconds =      12.56 minutes
	system time =       7.85 seconds =       0.13 minutes
	total time  =        205 seconds =       3.42 minutes
Total time:
	user time   =     753.42 seconds =      12.56 minutes
	system time =       7.85 seconds =       0.13 minutes
	total time  =        205 seconds =       3.42 minutes

  //>>>>>>>>>>>>>>>>>>>>>>>>>>>>>>>>>>>//
  //            Monomer A HF           //
  //<<<<<<<<<<<<<<<<<<<<<<<<<<<<<<<<<<<//


  No DF_BASIS_SCF auxiliary basis selected, defaulting to aug-cc-pvtz-jkfit


*** tstart() called on node136.bme.utexas.edu
*** at Fri Feb 14 13:25:05 2014


         ---------------------------------------------------------
                                   SCF
            by Justin Turney, Rob Parrish, and Andy Simmonett
                              RHF Reference
                        4 Threads,   7000 MiB Core
         ---------------------------------------------------------

  ==> Geometry <==

    Molecular point group: c1
    Full point group: C1

    Geometry (in Angstrom), charge = 0, multiplicity = 1:

       Center              X                  Y                   Z       
    ------------   -----------------  -----------------  -----------------
           C         -1.866345952970     0.061765024533    -0.068565690418
           O         -1.281896645970     1.036736520533     0.409317996582
           N         -1.222217363970    -1.023356452467    -0.535389840418
           H         -0.202013545970    -1.066962982467    -0.502704566418
           H         -1.740223244970    -1.792010840467    -0.914151445418
           C         -3.373315547970     0.037587500533    -0.154001324418
           H         -3.777225156970     0.144130306533     0.849687036582
           H         -3.766023745970    -0.869777132467    -0.605295439418
           H         -3.699754339970     0.898184484533    -0.732288464418
           C(Gh)      1.866315288030    -0.061971884467     0.068886142582
           O(Gh)      1.281893525030    -1.035992320467    -0.410844823418
           N(Gh)      1.222227724030     1.022771338533     0.536732696582
           H(Gh)      0.202122356030     1.067209122533     0.502431379582
           H(Gh)      1.740251790030     1.790732538533     0.916853346582
           C(Gh)      3.373314470030    -0.037687504467     0.154111227582
           H(Gh)      3.765185534030     0.861962011533     0.621295237582
           H(Gh)      3.776870664030    -0.125232541467    -0.851669081418
           H(Gh)      3.701093232030    -0.908262408467     0.716291565582

  Running in c1 symmetry.

  Nuclear repulsion =  121.855348984084728

  Charge       = 0
  Multiplicity = 1
  Electrons    = 32
  Nalpha       = 16
  Nbeta        = 16

  ==> Algorithm <==

  SCF Algorithm Type is DF.
  DIIS enabled.
  MOM disabled.
  Fractional occupation disabled.
  Guess Type is CORE.
  Energy threshold   = 1.00e-08
  Density threshold  = 1.00e-08
  Integral threshold = 0.00e+00

  ==> Primary Basis <==

  Basis Set: AUG-CC-PVTZ
    Number of shells: 202
    Number of basis function: 598
    Number of Cartesian functions: 690
    Spherical Harmonics?: true
    Max angular momentum: 3

  ==> Pre-Iterations <==

   -------------------------------------------------------
    Irrep   Nso     Nmo     Nalpha   Nbeta   Ndocc  Nsocc
   -------------------------------------------------------
     A        598     598       0       0       0       0
   -------------------------------------------------------
    Total     598     598      16      16      16       0
   -------------------------------------------------------

 OEINTS: Wrapper to libmints.
   by Justin Turney

   Calculation information:
      Number of atoms:                  18
      Number of AO shells:             202
      Number of SO shells:             202
      Number of primitives:            350
      Number of atomic orbitals:       690
      Number of basis functions:       598

      Number of irreps:                  1
      Number of functions per irrep: [ 598 ]

      Overlap, kinetic, potential, dipole, and quadrupole integrals
        stored in file 35.

  ==> Integral Setup <==

  ==> DFJK: Density-Fitted J/K Matrices <==

    J tasked:                  Yes
    K tasked:                  Yes
    wK tasked:                  No
    OpenMP threads:              4
    Integrals threads:           4
    Memory (MB):              5006
    Algorithm:                Core
    Integral Cache:           LOAD
    Schwarz Cutoff:          0E+00
    Fitting Condition:       1E-12

   => Auxiliary Basis Set <=

  Basis Set: aug-cc-pvtz-jkfit
    Number of shells: 380
    Number of basis function: 1292
    Number of Cartesian functions: 1598
    Spherical Harmonics?: true
    Max angular momentum: 4

  Minimum eigenvalue in the overlap matrix is 4.9848369251E-06.
  Using Symmetric Orthogonalization.
  SCF Guess: Core (One-Electron) Hamiltonian.

  Guess energy:  -167.96242254773705

  ==> Iterations <==

                        Total Energy        Delta E     RMS |[F,P]|

   @RHF iter   1:  -150.06084094757216   -1.50061e+02   2.12820e-02 
   @RHF iter   2:  -129.78073803138568    2.02801e+01   1.28671e-02 DIIS
   @RHF iter   3:  -181.03431716792329   -5.12536e+01   8.96861e-03 DIIS
   @RHF iter   4:  -204.90186845951303   -2.38676e+01   4.20794e-03 DIIS
   @RHF iter   5:  -207.60179181579025   -2.69992e+00   1.69509e-03 DIIS
   @RHF iter   6:  -208.01937266081069   -4.17581e-01   4.71819e-04 DIIS
   @RHF iter   7:  -208.05392183439420   -3.45492e-02   1.88277e-04 DIIS
   @RHF iter   8:  -208.06042144713865   -6.49961e-03   5.23654e-05 DIIS
   @RHF iter   9:  -208.06145048688842   -1.02904e-03   1.69297e-05 DIIS
   @RHF iter  10:  -208.06161816110455   -1.67674e-04   5.84253e-06 DIIS
   @RHF iter  11:  -208.06163187429047   -1.37132e-05   2.36040e-06 DIIS
   @RHF iter  12:  -208.06163451212370   -2.63783e-06   6.73317e-07 DIIS
   @RHF iter  13:  -208.06163476166279   -2.49539e-07   1.73684e-07 DIIS
   @RHF iter  14:  -208.06163477837083   -1.67080e-08   6.03179e-08 DIIS
   @RHF iter  15:  -208.06163477976884   -1.39801e-09   1.25815e-08 DIIS
   @RHF iter  16:  -208.06163477984376   -7.49196e-11   3.03036e-09 DIIS

  ==> Post-Iterations <==

	Orbital Energies (a.u.)
	-----------------------

	Doubly Occupied:                                                      

	   1A    -20.511309     2A    -15.593457     3A    -11.352762  
	   4A    -11.237599     5A     -1.369002     6A     -1.218823  
	   7A     -1.005876     8A     -0.804965     9A     -0.730862  
	  10A     -0.663353    11A     -0.615629    12A     -0.579244  
	  13A     -0.564531    14A     -0.524452    15A     -0.421399  
	  16A     -0.414103  

	Virtual:                                                              

	  17A      0.018721    18A      0.026877    19A      0.038059  
	  20A      0.044047    21A      0.048494    22A      0.051842  
	  23A      0.052305    24A      0.066309    25A      0.074269  
	  26A      0.081305    27A      0.090126    28A      0.097809  
	  29A      0.104556    30A      0.108913    31A      0.112190  
	  32A      0.114093    33A      0.116244    34A      0.126381  
	  35A      0.135602    36A      0.136464    37A      0.142968  
	  38A      0.144486    39A      0.154023    40A      0.160328  
	  41A      0.164814    42A      0.168989    43A      0.174339  
	  44A      0.180384    45A      0.181596    46A      0.192514  
	  47A      0.203968    48A      0.212802    49A      0.213546  
	  50A      0.221660    51A      0.230541    52A      0.235329  
	  53A      0.239538    54A      0.250983    55A      0.253943  
	  56A      0.262593    57A      0.270355    58A      0.277979  
	  59A      0.279342    60A      0.297871    61A      0.299271  
	  62A      0.300737    63A      0.308301    64A      0.309813  
	  65A      0.324397    66A      0.326479    67A      0.329334  
	  68A      0.332378    69A      0.336388    70A      0.343355  
	  71A      0.353586    72A      0.362194    73A      0.364378  
	  74A      0.369048    75A      0.369950    76A      0.381587  
	  77A      0.381807    78A      0.392337    79A      0.397244  
	  80A      0.399089    81A      0.404321    82A      0.409537  
	  83A      0.413435    84A      0.419550    85A      0.425407  
	  86A      0.428262    87A      0.428945    88A      0.430079  
	  89A      0.435836    90A      0.445232    91A      0.449001  
	  92A      0.453875    93A      0.462056    94A      0.462949  
	  95A      0.470692    96A      0.491279    97A      0.495753  
	  98A      0.501346    99A      0.504762   100A      0.506862  
	 101A      0.509005   102A      0.512408   103A      0.524996  
	 104A      0.526073   105A      0.539490   106A      0.543625  
	 107A      0.549672   108A      0.555352   109A      0.566278  
	 110A      0.570732   111A      0.582307   112A      0.597024  
	 113A      0.598544   114A      0.614201   115A      0.619640  
	 116A      0.622076   117A      0.630474   118A      0.640241  
	 119A      0.649888   120A      0.655601   121A      0.659105  
	 122A      0.663754   123A      0.680066   124A      0.682008  
	 125A      0.685622   126A      0.698372   127A      0.714916  
	 128A      0.719597   129A      0.725307   130A      0.752295  
	 131A      0.757942   132A      0.766341   133A      0.767935  
	 134A      0.782031   135A      0.785144   136A      0.788174  
	 137A      0.797431   138A      0.814647   139A      0.818116  
	 140A      0.830674   141A      0.833264   142A      0.839146  
	 143A      0.850170   144A      0.851741   145A      0.862703  
	 146A      0.873038   147A      0.878204   148A      0.885865  
	 149A      0.900367   150A      0.903696   151A      0.910817  
	 152A      0.914274   153A      0.919552   154A      0.927462  
	 155A      0.929390   156A      0.930608   157A      0.944485  
	 158A      0.956310   159A      0.961992   160A      0.963799  
	 161A      0.976294   162A      0.996492   163A      0.999623  
	 164A      1.010847   165A      1.015513   166A      1.018876  
	 167A      1.032037   168A      1.032342   169A      1.036598  
	 170A      1.044295   171A      1.051328   172A      1.062032  
	 173A      1.066977   174A      1.070640   175A      1.078807  
	 176A      1.081656   177A      1.086458   178A      1.104755  
	 179A      1.111364   180A      1.115204   181A      1.125758  
	 182A      1.142159   183A      1.143371   184A      1.144398  
	 185A      1.149598   186A      1.158140   187A      1.163060  
	 188A      1.173838   189A      1.178804   190A      1.185875  
	 191A      1.187040   192A      1.202093   193A      1.210365  
	 194A      1.216254   195A      1.222417   196A      1.226724  
	 197A      1.237552   198A      1.238022   199A      1.249442  
	 200A      1.266525   201A      1.272431   202A      1.273739  
	 203A      1.278360   204A      1.294160   205A      1.296011  
	 206A      1.311792   207A      1.315683   208A      1.326782  
	 209A      1.335021   210A      1.347581   211A      1.355871  
	 212A      1.360319   213A      1.376227   214A      1.377989  
	 215A      1.386132   216A      1.387895   217A      1.395826  
	 218A      1.401418   219A      1.407657   220A      1.418162  
	 221A      1.432221   222A      1.433680   223A      1.458384  
	 224A      1.468180   225A      1.474035   226A      1.488680  
	 227A      1.495410   228A      1.512616   229A      1.519689  
	 230A      1.525939   231A      1.536523   232A      1.542714  
	 233A      1.556388   234A      1.559170   235A      1.571391  
	 236A      1.593485   237A      1.599962   238A      1.603570  
	 239A      1.606633   240A      1.614310   241A      1.630847  
	 242A      1.634947   243A      1.642093   244A      1.659208  
	 245A      1.662258   246A      1.669149   247A      1.676707  
	 248A      1.701107   249A      1.703263   250A      1.714248  
	 251A      1.716603   252A      1.719236   253A      1.722084  
	 254A      1.741335   255A      1.755380   256A      1.772101  
	 257A      1.788939   258A      1.790193   259A      1.794822  
	 260A      1.801476   261A      1.814758   262A      1.830569  
	 263A      1.835140   264A      1.845843   265A      1.847610  
	 266A      1.860915   267A      1.881796   268A      1.899742  
	 269A      1.906411   270A      1.907249   271A      1.911760  
	 272A      1.917892   273A      1.934146   274A      1.949586  
	 275A      1.975182   276A      1.978380   277A      1.988046  
	 278A      2.011079   279A      2.019548   280A      2.030415  
	 281A      2.039968   282A      2.057926   283A      2.063256  
	 284A      2.072811   285A      2.107207   286A      2.109402  
	 287A      2.114724   288A      2.122189   289A      2.133241  
	 290A      2.158967   291A      2.169803   292A      2.181221  
	 293A      2.189845   294A      2.197249   295A      2.213180  
	 296A      2.219098   297A      2.226854   298A      2.231190  
	 299A      2.241145   300A      2.264352   301A      2.292160  
	 302A      2.322964   303A      2.325105   304A      2.330381  
	 305A      2.359021   306A      2.379181   307A      2.389922  
	 308A      2.407644   309A      2.426440   310A      2.434456  
	 311A      2.445405   312A      2.454559   313A      2.484658  
	 314A      2.488074   315A      2.502518   316A      2.529819  
	 317A      2.549050   318A      2.550400   319A      2.575231  
	 320A      2.577579   321A      2.605788   322A      2.627038  
	 323A      2.648490   324A      2.670953   325A      2.689055  
	 326A      2.691620   327A      2.700202   328A      2.712892  
	 329A      2.728861   330A      2.735056   331A      2.744688  
	 332A      2.749133   333A      2.752306   334A      2.792585  
	 335A      2.798926   336A      2.801800   337A      2.813704  
	 338A      2.850158   339A      2.861179   340A      2.896651  
	 341A      2.907399   342A      2.932545   343A      2.943151  
	 344A      2.947931   345A      2.953548   346A      2.983050  
	 347A      2.998479   348A      2.999907   349A      3.017246  
	 350A      3.076230   351A      3.090382   352A      3.100383  
	 353A      3.130170   354A      3.134524   355A      3.147373  
	 356A      3.198014   357A      3.224125   358A      3.252485  
	 359A      3.260925   360A      3.273878   361A      3.307540  
	 362A      3.313588   363A      3.331368   364A      3.371100  
	 365A      3.378261   366A      3.421377   367A      3.422999  
	 368A      3.488203   369A      3.509180   370A      3.531940  
	 371A      3.538167   372A      3.557313   373A      3.593861  
	 374A      3.612789   375A      3.619143   376A      3.640052  
	 377A      3.647108   378A      3.664445   379A      3.677582  
	 380A      3.697479   381A      3.707286   382A      3.741739  
	 383A      3.790357   384A      3.811151   385A      3.831905  
	 386A      3.861585   387A      3.886066   388A      3.914392  
	 389A      3.937749   390A      3.947249   391A      3.957498  
	 392A      3.969246   393A      3.986271   394A      4.021057  
	 395A      4.054588   396A      4.087011   397A      4.096016  
	 398A      4.114477   399A      4.122525   400A      4.126366  
	 401A      4.140673   402A      4.155110   403A      4.167217  
	 404A      4.181703   405A      4.183784   406A      4.225838  
	 407A      4.228851   408A      4.272886   409A      4.286409  
	 410A      4.292973   411A      4.319244   412A      4.331516  
	 413A      4.347266   414A      4.350736   415A      4.360424  
	 416A      4.382769   417A      4.406707   418A      4.438364  
	 419A      4.443163   420A      4.459720   421A      4.475618  
	 422A      4.482410   423A      4.501412   424A      4.509901  
	 425A      4.525781   426A      4.540379   427A      4.550035  
	 428A      4.569406   429A      4.585844   430A      4.604102  
	 431A      4.621967   432A      4.631738   433A      4.632326  
	 434A      4.670898   435A      4.684693   436A      4.696244  
	 437A      4.734489   438A      4.749009   439A      4.761619  
	 440A      4.773107   441A      4.783369   442A      4.785002  
	 443A      4.801928   444A      4.804786   445A      4.847418  
	 446A      4.864569   447A      4.878297   448A      4.891594  
	 449A      4.929780   450A      4.937087   451A      4.952732  
	 452A      4.972324   453A      4.976606   454A      4.990269  
	 455A      5.012037   456A      5.015165   457A      5.041214  
	 458A      5.055448   459A      5.085365   460A      5.094392  
	 461A      5.106589   462A      5.140194   463A      5.168212  
	 464A      5.182401   465A      5.186342   466A      5.205074  
	 467A      5.210298   468A      5.220294   469A      5.255757  
	 470A      5.275098   471A      5.298726   472A      5.302111  
	 473A      5.333793   474A      5.344663   475A      5.361406  
	 476A      5.373810   477A      5.376392   478A      5.412481  
	 479A      5.414109   480A      5.435402   481A      5.446141  
	 482A      5.469332   483A      5.510908   484A      5.525466  
	 485A      5.537675   486A      5.546395   487A      5.548683  
	 488A      5.558397   489A      5.565523   490A      5.612014  
	 491A      5.622788   492A      5.630996   493A      5.641289  
	 494A      5.661295   495A      5.683711   496A      5.709661  
	 497A      5.732291   498A      5.761565   499A      5.818487  
	 500A      5.835829   501A      5.865879   502A      5.909455  
	 503A      5.924066   504A      5.959315   505A      5.973858  
	 506A      6.006987   507A      6.034853   508A      6.074128  
	 509A      6.129399   510A      6.130430   511A      6.153510  
	 512A      6.183800   513A      6.188202   514A      6.194670  
	 515A      6.214655   516A      6.232815   517A      6.310805  
	 518A      6.360259   519A      6.369057   520A      6.391178  
	 521A      6.418666   522A      6.495919   523A      6.520461  
	 524A      6.550956   525A      6.636618   526A      6.683087  
	 527A      6.714435   528A      6.732454   529A      6.743604  
	 530A      6.786817   531A      6.846872   532A      6.865468  
	 533A      6.903826   534A      6.927246   535A      6.951463  
	 536A      6.978117   537A      7.008827   538A      7.067569  
	 539A      7.182140   540A      7.196081   541A      7.221304  
	 542A      7.253926   543A      7.266339   544A      7.362691  
	 545A      7.472292   546A      7.488284   547A      7.530509  
	 548A      7.562699   549A      7.651873   550A      7.678350  
	 551A      7.704904   552A      7.740545   553A      7.768189  
	 554A      7.807318   555A      7.836388   556A      7.849614  
	 557A      7.863116   558A      7.890901   559A      7.923722  
	 560A      7.944189   561A      7.964920   562A      8.019046  
	 563A      8.093048   564A      8.181751   565A      8.183304  
	 566A      8.225604   567A      8.334397   568A      8.358979  
	 569A      8.434200   570A      8.649661   571A      8.755444  
	 572A      8.901120   573A      9.173349   574A      9.268754  
	 575A      9.711162   576A      9.724745   577A      9.878582  
	 578A      9.981189   579A     10.154846   580A     10.333890  
	 581A     10.524168   582A     10.693368   583A     11.031310  
	 584A     11.374298   585A     11.952312   586A     11.964119  
	 587A     12.755287   588A     13.092633   589A     13.414417  
	 590A     14.082289   591A     16.026858   592A     17.891049  
	 593A     19.127104   594A     20.467796   595A     52.502742  
	 596A     54.087694   597A     63.317267   598A     69.594995  

	Final Occupation by Irrep:
	          A 
	DOCC [    16 ]

  Energy converged.

  @RHF Final Energy:  -208.06163477984376

   => Energetics <=

    Nuclear Repulsion Energy =            121.8553489840847277
    One-Electron Energy =                -524.6192305797245581
    Two-Electron Energy =                 194.7022468157958883
    DFT Exchange-Correlation Energy =       0.0000000000000000
    Empirical Dispersion Energy =           0.0000000000000000
    Total Energy =                       -208.0616347798439278



Properties will be evaluated at   0.000000,   0.000000,   0.000000 Bohr
  ==> Properties <==


Properties computed using the SCF density density matrix
  Nuclear Dipole Moment: (a.u.)
     X:  -119.8727      Y:    -1.8140      Z:    -7.0172

  Electronic Dipole Moment: (a.u.)
     X:   119.2911      Y:     0.3379      Z:     6.3113

  Dipole Moment: (a.u.)
     X:    -0.5816      Y:    -1.4761      Z:    -0.7059     Total:     1.7365

  Dipole Moment: (Debye)
     X:    -1.4782      Y:    -3.7519      Z:    -1.7943     Total:     4.4137


  Saving occupied orbitals to File 180.

  Saving SAPT 2-MONOMER_A file.

*** tstop() called on node136.bme.utexas.edu at Fri Feb 14 13:27:37 2014
Module time:
	user time   =     577.68 seconds =       9.63 minutes
	system time =       4.60 seconds =       0.08 minutes
	total time  =        152 seconds =       2.53 minutes
Total time:
	user time   =    1331.12 seconds =      22.19 minutes
	system time =      12.45 seconds =       0.21 minutes
	total time  =        357 seconds =       5.95 minutes

  //>>>>>>>>>>>>>>>>>>>>>>>>>>>>>>>>>>>//
  //            Monomer B HF           //
  //<<<<<<<<<<<<<<<<<<<<<<<<<<<<<<<<<<<//


  No DF_BASIS_SCF auxiliary basis selected, defaulting to aug-cc-pvtz-jkfit


*** tstart() called on node136.bme.utexas.edu
*** at Fri Feb 14 13:27:37 2014


         ---------------------------------------------------------
                                   SCF
            by Justin Turney, Rob Parrish, and Andy Simmonett
                              RHF Reference
                        4 Threads,   7000 MiB Core
         ---------------------------------------------------------

  ==> Geometry <==

    Molecular point group: c1
    Full point group: C1

    Geometry (in Angstrom), charge = 0, multiplicity = 1:

       Center              X                  Y                   Z       
    ------------   -----------------  -----------------  -----------------
           C(Gh)     -1.866345952970     0.061765024533    -0.068565690418
           O(Gh)     -1.281896645970     1.036736520533     0.409317996582
           N(Gh)     -1.222217363970    -1.023356452467    -0.535389840418
           H(Gh)     -0.202013545970    -1.066962982467    -0.502704566418
           H(Gh)     -1.740223244970    -1.792010840467    -0.914151445418
           C(Gh)     -3.373315547970     0.037587500533    -0.154001324418
           H(Gh)     -3.777225156970     0.144130306533     0.849687036582
           H(Gh)     -3.766023745970    -0.869777132467    -0.605295439418
           H(Gh)     -3.699754339970     0.898184484533    -0.732288464418
           C          1.866315288030    -0.061971884467     0.068886142582
           O          1.281893525030    -1.035992320467    -0.410844823418
           N          1.222227724030     1.022771338533     0.536732696582
           H          0.202122356030     1.067209122533     0.502431379582
           H          1.740251790030     1.790732538533     0.916853346582
           C          3.373314470030    -0.037687504467     0.154111227582
           H          3.765185534030     0.861962011533     0.621295237582
           H          3.776870664030    -0.125232541467    -0.851669081418
           H          3.701093232030    -0.908262408467     0.716291565582

  Running in c1 symmetry.

  Nuclear repulsion =  121.855627350147998

  Charge       = 0
  Multiplicity = 1
  Electrons    = 32
  Nalpha       = 16
  Nbeta        = 16

  ==> Algorithm <==

  SCF Algorithm Type is DF.
  DIIS enabled.
  MOM disabled.
  Fractional occupation disabled.
  Guess Type is CORE.
  Energy threshold   = 1.00e-08
  Density threshold  = 1.00e-08
  Integral threshold = 0.00e+00

  ==> Primary Basis <==

  Basis Set: AUG-CC-PVTZ
    Number of shells: 202
    Number of basis function: 598
    Number of Cartesian functions: 690
    Spherical Harmonics?: true
    Max angular momentum: 3

  ==> Pre-Iterations <==

   -------------------------------------------------------
    Irrep   Nso     Nmo     Nalpha   Nbeta   Ndocc  Nsocc
   -------------------------------------------------------
     A        598     598       0       0       0       0
   -------------------------------------------------------
    Total     598     598      16      16      16       0
   -------------------------------------------------------

 OEINTS: Wrapper to libmints.
   by Justin Turney

   Calculation information:
      Number of atoms:                  18
      Number of AO shells:             202
      Number of SO shells:             202
      Number of primitives:            350
      Number of atomic orbitals:       690
      Number of basis functions:       598

      Number of irreps:                  1
      Number of functions per irrep: [ 598 ]

      Overlap, kinetic, potential, dipole, and quadrupole integrals
        stored in file 35.

  ==> Integral Setup <==

  ==> DFJK: Density-Fitted J/K Matrices <==

    J tasked:                  Yes
    K tasked:                  Yes
    wK tasked:                  No
    OpenMP threads:              4
    Integrals threads:           4
    Memory (MB):              5006
    Algorithm:                Core
    Integral Cache:           LOAD
    Schwarz Cutoff:          0E+00
    Fitting Condition:       1E-12

   => Auxiliary Basis Set <=

  Basis Set: aug-cc-pvtz-jkfit
    Number of shells: 380
    Number of basis function: 1292
    Number of Cartesian functions: 1598
    Spherical Harmonics?: true
    Max angular momentum: 4

  Minimum eigenvalue in the overlap matrix is 4.9848369251E-06.
  Using Symmetric Orthogonalization.
  SCF Guess: Core (One-Electron) Hamiltonian.

  Guess energy:  -167.96255306101125

  ==> Iterations <==

                        Total Energy        Delta E     RMS |[F,P]|

   @RHF iter   1:  -150.06031241225696   -1.50060e+02   2.12821e-02 
   @RHF iter   2:  -129.78012437511740    2.02802e+01   1.28672e-02 DIIS
   @RHF iter   3:  -181.03426488299942   -5.12541e+01   8.96862e-03 DIIS
   @RHF iter   4:  -204.90183588657271   -2.38676e+01   4.20793e-03 DIIS
   @RHF iter   5:  -207.60172990840380   -2.69989e+00   1.69520e-03 DIIS
   @RHF iter   6:  -208.01937411324690   -4.17644e-01   4.71843e-04 DIIS
   @RHF iter   7:  -208.05392696266762   -3.45528e-02   1.88283e-04 DIIS
   @RHF iter   8:  -208.06042719242680   -6.50023e-03   5.23662e-05 DIIS
   @RHF iter   9:  -208.06145639591705   -1.02920e-03   1.69307e-05 DIIS
   @RHF iter  10:  -208.06162409563774   -1.67700e-04   5.84281e-06 DIIS
   @RHF iter  11:  -208.06163781098581   -1.37153e-05   2.36055e-06 DIIS
   @RHF iter  12:  -208.06164044897355   -2.63799e-06   6.73305e-07 DIIS
   @RHF iter  13:  -208.06164069846102   -2.49487e-07   1.73677e-07 DIIS
   @RHF iter  14:  -208.06164071516628   -1.67053e-08   6.03142e-08 DIIS
   @RHF iter  15:  -208.06164071656224   -1.39596e-09   1.25810e-08 DIIS
   @RHF iter  16:  -208.06164071663864   -7.63976e-11   3.03075e-09 DIIS

  ==> Post-Iterations <==

	Orbital Energies (a.u.)
	-----------------------

	Doubly Occupied:                                                      

	   1A    -20.511324     2A    -15.593442     3A    -11.352759  
	   4A    -11.237599     5A     -1.369032     6A     -1.218815  
	   7A     -1.005871     8A     -0.804953     9A     -0.730856  
	  10A     -0.663357    11A     -0.615632    12A     -0.579265  
	  13A     -0.564523    14A     -0.524459    15A     -0.421406  
	  16A     -0.414111  

	Virtual:                                                              

	  17A      0.018722    18A      0.026879    19A      0.038061  
	  20A      0.044035    21A      0.048497    22A      0.051840  
	  23A      0.052302    24A      0.066313    25A      0.074269  
	  26A      0.081304    27A      0.090126    28A      0.097818  
	  29A      0.104531    30A      0.108915    31A      0.112154  
	  32A      0.114155    33A      0.116251    34A      0.126363  
	  35A      0.135650    36A      0.136449    37A      0.142970  
	  38A      0.144476    39A      0.153976    40A      0.160352  
	  41A      0.164803    42A      0.169027    43A      0.174366  
	  44A      0.180415    45A      0.181565    46A      0.192515  
	  47A      0.203969    48A      0.212825    49A      0.213504  
	  50A      0.221644    51A      0.230540    52A      0.235339  
	  53A      0.239504    54A      0.250974    55A      0.253946  
	  56A      0.262590    57A      0.270375    58A      0.278192  
	  59A      0.279145    60A      0.297785    61A      0.299367  
	  62A      0.300713    63A      0.308272    64A      0.309802  
	  65A      0.324407    66A      0.326425    67A      0.329335  
	  68A      0.332232    69A      0.336618    70A      0.343388  
	  71A      0.353616    72A      0.362189    73A      0.364407  
	  74A      0.369054    75A      0.369947    76A      0.381484  
	  77A      0.381926    78A      0.392363    79A      0.397285  
	  80A      0.398997    81A      0.404331    82A      0.409534  
	  83A      0.413411    84A      0.419569    85A      0.425391  
	  86A      0.427798    87A      0.429208    88A      0.430257  
	  89A      0.435837    90A      0.445142    91A      0.449109  
	  92A      0.453833    93A      0.462110    94A      0.462965  
	  95A      0.470754    96A      0.491262    97A      0.495781  
	  98A      0.501296    99A      0.504687   100A      0.506908  
	 101A      0.508972   102A      0.512407   103A      0.525024  
	 104A      0.526051   105A      0.539381   106A      0.543598  
	 107A      0.549728   108A      0.555377   109A      0.566126  
	 110A      0.570712   111A      0.582229   112A      0.597087  
	 113A      0.598682   114A      0.614226   115A      0.619659  
	 116A      0.622066   117A      0.630507   118A      0.640067  
	 119A      0.650131   120A      0.655422   121A      0.659190  
	 122A      0.663713   123A      0.680075   124A      0.681959  
	 125A      0.685656   126A      0.698461   127A      0.714972  
	 128A      0.719629   129A      0.725435   130A      0.752334  
	 131A      0.757959   132A      0.766498   133A      0.767698  
	 134A      0.782018   135A      0.785219   136A      0.788068  
	 137A      0.797380   138A      0.814604   139A      0.818141  
	 140A      0.830715   141A      0.833287   142A      0.839249  
	 143A      0.850200   144A      0.851690   145A      0.862683  
	 146A      0.872999   147A      0.878000   148A      0.885938  
	 149A      0.900461   150A      0.903551   151A      0.910819  
	 152A      0.914258   153A      0.919598   154A      0.927500  
	 155A      0.929501   156A      0.930629   157A      0.944307  
	 158A      0.956287   159A      0.962171   160A      0.963692  
	 161A      0.976235   162A      0.996524   163A      0.999623  
	 164A      1.010764   165A      1.015608   166A      1.018777  
	 167A      1.031993   168A      1.032430   169A      1.036778  
	 170A      1.044283   171A      1.051309   172A      1.062026  
	 173A      1.066573   174A      1.070982   175A      1.078690  
	 176A      1.081552   177A      1.086432   178A      1.104925  
	 179A      1.111423   180A      1.115131   181A      1.125823  
	 182A      1.142386   183A      1.143619   184A      1.143991  
	 185A      1.149461   186A      1.158060   187A      1.163180  
	 188A      1.173914   189A      1.178814   190A      1.185567  
	 191A      1.187296   192A      1.202206   193A      1.210450  
	 194A      1.216240   195A      1.222315   196A      1.226676  
	 197A      1.237131   198A      1.238342   199A      1.249468  
	 200A      1.266564   201A      1.272677   202A      1.273506  
	 203A      1.278096   204A      1.294973   205A      1.295252  
	 206A      1.311854   207A      1.315660   208A      1.326544  
	 209A      1.335405   210A      1.347540   211A      1.356598  
	 212A      1.359164   213A      1.376431   214A      1.378141  
	 215A      1.385870   216A      1.388342   217A      1.395767  
	 218A      1.401392   219A      1.407450   220A      1.418214  
	 221A      1.432742   222A      1.433481   223A      1.458448  
	 224A      1.468091   225A      1.474111   226A      1.488684  
	 227A      1.495365   228A      1.512614   229A      1.519683  
	 230A      1.525894   231A      1.536506   232A      1.542657  
	 233A      1.556276   234A      1.559220   235A      1.571497  
	 236A      1.593595   237A      1.600042   238A      1.603452  
	 239A      1.606399   240A      1.614547   241A      1.630984  
	 242A      1.633794   243A      1.643058   244A      1.659208  
	 245A      1.662375   246A      1.669064   247A      1.676677  
	 248A      1.701623   249A      1.702914   250A      1.714902  
	 251A      1.715950   252A      1.718831   253A      1.722607  
	 254A      1.741389   255A      1.755259   256A      1.772160  
	 257A      1.788608   258A      1.790055   259A      1.794639  
	 260A      1.801763   261A      1.814797   262A      1.830847  
	 263A      1.834924   264A      1.845784   265A      1.847659  
	 266A      1.861020   267A      1.881725   268A      1.899789  
	 269A      1.906196   270A      1.907490   271A      1.911897  
	 272A      1.917712   273A      1.934141   274A      1.949462  
	 275A      1.975367   276A      1.978368   277A      1.987881  
	 278A      2.011199   279A      2.019519   280A      2.030333  
	 281A      2.039930   282A      2.058033   283A      2.063437  
	 284A      2.072981   285A      2.106536   286A      2.109850  
	 287A      2.114833   288A      2.122178   289A      2.133281  
	 290A      2.158990   291A      2.169807   292A      2.181121  
	 293A      2.190069   294A      2.197093   295A      2.213027  
	 296A      2.218866   297A      2.226980   298A      2.231333  
	 299A      2.241013   300A      2.264307   301A      2.292135  
	 302A      2.323140   303A      2.325098   304A      2.330424  
	 305A      2.359171   306A      2.379043   307A      2.389696  
	 308A      2.407687   309A      2.426634   310A      2.434261  
	 311A      2.445115   312A      2.454481   313A      2.484831  
	 314A      2.488048   315A      2.502709   316A      2.529784  
	 317A      2.549057   318A      2.550374   319A      2.574741  
	 320A      2.578010   321A      2.605924   322A      2.626986  
	 323A      2.648586   324A      2.670868   325A      2.689072  
	 326A      2.691577   327A      2.700159   328A      2.712897  
	 329A      2.728831   330A      2.735039   331A      2.745173  
	 332A      2.748883   333A      2.752391   334A      2.793528  
	 335A      2.798519   336A      2.801305   337A      2.813755  
	 338A      2.850181   339A      2.861182   340A      2.896890  
	 341A      2.907237   342A      2.932713   343A      2.943248  
	 344A      2.948459   345A      2.952469   346A      2.983008  
	 347A      2.998247   348A      3.000137   349A      3.017218  
	 350A      3.076227   351A      3.090304   352A      3.100269  
	 353A      3.131011   354A      3.133694   355A      3.147274  
	 356A      3.197886   357A      3.224025   358A      3.252578  
	 359A      3.260962   360A      3.273908   361A      3.307562  
	 362A      3.313707   363A      3.331343   364A      3.370854  
	 365A      3.378286   366A      3.421679   367A      3.423102  
	 368A      3.488305   369A      3.509061   370A      3.531845  
	 371A      3.538354   372A      3.557276   373A      3.593832  
	 374A      3.612779   375A      3.619179   376A      3.640052  
	 377A      3.647096   378A      3.664633   379A      3.677083  
	 380A      3.697222   381A      3.708153   382A      3.741837  
	 383A      3.790419   384A      3.811101   385A      3.832026  
	 386A      3.861658   387A      3.886054   388A      3.914374  
	 389A      3.937723   390A      3.947345   391A      3.957444  
	 392A      3.969321   393A      3.986612   394A      4.020926  
	 395A      4.054614   396A      4.086548   397A      4.096480  
	 398A      4.114708   399A      4.122138   400A      4.126499  
	 401A      4.140522   402A      4.155117   403A      4.167218  
	 404A      4.180552   405A      4.184932   406A      4.225847  
	 407A      4.229074   408A      4.272827   409A      4.286576  
	 410A      4.292695   411A      4.319203   412A      4.331253  
	 413A      4.346400   414A      4.351817   415A      4.360403  
	 416A      4.382930   417A      4.406872   418A      4.438309  
	 419A      4.443037   420A      4.459721   421A      4.475664  
	 422A      4.482274   423A      4.501473   424A      4.509832  
	 425A      4.525951   426A      4.540386   427A      4.549974  
	 428A      4.569650   429A      4.585752   430A      4.604050  
	 431A      4.621860   432A      4.631732   433A      4.632349  
	 434A      4.670873   435A      4.684601   436A      4.696203  
	 437A      4.734364   438A      4.749284   439A      4.761499  
	 440A      4.773029   441A      4.783422   442A      4.784993  
	 443A      4.801691   444A      4.804840   445A      4.847334  
	 446A      4.864541   447A      4.878250   448A      4.891459  
	 449A      4.929082   450A      4.937619   451A      4.952746  
	 452A      4.972204   453A      4.976617   454A      4.990106  
	 455A      5.011881   456A      5.014971   457A      5.041544  
	 458A      5.055578   459A      5.085294   460A      5.094266  
	 461A      5.107179   462A      5.140204   463A      5.168372  
	 464A      5.182223   465A      5.186552   466A      5.205472  
	 467A      5.209929   468A      5.220023   469A      5.255631  
	 470A      5.274487   471A      5.298102   472A      5.303324  
	 473A      5.333783   474A      5.344615   475A      5.361654  
	 476A      5.373888   477A      5.376202   478A      5.412616  
	 479A      5.414158   480A      5.435428   481A      5.445832  
	 482A      5.469107   483A      5.511030   484A      5.525018  
	 485A      5.537422   486A      5.547492   487A      5.548473  
	 488A      5.559182   489A      5.564589   490A      5.612034  
	 491A      5.622554   492A      5.631669   493A      5.641537  
	 494A      5.661504   495A      5.683540   496A      5.709607  
	 497A      5.732354   498A      5.761702   499A      5.818361  
	 500A      5.835879   501A      5.865576   502A      5.909488  
	 503A      5.924016   504A      5.959096   505A      5.973625  
	 506A      6.007052   507A      6.034793   508A      6.074184  
	 509A      6.129118   510A      6.130713   511A      6.153722  
	 512A      6.183858   513A      6.189312   514A      6.193628  
	 515A      6.214101   516A      6.232752   517A      6.310664  
	 518A      6.360089   519A      6.368972   520A      6.391264  
	 521A      6.418602   522A      6.496017   523A      6.520557  
	 524A      6.550912   525A      6.636842   526A      6.683125  
	 527A      6.714499   528A      6.732381   529A      6.743715  
	 530A      6.786815   531A      6.846936   532A      6.865459  
	 533A      6.903878   534A      6.927148   535A      6.951500  
	 536A      6.978086   537A      7.008585   538A      7.067562  
	 539A      7.182079   540A      7.196151   541A      7.221500  
	 542A      7.254514   543A      7.266076   544A      7.362815  
	 545A      7.472316   546A      7.488377   547A      7.530551  
	 548A      7.562733   549A      7.651807   550A      7.678381  
	 551A      7.705015   552A      7.740563   553A      7.768231  
	 554A      7.807317   555A      7.836332   556A      7.849839  
	 557A      7.862850   558A      7.891051   559A      7.923856  
	 560A      7.944221   561A      7.964988   562A      8.019105  
	 563A      8.093005   564A      8.181838   565A      8.183115  
	 566A      8.225358   567A      8.334374   568A      8.359069  
	 569A      8.434344   570A      8.649535   571A      8.755638  
	 572A      8.901049   573A      9.173309   574A      9.268871  
	 575A      9.711306   576A      9.724865   577A      9.878525  
	 578A      9.981134   579A     10.154779   580A     10.333919  
	 581A     10.524113   582A     10.693353   583A     11.031054  
	 584A     11.374421   585A     11.952405   586A     11.963910  
	 587A     12.755131   588A     13.092546   589A     13.414446  
	 590A     14.082067   591A     16.027832   592A     17.891242  
	 593A     19.125903   594A     20.467516   595A     52.502825  
	 596A     54.087845   597A     63.317693   598A     69.594811  

	Final Occupation by Irrep:
	          A 
	DOCC [    16 ]

  Energy converged.

  @RHF Final Energy:  -208.06164071663864

   => Energetics <=

    Nuclear Repulsion Energy =            121.8556273501479978
    One-Electron Energy =                -524.6197249696142535
    Two-Electron Energy =                 194.7024569028279757
    DFT Exchange-Correlation Energy =       0.0000000000000000
    Empirical Dispersion Energy =           0.0000000000000000
    Total Energy =                       -208.0616407166382942



Properties will be evaluated at   0.000000,   0.000000,   0.000000 Bohr
  ==> Properties <==


Properties computed using the SCF density density matrix
  Nuclear Dipole Moment: (a.u.)
     X:   119.8730      Y:     1.8140      Z:     7.0176

  Electronic Dipole Moment: (a.u.)
     X:  -119.2914      Y:    -0.3386      Z:    -6.3107

  Dipole Moment: (a.u.)
     X:     0.5816      Y:     1.4754      Z:     0.7069     Total:     1.7363

  Dipole Moment: (Debye)
     X:     1.4783      Y:     3.7501      Z:     1.7968     Total:     4.4133


  Saving occupied orbitals to File 180.

  Saving SAPT 2-MONOMER_B file.

*** tstop() called on node136.bme.utexas.edu at Fri Feb 14 13:30:09 2014
Module time:
	user time   =     576.79 seconds =       9.61 minutes
	system time =       4.63 seconds =       0.08 minutes
	total time  =        152 seconds =       2.53 minutes
Total time:
	user time   =    1907.93 seconds =      31.80 minutes
	system time =      17.08 seconds =       0.28 minutes
	total time  =        509 seconds =       8.48 minutes
  No DF_BASIS_SAPT auxiliary basis selected, defaulting to aug-cc-pvtz-ri

  //>>>>>>>>>>>>>>>>>>>>>>>>>>>>>>>>>>>//
  //               SAPT2+              //
  //<<<<<<<<<<<<<<<<<<<<<<<<<<<<<<<<<<<//


*** tstart() called on node136.bme.utexas.edu
*** at Fri Feb 14 13:30:09 2014

        SAPT2+  
    Ed Hohenstein
     6 June 2009

      Orbital Information
  --------------------------
    NSO        =       598
    NMO        =       598
    NRI        =      1308
    NOCC A     =        16
    NOCC B     =        16
    FOCC A     =         4
    FOCC B     =         4
    NVIR A     =       582
    NVIR B     =       582

    Estimated memory usage: 5625.5 MB

    Elst10,r            =    -0.085004890852 H
    Exch10 (S^2)        =     0.127093897721 H
    Exch10              =     0.131806160481 H
    Ind20,r (A<-B)      =    -0.032642707321 H
    Ind20,r (B<-A)      =    -0.032643176732 H
    Ind20,r             =    -0.065285884052 H
    Exch-Ind20,r (A<-B) =     0.019541817169 H
    Exch-Ind20,r (B<-A) =     0.019536575109 H
    Exch-Ind20,r        =     0.039078392278 H
    Disp20              =    -0.031745838933 H
    Exch-Disp20         =     0.007393081841 H
    Elst12,r            =     0.000977701060 H
    Exch11              =     0.000657447641 H
    Exch12              =     0.010950140516 H
    Ind22               =    -0.008505005809 H
    Disp21              =     0.003008378365 H
    Disp22 (SDQ)        =    -0.000335599729 H

    (i =   1 of  12)       5164 seconds
    (i =   2 of  12)      10335 seconds
    (i =   3 of  12)      15505 seconds
    (i =   4 of  12)      20675 seconds
    (i =   5 of  12)      25844 seconds
    (i =   6 of  12)      31012 seconds
    (i =   7 of  12)      36182 seconds
    (i =   8 of  12)      41352 seconds
    (i =   9 of  12)      46522 seconds
    (i =  10 of  12)      51693 seconds
    (i =  11 of  12)      56860 seconds
    (i =  12 of  12)      62030 seconds

    Disp220 (T)         =    -0.002691272229 H

    (i =   1 of  12)       5174 seconds
    (i =   2 of  12)      10350 seconds
    (i =   3 of  12)      15524 seconds
    (i =   4 of  12)      20696 seconds
    (i =   5 of  12)      25869 seconds
    (i =   6 of  12)      31043 seconds
    (i =   7 of  12)      36214 seconds
    (i =   8 of  12)      41390 seconds
    (i =   9 of  12)      46567 seconds
    (i =  10 of  12)      51740 seconds
    (i =  11 of  12)      56913 seconds
    (i =  12 of  12)      62087 seconds

    Disp202 (T)         =    -0.002691266425 H

    Disp22 (T)          =    -0.005382538654 H

    SAPT Results  
  -----------------------------------------------------------------------
    Electrostatics         -84.02718979 mH     -52.72785985 kcal mol^-1
      Elst10,r             -85.00489085 mH     -53.34137656 kcal mol^-1
      Elst12,r               0.97770106 mH       0.61351670 kcal mol^-1

    Exchange               143.41374864 mH      89.99348970 kcal mol^-1
      Exch10               131.80616048 mH      82.70961786 kcal mol^-1
      Exch10(S^2)          127.09389772 mH      79.75262821 kcal mol^-1
      Exch11(S^2)            0.65744764 mH       0.41255464 kcal mol^-1
      Exch12(S^2)           10.95014052 mH       6.87131720 kcal mol^-1

    Induction              -51.73902330 mH     -32.46672864 kcal mol^-1
      Ind20,r              -65.28588405 mH     -40.96751246 kcal mol^-1
      Ind22                 -8.50500581 mH      -5.33697194 kcal mol^-1
      Exch-Ind20,r          39.07839228 mH      24.52206240 kcal mol^-1
      Exch-Ind22             5.09087007 mH       3.19456933 kcal mol^-1
      delta HF,r (2)       -22.11739579 mH     -13.87887598 kcal mol^-1

    Dispersion             -27.06251711 mH     -16.98198658 kcal mol^-1
      Disp20               -31.74583893 mH     -19.92081552 kcal mol^-1
      Disp21                 3.00837837 mH       1.88778600 kcal mol^-1
      Disp22 (SDQ)          -0.33559973 mH      -0.21059202 kcal mol^-1
      Disp22 (T)            -5.38253865 mH      -3.37759414 kcal mol^-1
      Exch-Disp20            7.39308184 mH       4.63922909 kcal mol^-1

    Total HF                -1.52361794 mH      -0.95608473 kcal mol^-1
    Total SAPT0            -25.87637503 mH     -16.23767116 kcal mol^-1
    Total SAPT2            -16.70522155 mH     -10.48268522 kcal mol^-1
    Total SAPT2+           -19.41498157 mH     -12.18308538 kcal mol^-1

*** tstop() called on node136.bme.utexas.edu at Sun Feb 16 06:44:37 2014
Module time:
	user time   =  528800.64 seconds =    8813.34 minutes
	system time =     668.92 seconds =      11.15 minutes
	total time  =     148468 seconds =    2474.47 minutes
Total time:
	user time   =  530708.58 seconds =    8845.14 minutes
	system time =     686.00 seconds =      11.43 minutes
	total time  =     148977 seconds =    2482.95 minutes

*** PSI4 exiting successfully. Buy a developer a beer!
