    -----------------------------------------------------------------------
          PSI4: An Open-Source Ab Initio Electronic Structure Package
                              PSI 4.0.0-beta4 Driver

    J. M. Turney, A. C. Simmonett, R. M. Parrish, E. G. Hohenstein,
    F. A. Evangelista, J. T. Fermann, B. J. Mintz, L. A. Burns, J. J. Wilke,
    M. L. Abrams, N. J. Russ, M. L. Leininger, C. L. Janssen, E. T. Seidl,
    W. D. Allen, H. F. Schaefer, R. A. King, E. F. Valeev, C. D. Sherrill,
    and T. D. Crawford, WIREs Comput. Mol. Sci., (2011) (doi: 10.1002/wcms.93)

                         Additional Contributions by
    A. E. DePrince, M. Saitow, U. Bozkaya, A. Yu. Sokolov
    -----------------------------------------------------------------------

    Process ID:   8137
    PSI4DATADIR: /home/xzhu216/psi4/psi4-install/share/psi

    Using LocalCommunicator (Number of processes = 1)

    Memory level set to 256.000 MB

  ==> Input File <==

--------------------------------------------------------------------------
#psi4
#
memory 30 gb

molecule AcOH_Uracil {
0 1
    C    -1.113626115     1.327020095     0.275167055
    O    -0.467082641     2.349387782     0.461537462
    O    -0.578089388     0.136920485     0.049617473
    H     0.413320364     0.203256605     0.055487108
    C    -2.611424686     1.286189573     0.277361307
    H    -3.006648718     2.276885447     0.465789827
    H    -2.964256227     0.915258679    -0.682001232
    H    -2.953114211     0.591798210     1.041240412
--
0 1
    N     3.856333207     1.095749366     0.186699099
    H     4.249538320     0.180359137     0.014979672
    C     4.777861114     2.143864984     0.368152209
    O     5.975007499     1.925569176     0.315272246
    C     4.138795043     3.423327366     0.608759360
    H     4.758329807     4.290252244     0.760236634
    C     2.791710841     3.503317521     0.638140596
    H     2.268870650     4.431764522     0.813438805
    N     1.987980090     2.412635534     0.447734565
    H     0.963928260     2.482583226     0.471524826
    C     2.487912576     1.162412750     0.213562342
    O     1.775880130     0.172907863     0.040092162
units angstrom
no_reorient  #important for SAPT in psi4, default
symmetry c1  #important for SAPT in psi4, default
}

set {
basis aug-cc-pVTZ
scf_type DF
freeze_core True
}
energy('sapt2+')
--------------------------------------------------------------------------

  Memory set to  30.000 GiB by Python script.

  //>>>>>>>>>>>>>>>>>>>>>>>>>>>>>>>>>>>//
  //              Dimer HF             //
  //<<<<<<<<<<<<<<<<<<<<<<<<<<<<<<<<<<<//


  No DF_BASIS_SCF auxiliary basis selected, defaulting to aug-cc-pvtz-jkfit


*** tstart() called on node32.bme.utexas.edu
*** at Thu Feb 20 21:03:02 2014


         ---------------------------------------------------------
                                   SCF
            by Justin Turney, Rob Parrish, and Andy Simmonett
                              RHF Reference
                        4 Threads,  30000 MiB Core
         ---------------------------------------------------------

  ==> Geometry <==

    Molecular point group: c1
    Full point group: C1

    Geometry (in Angstrom), charge = 0, multiplicity = 1:

       Center              X                  Y                   Z       
    ------------   -----------------  -----------------  -----------------
           C         -2.964905105368    -0.370801242645    -0.040333373069
           O         -2.318361631368     0.651566444355     0.146037033931
           O         -2.429368378368    -1.560900852645    -0.265882955069
           H         -1.437958626368    -1.494564732645    -0.260013320069
           C         -4.462703676368    -0.411631764645    -0.038139121069
           H         -4.857927708368     0.579064109355     0.150289398931
           H         -4.815535217368    -0.782562658645    -0.997501660069
           H         -4.804393201368    -1.106023127645     0.725739983931
           N          2.005054216632    -0.602071971645    -0.128801329069
           H          2.398259329632    -1.517462200645    -0.300520756069
           C          2.926582123632     0.446043646355     0.052651780931
           O          4.123728508632     0.227747838355    -0.000228182069
           C          2.287516052632     1.725506028355     0.293258931931
           H          2.907050816632     2.592430906355     0.444736205931
           C          0.940431850632     1.805496183355     0.322640167931
           H          0.417591659632     2.733943184355     0.497938376931
           N          0.136701099632     0.714814196355     0.132234136931
           H         -0.887350730368     0.784761888355     0.156024397931
           C          0.636633585632    -0.535408587645    -0.101938086069
           O         -0.075398860368    -1.524913474645    -0.275408266069

  Running in c1 symmetry.

  Nuclear repulsion =  702.686207427316617

  Charge       = 0
  Multiplicity = 1
  Electrons    = 90
  Nalpha       = 45
  Nbeta        = 45

  ==> Algorithm <==

  SCF Algorithm Type is DF.
  DIIS enabled.
  MOM disabled.
  Fractional occupation disabled.
  Guess Type is CORE.
  Energy threshold   = 1.00e-08
  Density threshold  = 1.00e-08
  Integral threshold = 0.00e+00

  ==> Primary Basis <==

  Basis Set: AUG-CC-PVTZ
    Number of shells: 240
    Number of basis function: 736
    Number of Cartesian functions: 860
    Spherical Harmonics?: true
    Max angular momentum: 3

  ==> Pre-Iterations <==

   -------------------------------------------------------
    Irrep   Nso     Nmo     Nalpha   Nbeta   Ndocc  Nsocc
   -------------------------------------------------------
     A        736     736       0       0       0       0
   -------------------------------------------------------
    Total     736     736      45      45      45       0
   -------------------------------------------------------

 OEINTS: Wrapper to libmints.
   by Justin Turney

   Calculation information:
      Number of atoms:                  20
      Number of AO shells:             240
      Number of SO shells:             240
      Number of primitives:            448
      Number of atomic orbitals:       860
      Number of basis functions:       736

      Number of irreps:                  1
      Number of functions per irrep: [ 736 ]

      Overlap, kinetic, potential, dipole, and quadrupole integrals
        stored in file 35.

  ==> Integral Setup <==

  ==> DFJK: Density-Fitted J/K Matrices <==

    J tasked:                  Yes
    K tasked:                  Yes
    wK tasked:                  No
    OpenMP threads:              4
    Integrals threads:           4
    Memory (MB):             21457
    Algorithm:                Core
    Integral Cache:           SAVE
    Schwarz Cutoff:          0E+00
    Fitting Condition:       1E-12

   => Auxiliary Basis Set <=

  Basis Set: aug-cc-pvtz-jkfit
    Number of shells: 472
    Number of basis function: 1616
    Number of Cartesian functions: 2012
    Spherical Harmonics?: true
    Max angular momentum: 4

  Minimum eigenvalue in the overlap matrix is 2.2108492835E-06.
  Using Symmetric Orthogonalization.
  SCF Guess: Core (One-Electron) Hamiltonian.

  Guess energy:  -523.13944438059991

  ==> Iterations <==

                        Total Energy        Delta E     RMS |[F,P]|

   @RHF iter   1:  -465.89300311014506   -4.65893e+02   2.85205e-02 
   @RHF iter   2:  -313.24635987941099    1.52647e+02   2.19127e-02 DIIS
   @RHF iter   3:  -521.68611258882413   -2.08440e+02   1.54350e-02 DIIS
   @RHF iter   4:  -513.88667130596457    7.79944e+00   1.79480e-02 DIIS
   @RHF iter   5:  -540.81435737981303   -2.69277e+01   1.16386e-02 DIIS
   @RHF iter   6:  -453.76319740579959    8.70512e+01   1.76170e-02 DIIS
   @RHF iter   7:  -555.50794873898246   -1.01745e+02   1.23819e-02 DIIS
   @RHF iter   8:  -628.39703874459349   -7.28891e+01   5.40131e-03 DIIS
   @RHF iter   9:  -639.97164408230685   -1.15746e+01   1.43235e-03 DIIS
   @RHF iter  10:  -640.41534323626649   -4.43699e-01   6.24582e-04 DIIS
   @RHF iter  11:  -640.51703486203644   -1.01692e-01   1.57079e-04 DIIS
   @RHF iter  12:  -640.52861245517818   -1.15776e-02   7.33940e-05 DIIS
   @RHF iter  13:  -640.53114545446431   -2.53300e-03   2.99985e-05 DIIS
   @RHF iter  14:  -640.53189251125752   -7.47057e-04   1.55978e-05 DIIS
   @RHF iter  15:  -640.53208703741996   -1.94526e-04   8.21313e-06 DIIS
   @RHF iter  16:  -640.53213703022550   -4.99928e-05   3.18945e-06 DIIS
   @RHF iter  17:  -640.53214244306776   -5.41284e-06   1.02755e-06 DIIS
   @RHF iter  18:  -640.53214288924198   -4.46174e-07   3.05041e-07 DIIS
   @RHF iter  19:  -640.53214293248709   -4.32451e-08   1.08436e-07 DIIS
   @RHF iter  20:  -640.53214293832900   -5.84191e-09   3.95700e-08 DIIS
   @RHF iter  21:  -640.53214293930239   -9.73387e-10   1.37989e-08 DIIS
   @RHF iter  22:  -640.53214293943313   -1.30740e-10   5.22141e-09 DIIS

  ==> Post-Iterations <==

	Orbital Energies (a.u.)
	-----------------------

	Doubly Occupied:                                                      

	   1A    -20.581335     2A    -20.566009     3A    -20.563871  
	   4A    -20.540473     5A    -15.633519     6A    -15.614393  
	   7A    -11.430186     8A    -11.402328     9A    -11.380005  
	  10A    -11.330730    11A    -11.248717    12A    -11.246295  
	  13A     -1.474540    14A     -1.447781    15A     -1.400918  
	  16A     -1.370838    17A     -1.311639    18A     -1.245882  
	  19A     -1.083698    20A     -1.034615    21A     -0.930000  
	  22A     -0.911826    23A     -0.833100    24A     -0.825246  
	  25A     -0.770172    26A     -0.740771    27A     -0.700650  
	  28A     -0.699149    29A     -0.677306    30A     -0.675079  
	  31A     -0.652812    32A     -0.647441    33A     -0.607651  
	  34A     -0.604513    35A     -0.582325    36A     -0.575289  
	  37A     -0.569525    38A     -0.559051    39A     -0.525207  
	  40A     -0.496447    41A     -0.489873    42A     -0.465021  
	  43A     -0.450036    44A     -0.449293    45A     -0.362382  

	Virtual:                                                              

	  46A      0.022194    47A      0.029821    48A      0.036842  
	  49A      0.043037    50A      0.044047    51A      0.050858  
	  52A      0.057598    53A      0.064354    54A      0.068786  
	  55A      0.081996    56A      0.087717    57A      0.092929  
	  58A      0.101026    59A      0.104210    60A      0.105441  
	  61A      0.115049    62A      0.115186    63A      0.119934  
	  64A      0.122275    65A      0.126346    66A      0.130736  
	  67A      0.132809    68A      0.140312    69A      0.141000  
	  70A      0.144196    71A      0.147228    72A      0.150183  
	  73A      0.151821    74A      0.162112    75A      0.164323  
	  76A      0.180294    77A      0.183248    78A      0.184776  
	  79A      0.194594    80A      0.199740    81A      0.202323  
	  82A      0.209731    83A      0.215049    84A      0.217757  
	  85A      0.221451    86A      0.230717    87A      0.235439  
	  88A      0.248433    89A      0.250400    90A      0.252368  
	  91A      0.257209    92A      0.263621    93A      0.273655  
	  94A      0.280547    95A      0.283969    96A      0.288827  
	  97A      0.290911    98A      0.291685    99A      0.292675  
	 100A      0.297139   101A      0.298423   102A      0.309040  
	 103A      0.316715   104A      0.326363   105A      0.329041  
	 106A      0.329214   107A      0.331338   108A      0.338554  
	 109A      0.342870   110A      0.345616   111A      0.346887  
	 112A      0.350219   113A      0.355616   114A      0.359430  
	 115A      0.373242   116A      0.381069   117A      0.382937  
	 118A      0.383818   119A      0.388849   120A      0.398743  
	 121A      0.407882   122A      0.414332   123A      0.418951  
	 124A      0.420208   125A      0.423317   126A      0.429083  
	 127A      0.430474   128A      0.432959   129A      0.437468  
	 130A      0.446710   131A      0.447384   132A      0.448998  
	 133A      0.458721   134A      0.462054   135A      0.462500  
	 136A      0.471136   137A      0.475256   138A      0.475922  
	 139A      0.480424   140A      0.486450   141A      0.491017  
	 142A      0.495740   143A      0.496382   144A      0.501094  
	 145A      0.516195   146A      0.517632   147A      0.524086  
	 148A      0.526174   149A      0.529997   150A      0.531186  
	 151A      0.533775   152A      0.544097   153A      0.544447  
	 154A      0.559422   155A      0.572044   156A      0.572566  
	 157A      0.575223   158A      0.582212   159A      0.597184  
	 160A      0.601156   161A      0.601443   162A      0.615302  
	 163A      0.616838   164A      0.617069   165A      0.628738  
	 166A      0.638677   167A      0.644079   168A      0.652599  
	 169A      0.654178   170A      0.655978   171A      0.663409  
	 172A      0.665877   173A      0.680564   174A      0.689759  
	 175A      0.690598   176A      0.690905   177A      0.710351  
	 178A      0.712006   179A      0.729369   180A      0.741161  
	 181A      0.749569   182A      0.750288   183A      0.763220  
	 184A      0.769389   185A      0.777742   186A      0.780082  
	 187A      0.784498   188A      0.785703   189A      0.790725  
	 190A      0.796840   191A      0.802480   192A      0.809199  
	 193A      0.821852   194A      0.823152   195A      0.826509  
	 196A      0.829039   197A      0.838013   198A      0.840283  
	 199A      0.847453   200A      0.850068   201A      0.857369  
	 202A      0.869418   203A      0.874373   204A      0.879874  
	 205A      0.882795   206A      0.890853   207A      0.895322  
	 208A      0.899133   209A      0.903595   210A      0.911575  
	 211A      0.920119   212A      0.929324   213A      0.929622  
	 214A      0.934824   215A      0.943669   216A      0.953144  
	 217A      0.953849   218A      0.958719   219A      0.959825  
	 220A      0.968132   221A      0.970782   222A      0.975889  
	 223A      0.992371   224A      0.993853   225A      0.998974  
	 226A      1.004046   227A      1.007509   228A      1.010519  
	 229A      1.013024   230A      1.018368   231A      1.018748  
	 232A      1.029300   233A      1.031529   234A      1.031813  
	 235A      1.052978   236A      1.053797   237A      1.070711  
	 238A      1.077043   239A      1.083879   240A      1.084118  
	 241A      1.090568   242A      1.099802   243A      1.105483  
	 244A      1.106814   245A      1.119437   246A      1.126382  
	 247A      1.132371   248A      1.139610   249A      1.144514  
	 250A      1.146227   251A      1.153476   252A      1.165236  
	 253A      1.167538   254A      1.169602   255A      1.174298  
	 256A      1.178301   257A      1.190566   258A      1.192341  
	 259A      1.204758   260A      1.206949   261A      1.213074  
	 262A      1.215328   263A      1.227277   264A      1.242173  
	 265A      1.242608   266A      1.251988   267A      1.253065  
	 268A      1.257685   269A      1.265177   270A      1.269200  
	 271A      1.284750   272A      1.287980   273A      1.300373  
	 274A      1.310817   275A      1.314325   276A      1.322905  
	 277A      1.330126   278A      1.345167   279A      1.355055  
	 280A      1.361470   281A      1.368084   282A      1.374698  
	 283A      1.375592   284A      1.381058   285A      1.399440  
	 286A      1.412760   287A      1.418267   288A      1.425395  
	 289A      1.432827   290A      1.443475   291A      1.453302  
	 292A      1.461420   293A      1.465139   294A      1.477457  
	 295A      1.482002   296A      1.485353   297A      1.490399  
	 298A      1.492156   299A      1.505795   300A      1.516807  
	 301A      1.520966   302A      1.531573   303A      1.533232  
	 304A      1.548308   305A      1.555603   306A      1.556050  
	 307A      1.566031   308A      1.571195   309A      1.587446  
	 310A      1.588929   311A      1.600937   312A      1.603581  
	 313A      1.606902   314A      1.620788   315A      1.622772  
	 316A      1.637253   317A      1.637669   318A      1.645976  
	 319A      1.651094   320A      1.665059   321A      1.672629  
	 322A      1.680928   323A      1.690317   324A      1.696759  
	 325A      1.701116   326A      1.710326   327A      1.716441  
	 328A      1.729920   329A      1.738099   330A      1.744145  
	 331A      1.752715   332A      1.759989   333A      1.765704  
	 334A      1.766043   335A      1.786561   336A      1.793127  
	 337A      1.794692   338A      1.798533   339A      1.813783  
	 340A      1.815255   341A      1.842895   342A      1.857014  
	 343A      1.869474   344A      1.888065   345A      1.899814  
	 346A      1.900412   347A      1.904981   348A      1.909064  
	 349A      1.912131   350A      1.921723   351A      1.930486  
	 352A      1.934562   353A      1.949653   354A      1.953943  
	 355A      1.954185   356A      1.971580   357A      1.981892  
	 358A      1.986549   359A      2.007966   360A      2.027818  
	 361A      2.037384   362A      2.054896   363A      2.068612  
	 364A      2.071377   365A      2.117371   366A      2.125263  
	 367A      2.130802   368A      2.142626   369A      2.147149  
	 370A      2.157751   371A      2.158128   372A      2.167394  
	 373A      2.177046   374A      2.181891   375A      2.201350  
	 376A      2.202988   377A      2.211657   378A      2.212715  
	 379A      2.234955   380A      2.241493   381A      2.277396  
	 382A      2.284536   383A      2.287161   384A      2.300447  
	 385A      2.306242   386A      2.316815   387A      2.334065  
	 388A      2.344112   389A      2.356349   390A      2.378175  
	 391A      2.379201   392A      2.406794   393A      2.407128  
	 394A      2.413247   395A      2.454484   396A      2.455242  
	 397A      2.484668   398A      2.487826   399A      2.504627  
	 400A      2.511585   401A      2.513972   402A      2.521427  
	 403A      2.535496   404A      2.535785   405A      2.541450  
	 406A      2.542291   407A      2.571136   408A      2.585802  
	 409A      2.596264   410A      2.613229   411A      2.615939  
	 412A      2.627295   413A      2.628520   414A      2.642433  
	 415A      2.666353   416A      2.668713   417A      2.671718  
	 418A      2.693381   419A      2.696519   420A      2.703928  
	 421A      2.712756   422A      2.719524   423A      2.752779  
	 424A      2.762084   425A      2.765743   426A      2.776512  
	 427A      2.787022   428A      2.796279   429A      2.798790  
	 430A      2.816106   431A      2.849307   432A      2.852266  
	 433A      2.859258   434A      2.863279   435A      2.867052  
	 436A      2.897183   437A      2.909671   438A      2.926964  
	 439A      2.929205   440A      2.938273   441A      2.958792  
	 442A      2.963690   443A      2.975875   444A      2.986559  
	 445A      2.991553   446A      3.014362   447A      3.021724  
	 448A      3.031759   449A      3.050743   450A      3.078133  
	 451A      3.095690   452A      3.096535   453A      3.114453  
	 454A      3.136352   455A      3.182222   456A      3.192891  
	 457A      3.217232   458A      3.221583   459A      3.243475  
	 460A      3.247034   461A      3.250739   462A      3.281037  
	 463A      3.286099   464A      3.302445   465A      3.303404  
	 466A      3.319806   467A      3.321178   468A      3.339867  
	 469A      3.348085   470A      3.376329   471A      3.380740  
	 472A      3.397774   473A      3.408732   474A      3.418383  
	 475A      3.441814   476A      3.449330   477A      3.492518  
	 478A      3.497913   479A      3.498961   480A      3.534920  
	 481A      3.538148   482A      3.558723   483A      3.568040  
	 484A      3.568787   485A      3.600939   486A      3.606806  
	 487A      3.608855   488A      3.622272   489A      3.633324  
	 490A      3.639604   491A      3.653573   492A      3.675996  
	 493A      3.676416   494A      3.690188   495A      3.696458  
	 496A      3.723384   497A      3.740667   498A      3.767539  
	 499A      3.778124   500A      3.778735   501A      3.788039  
	 502A      3.802042   503A      3.804769   504A      3.819900  
	 505A      3.830876   506A      3.846375   507A      3.876862  
	 508A      3.885616   509A      3.890331   510A      3.904658  
	 511A      3.930340   512A      3.937668   513A      3.938348  
	 514A      3.939340   515A      3.976846   516A      3.987035  
	 517A      3.996750   518A      3.999678   519A      4.007407  
	 520A      4.032937   521A      4.044864   522A      4.066814  
	 523A      4.072245   524A      4.087634   525A      4.097212  
	 526A      4.102037   527A      4.110419   528A      4.122940  
	 529A      4.124059   530A      4.144099   531A      4.149490  
	 532A      4.156073   533A      4.172298   534A      4.184635  
	 535A      4.201292   536A      4.204733   537A      4.246281  
	 538A      4.249443   539A      4.266493   540A      4.285126  
	 541A      4.295198   542A      4.304398   543A      4.317130  
	 544A      4.330018   545A      4.346401   546A      4.348888  
	 547A      4.380628   548A      4.385766   549A      4.393196  
	 550A      4.399539   551A      4.405013   552A      4.427266  
	 553A      4.442114   554A      4.465976   555A      4.468041  
	 556A      4.476971   557A      4.478087   558A      4.497828  
	 559A      4.505129   560A      4.526988   561A      4.528454  
	 562A      4.568011   563A      4.589365   564A      4.614997  
	 565A      4.622200   566A      4.638912   567A      4.680714  
	 568A      4.690120   569A      4.692645   570A      4.700168  
	 571A      4.703605   572A      4.731512   573A      4.738395  
	 574A      4.765115   575A      4.771541   576A      4.778483  
	 577A      4.792964   578A      4.802529   579A      4.804595  
	 580A      4.831046   581A      4.843030   582A      4.846446  
	 583A      4.859721   584A      4.863087   585A      4.908588  
	 586A      4.937237   587A      4.957438   588A      4.960732  
	 589A      4.968020   590A      5.007075   591A      5.013928  
	 592A      5.045500   593A      5.069394   594A      5.090875  
	 595A      5.099311   596A      5.110769   597A      5.125666  
	 598A      5.131739   599A      5.133663   600A      5.148862  
	 601A      5.159298   602A      5.171327   603A      5.178490  
	 604A      5.219310   605A      5.253482   606A      5.274020  
	 607A      5.279786   608A      5.282375   609A      5.288906  
	 610A      5.336173   611A      5.354300   612A      5.372059  
	 613A      5.373490   614A      5.437573   615A      5.450571  
	 616A      5.474304   617A      5.488532   618A      5.509371  
	 619A      5.531119   620A      5.537148   621A      5.538071  
	 622A      5.557176   623A      5.588520   624A      5.596016  
	 625A      5.610192   626A      5.636714   627A      5.650381  
	 628A      5.665872   629A      5.693309   630A      5.716927  
	 631A      5.744833   632A      5.745277   633A      5.794128  
	 634A      5.820877   635A      5.835566   636A      5.852633  
	 637A      5.872301   638A      5.893479   639A      5.910419  
	 640A      5.953568   641A      5.955333   642A      5.961818  
	 643A      6.036262   644A      6.059275   645A      6.068403  
	 646A      6.102523   647A      6.119412   648A      6.123911  
	 649A      6.124647   650A      6.138922   651A      6.161028  
	 652A      6.226206   653A      6.276179   654A      6.301888  
	 655A      6.330554   656A      6.334738   657A      6.346324  
	 658A      6.425955   659A      6.473598   660A      6.578232  
	 661A      6.588145   662A      6.668677   663A      6.675273  
	 664A      6.690037   665A      6.704163   666A      6.736055  
	 667A      6.759075   668A      6.776251   669A      6.835665  
	 670A      6.845309   671A      6.853169   672A      6.887340  
	 673A      6.892084   674A      6.899519   675A      6.911622  
	 676A      6.919069   677A      6.974527   678A      6.992516  
	 679A      7.015448   680A      7.026704   681A      7.064554  
	 682A      7.103517   683A      7.116511   684A      7.137553  
	 685A      7.150163   686A      7.157750   687A      7.162569  
	 688A      7.247780   689A      7.258555   690A      7.261845  
	 691A      7.312675   692A      7.324095   693A      7.394916  
	 694A      7.409044   695A      7.409591   696A      7.411851  
	 697A      7.474820   698A      7.476751   699A      7.513897  
	 700A      7.521551   701A      7.536138   702A      7.551451  
	 703A      7.633461   704A      7.660920   705A      7.690609  
	 706A      7.730717   707A      7.759024   708A      7.824441  
	 709A      7.836667   710A      7.859038   711A      7.891452  
	 712A      7.914441   713A      7.931681   714A      7.975021  
	 715A      7.999737   716A      8.065986   717A      8.143690  
	 718A      8.178296   719A      8.205859   720A      8.359830  
	 721A      8.396281   722A      8.788261   723A      8.880171  
	 724A      9.291426   725A     15.902505   726A     16.384358  
	 727A     16.639734   728A     16.764802   729A     17.299855  
	 730A     17.755914   731A     18.101947   732A     18.908218  
	 733A     19.987683   734A     20.088945   735A     20.767071  
	 736A     21.414470  

	Final Occupation by Irrep:
	          A 
	DOCC [    45 ]

  Energy converged.

  @RHF Final Energy:  -640.53214293943313

   => Energetics <=

    Nuclear Repulsion Energy =            702.6862074273166172
    One-Electron Energy =               -2271.0208150797211601
    Two-Electron Energy =                 927.8024647129684581
    DFT Exchange-Correlation Energy =       0.0000000000000000
    Empirical Dispersion Energy =           0.0000000000000000
    Total Energy =                       -640.5321429394359711



Properties will be evaluated at   0.000000,   0.000000,   0.000000 Bohr
  ==> Properties <==


Properties computed using the SCF density density matrix
  Nuclear Dipole Moment: (a.u.)
     X:   -10.3970      Y:     1.6668      Z:     0.3887

  Electronic Dipole Moment: (a.u.)
     X:     8.7973      Y:    -0.8860      Z:    -0.2324

  Dipole Moment: (a.u.)
     X:    -1.5997      Y:     0.7807      Z:     0.1563     Total:     1.7869

  Dipole Moment: (Debye)
     X:    -4.0661      Y:     1.9844      Z:     0.3973     Total:     4.5419


  Saving occupied orbitals to File 180.

  Saving SAPT 2-DIMER file.

*** tstop() called on node32.bme.utexas.edu at Thu Feb 20 21:12:01 2014
Module time:
	user time   =    1934.86 seconds =      32.25 minutes
	system time =      19.46 seconds =       0.32 minutes
	total time  =        539 seconds =       8.98 minutes
Total time:
	user time   =    1934.86 seconds =      32.25 minutes
	system time =      19.46 seconds =       0.32 minutes
	total time  =        539 seconds =       8.98 minutes

  //>>>>>>>>>>>>>>>>>>>>>>>>>>>>>>>>>>>//
  //            Monomer A HF           //
  //<<<<<<<<<<<<<<<<<<<<<<<<<<<<<<<<<<<//


  No DF_BASIS_SCF auxiliary basis selected, defaulting to aug-cc-pvtz-jkfit


*** tstart() called on node32.bme.utexas.edu
*** at Thu Feb 20 21:12:01 2014


         ---------------------------------------------------------
                                   SCF
            by Justin Turney, Rob Parrish, and Andy Simmonett
                              RHF Reference
                        4 Threads,  30000 MiB Core
         ---------------------------------------------------------

  ==> Geometry <==

    Molecular point group: c1
    Full point group: C1

    Geometry (in Angstrom), charge = 0, multiplicity = 1:

       Center              X                  Y                   Z       
    ------------   -----------------  -----------------  -----------------
           C         -2.964905105368    -0.370801242645    -0.040333373069
           O         -2.318361631368     0.651566444355     0.146037033931
           O         -2.429368378368    -1.560900852645    -0.265882955069
           H         -1.437958626368    -1.494564732645    -0.260013320069
           C         -4.462703676368    -0.411631764645    -0.038139121069
           H         -4.857927708368     0.579064109355     0.150289398931
           H         -4.815535217368    -0.782562658645    -0.997501660069
           H         -4.804393201368    -1.106023127645     0.725739983931
           N(Gh)      2.005054216632    -0.602071971645    -0.128801329069
           H(Gh)      2.398259329632    -1.517462200645    -0.300520756069
           C(Gh)      2.926582123632     0.446043646355     0.052651780931
           O(Gh)      4.123728508632     0.227747838355    -0.000228182069
           C(Gh)      2.287516052632     1.725506028355     0.293258931931
           H(Gh)      2.907050816632     2.592430906355     0.444736205931
           C(Gh)      0.940431850632     1.805496183355     0.322640167931
           H(Gh)      0.417591659632     2.733943184355     0.497938376931
           N(Gh)      0.136701099632     0.714814196355     0.132234136931
           H(Gh)     -0.887350730368     0.784761888355     0.156024397931
           C(Gh)      0.636633585632    -0.535408587645    -0.101938086069
           O(Gh)     -0.075398860368    -1.524913474645    -0.275408266069

  Running in c1 symmetry.

  Nuclear repulsion =  121.306063648595014

  Charge       = 0
  Multiplicity = 1
  Electrons    = 32
  Nalpha       = 16
  Nbeta        = 16

  ==> Algorithm <==

  SCF Algorithm Type is DF.
  DIIS enabled.
  MOM disabled.
  Fractional occupation disabled.
  Guess Type is CORE.
  Energy threshold   = 1.00e-08
  Density threshold  = 1.00e-08
  Integral threshold = 0.00e+00

  ==> Primary Basis <==

  Basis Set: AUG-CC-PVTZ
    Number of shells: 240
    Number of basis function: 736
    Number of Cartesian functions: 860
    Spherical Harmonics?: true
    Max angular momentum: 3

  ==> Pre-Iterations <==

   -------------------------------------------------------
    Irrep   Nso     Nmo     Nalpha   Nbeta   Ndocc  Nsocc
   -------------------------------------------------------
     A        736     736       0       0       0       0
   -------------------------------------------------------
    Total     736     736      16      16      16       0
   -------------------------------------------------------

 OEINTS: Wrapper to libmints.
   by Justin Turney

   Calculation information:
      Number of atoms:                  20
      Number of AO shells:             240
      Number of SO shells:             240
      Number of primitives:            448
      Number of atomic orbitals:       860
      Number of basis functions:       736

      Number of irreps:                  1
      Number of functions per irrep: [ 736 ]

      Overlap, kinetic, potential, dipole, and quadrupole integrals
        stored in file 35.

  ==> Integral Setup <==

  ==> DFJK: Density-Fitted J/K Matrices <==

    J tasked:                  Yes
    K tasked:                  Yes
    wK tasked:                  No
    OpenMP threads:              4
    Integrals threads:           4
    Memory (MB):             21457
    Algorithm:                Core
    Integral Cache:           LOAD
    Schwarz Cutoff:          0E+00
    Fitting Condition:       1E-12

   => Auxiliary Basis Set <=

  Basis Set: aug-cc-pvtz-jkfit
    Number of shells: 472
    Number of basis function: 1616
    Number of Cartesian functions: 2012
    Spherical Harmonics?: true
    Max angular momentum: 4

  Minimum eigenvalue in the overlap matrix is 2.2108492835E-06.
  Using Symmetric Orthogonalization.
  SCF Guess: Core (One-Electron) Hamiltonian.

  Guess energy:  -183.33298660942455

  ==> Iterations <==

                        Total Energy        Delta E     RMS |[F,P]|

   @RHF iter   1:  -170.64743298544266   -1.70647e+02   1.79315e-02 
   @RHF iter   2:  -145.27729791888044    2.53701e+01   1.05801e-02 DIIS
   @RHF iter   3:  -199.96138160651765   -5.46841e+01   7.85267e-03 DIIS
   @RHF iter   4:  -224.70276164029389   -2.47414e+01   3.54249e-03 DIIS
   @RHF iter   5:  -227.35925346542649   -2.65649e+00   1.62863e-03 DIIS
   @RHF iter   6:  -227.85831522584124   -4.99062e-01   4.22031e-04 DIIS
   @RHF iter   7:  -227.89486889262133   -3.65537e-02   1.61988e-04 DIIS
   @RHF iter   8:  -227.90181560417835   -6.94671e-03   4.57280e-05 DIIS
   @RHF iter   9:  -227.90286384840260   -1.04824e-03   1.34219e-05 DIIS
   @RHF iter  10:  -227.90302227587148   -1.58427e-04   4.87107e-06 DIIS
   @RHF iter  11:  -227.90303938406311   -1.71082e-05   1.82549e-06 DIIS
   @RHF iter  12:  -227.90304177439640   -2.39033e-06   5.81381e-07 DIIS
   @RHF iter  13:  -227.90304199616992   -2.21774e-07   1.83345e-07 DIIS
   @RHF iter  14:  -227.90304201926682   -2.30969e-08   4.27755e-08 DIIS
   @RHF iter  15:  -227.90304202059730   -1.33048e-09   1.24571e-08 DIIS
   @RHF iter  16:  -227.90304202069785   -1.00556e-10   3.01028e-09 DIIS

  ==> Post-Iterations <==

	Orbital Energies (a.u.)
	-----------------------

	Doubly Occupied:                                                      

	   1A    -20.624421     2A    -20.545295     3A    -11.389418  
	   4A    -11.243433     5A     -1.470622     6A     -1.355024  
	   7A     -1.028345     8A     -0.835059     9A     -0.704356  
	  10A     -0.681969    11A     -0.655829    12A     -0.580098  
	  13A     -0.571888    14A     -0.564605    15A     -0.477980  
	  16A     -0.452261  

	Virtual:                                                              

	  17A      0.019194    18A      0.028388    19A      0.033651  
	  20A      0.043380    21A      0.045970    22A      0.049024  
	  23A      0.061641    24A      0.061723    25A      0.064011  
	  26A      0.074659    27A      0.081694    28A      0.096336  
	  29A      0.097097    30A      0.099812    31A      0.103707  
	  32A      0.110454    33A      0.112023    34A      0.120730  
	  35A      0.123063    36A      0.125241    37A      0.131634  
	  38A      0.134218    39A      0.141808    40A      0.142033  
	  41A      0.149815    42A      0.154475    43A      0.160978  
	  44A      0.162667    45A      0.165163    46A      0.178824  
	  47A      0.180745    48A      0.182560    49A      0.184424  
	  50A      0.187732    51A      0.194798    52A      0.200060  
	  53A      0.208248    54A      0.209008    55A      0.209853  
	  56A      0.223298    57A      0.229171    58A      0.230881  
	  59A      0.233973    60A      0.247418    61A      0.252188  
	  62A      0.255457    63A      0.260663    64A      0.263049  
	  65A      0.268129    66A      0.279491    67A      0.281420  
	  68A      0.288349    69A      0.299265    70A      0.304807  
	  71A      0.305597    72A      0.313794    73A      0.324063  
	  74A      0.324716    75A      0.327131    76A      0.332398  
	  77A      0.340830    78A      0.343432    79A      0.347669  
	  80A      0.353823    81A      0.358570    82A      0.358868  
	  83A      0.365751    84A      0.371236    85A      0.371977  
	  86A      0.375285    87A      0.380640    88A      0.396388  
	  89A      0.400066    90A      0.400746    91A      0.404797  
	  92A      0.409566    93A      0.412123    94A      0.416076  
	  95A      0.419635    96A      0.420689    97A      0.426397  
	  98A      0.426815    99A      0.430669   100A      0.431299  
	 101A      0.438642   102A      0.441474   103A      0.455090  
	 104A      0.463114   105A      0.466748   106A      0.469050  
	 107A      0.474737   108A      0.476285   109A      0.477106  
	 110A      0.487842   111A      0.494208   112A      0.500442  
	 113A      0.503705   114A      0.515561   115A      0.520474  
	 116A      0.522956   117A      0.527464   118A      0.530272  
	 119A      0.539145   120A      0.547106   121A      0.554944  
	 122A      0.567669   123A      0.572216   124A      0.575192  
	 125A      0.585423   126A      0.590633   127A      0.591497  
	 128A      0.598695   129A      0.605011   130A      0.612817  
	 131A      0.619665   132A      0.622126   133A      0.635374  
	 134A      0.642766   135A      0.648850   136A      0.656378  
	 137A      0.660671   138A      0.668981   139A      0.681954  
	 140A      0.691013   141A      0.691992   142A      0.701833  
	 143A      0.705608   144A      0.714300   145A      0.733422  
	 146A      0.733635   147A      0.742669   148A      0.763598  
	 149A      0.771679   150A      0.773328   151A      0.775366  
	 152A      0.792318   153A      0.793143   154A      0.802396  
	 155A      0.802615   156A      0.805949   157A      0.811637  
	 158A      0.817072   159A      0.823846   160A      0.825312  
	 161A      0.826530   162A      0.834504   163A      0.845654  
	 164A      0.848159   165A      0.853903   166A      0.863515  
	 167A      0.865137   168A      0.867882   169A      0.872901  
	 170A      0.875676   171A      0.892159   172A      0.893717  
	 173A      0.896868   174A      0.898616   175A      0.907732  
	 176A      0.917657   177A      0.918380   178A      0.920269  
	 179A      0.929186   180A      0.935855   181A      0.943773  
	 182A      0.945666   183A      0.950711   184A      0.958385  
	 185A      0.967836   186A      0.968908   187A      0.978700  
	 188A      0.984537   189A      0.991941   190A      0.993289  
	 191A      1.006216   192A      1.008020   193A      1.013974  
	 194A      1.019081   195A      1.025685   196A      1.031241  
	 197A      1.040400   198A      1.041622   199A      1.043484  
	 200A      1.055651   201A      1.059627   202A      1.065593  
	 203A      1.067240   204A      1.074369   205A      1.085177  
	 206A      1.097057   207A      1.099387   208A      1.101056  
	 209A      1.106076   210A      1.119795   211A      1.120059  
	 212A      1.122484   213A      1.133556   214A      1.139949  
	 215A      1.141553   216A      1.152879   217A      1.157553  
	 218A      1.159898   219A      1.163716   220A      1.175601  
	 221A      1.177480   222A      1.190933   223A      1.202868  
	 224A      1.207668   225A      1.211096   226A      1.215586  
	 227A      1.230980   228A      1.232065   229A      1.241278  
	 230A      1.248922   231A      1.253263   232A      1.255226  
	 233A      1.273389   234A      1.275318   235A      1.293748  
	 236A      1.302773   237A      1.311472   238A      1.320197  
	 239A      1.321860   240A      1.329171   241A      1.337086  
	 242A      1.342021   243A      1.354122   244A      1.359918  
	 245A      1.362681   246A      1.378731   247A      1.386578  
	 248A      1.389027   249A      1.396453   250A      1.412753  
	 251A      1.422338   252A      1.433256   253A      1.449332  
	 254A      1.456262   255A      1.466073   256A      1.469125  
	 257A      1.489933   258A      1.494111   259A      1.500260  
	 260A      1.506341   261A      1.512983   262A      1.521610  
	 263A      1.529625   264A      1.535572   265A      1.539750  
	 266A      1.552558   267A      1.556249   268A      1.563121  
	 269A      1.578364   270A      1.586211   271A      1.592573  
	 272A      1.603926   273A      1.615687   274A      1.617753  
	 275A      1.631133   276A      1.644573   277A      1.650736  
	 278A      1.654896   279A      1.666083   280A      1.670653  
	 281A      1.672769   282A      1.677999   283A      1.694101  
	 284A      1.700103   285A      1.702821   286A      1.713696  
	 287A      1.717831   288A      1.723964   289A      1.727962  
	 290A      1.734419   291A      1.741704   292A      1.751114  
	 293A      1.763045   294A      1.763885   295A      1.768723  
	 296A      1.786456   297A      1.792096   298A      1.795083  
	 299A      1.806235   300A      1.810231   301A      1.822036  
	 302A      1.826706   303A      1.835558   304A      1.836537  
	 305A      1.855249   306A      1.871863   307A      1.881006  
	 308A      1.891600   309A      1.893039   310A      1.898516  
	 311A      1.900795   312A      1.924103   313A      1.924337  
	 314A      1.937190   315A      1.939096   316A      1.945177  
	 317A      1.950709   318A      1.952730   319A      1.962262  
	 320A      1.981048   321A      1.988753   322A      1.991074  
	 323A      2.002488   324A      2.016267   325A      2.031005  
	 326A      2.035616   327A      2.051826   328A      2.065679  
	 329A      2.070624   330A      2.091047   331A      2.103620  
	 332A      2.118919   333A      2.126058   334A      2.143347  
	 335A      2.148256   336A      2.154334   337A      2.176599  
	 338A      2.184720   339A      2.192417   340A      2.209870  
	 341A      2.219755   342A      2.224178   343A      2.249580  
	 344A      2.252117   345A      2.268012   346A      2.281249  
	 347A      2.286353   348A      2.288753   349A      2.304666  
	 350A      2.315279   351A      2.341269   352A      2.345518  
	 353A      2.349595   354A      2.367640   355A      2.374003  
	 356A      2.378892   357A      2.400376   358A      2.426750  
	 359A      2.431672   360A      2.445692   361A      2.480334  
	 362A      2.487024   363A      2.489512   364A      2.506071  
	 365A      2.520509   366A      2.532981   367A      2.540665  
	 368A      2.550996   369A      2.575839   370A      2.585590  
	 371A      2.590849   372A      2.596440   373A      2.605514  
	 374A      2.625587   375A      2.627167   376A      2.636633  
	 377A      2.647334   378A      2.657118   379A      2.671861  
	 380A      2.676837   381A      2.688077   382A      2.691427  
	 383A      2.711535   384A      2.732745   385A      2.745497  
	 386A      2.759596   387A      2.759868   388A      2.760468  
	 389A      2.776702   390A      2.781460   391A      2.786175  
	 392A      2.801498   393A      2.820897   394A      2.830036  
	 395A      2.836548   396A      2.849415   397A      2.854264  
	 398A      2.857319   399A      2.887301   400A      2.895593  
	 401A      2.901741   402A      2.921601   403A      2.924644  
	 404A      2.935537   405A      2.951852   406A      2.972283  
	 407A      2.977625   408A      2.984394   409A      2.991175  
	 410A      3.001073   411A      3.006104   412A      3.021129  
	 413A      3.055448   414A      3.070146   415A      3.072304  
	 416A      3.075267   417A      3.084070   418A      3.111703  
	 419A      3.120436   420A      3.135689   421A      3.160870  
	 422A      3.178877   423A      3.189157   424A      3.206122  
	 425A      3.218189   426A      3.251047   427A      3.265507  
	 428A      3.267902   429A      3.275219   430A      3.290683  
	 431A      3.299922   432A      3.307144   433A      3.322116  
	 434A      3.328045   435A      3.334875   436A      3.359124  
	 437A      3.379652   438A      3.418247   439A      3.433349  
	 440A      3.440408   441A      3.469027   442A      3.476162  
	 443A      3.488651   444A      3.513748   445A      3.559956  
	 446A      3.560906   447A      3.586044   448A      3.607624  
	 449A      3.620314   450A      3.637106   451A      3.642905  
	 452A      3.662922   453A      3.666932   454A      3.690534  
	 455A      3.694068   456A      3.697711   457A      3.720509  
	 458A      3.727404   459A      3.728416   460A      3.739916  
	 461A      3.778914   462A      3.845715   463A      3.858654  
	 464A      3.876371   465A      3.889254   466A      3.901496  
	 467A      3.915864   468A      3.932677   469A      3.954092  
	 470A      3.969153   471A      3.984521   472A      4.017898  
	 473A      4.019560   474A      4.047534   475A      4.051556  
	 476A      4.067139   477A      4.069845   478A      4.080329  
	 479A      4.082281   480A      4.103894   481A      4.135414  
	 482A      4.145852   483A      4.147398   484A      4.150412  
	 485A      4.157629   486A      4.166509   487A      4.201047  
	 488A      4.212495   489A      4.214113   490A      4.220457  
	 491A      4.227819   492A      4.262127   493A      4.266076  
	 494A      4.283630   495A      4.312138   496A      4.333891  
	 497A      4.338740   498A      4.359192   499A      4.380135  
	 500A      4.395105   501A      4.403540   502A      4.413660  
	 503A      4.431452   504A      4.455248   505A      4.472574  
	 506A      4.494722   507A      4.495939   508A      4.517373  
	 509A      4.531679   510A      4.541050   511A      4.567440  
	 512A      4.587721   513A      4.602099   514A      4.627787  
	 515A      4.634007   516A      4.670783   517A      4.682862  
	 518A      4.683510   519A      4.704951   520A      4.705731  
	 521A      4.741774   522A      4.752254   523A      4.755835  
	 524A      4.802121   525A      4.805311   526A      4.805694  
	 527A      4.836296   528A      4.846483   529A      4.847197  
	 530A      4.856262   531A      4.874977   532A      4.882865  
	 533A      4.912325   534A      4.917871   535A      4.931453  
	 536A      4.951937   537A      4.958987   538A      4.972841  
	 539A      5.003915   540A      5.014228   541A      5.027166  
	 542A      5.028506   543A      5.035067   544A      5.056505  
	 545A      5.070745   546A      5.071474   547A      5.094466  
	 548A      5.098340   549A      5.113221   550A      5.139313  
	 551A      5.144719   552A      5.153208   553A      5.167922  
	 554A      5.205669   555A      5.209028   556A      5.229397  
	 557A      5.270315   558A      5.282037   559A      5.282775  
	 560A      5.309559   561A      5.337304   562A      5.338983  
	 563A      5.366834   564A      5.373451   565A      5.401468  
	 566A      5.404780   567A      5.427933   568A      5.472573  
	 569A      5.476375   570A      5.507146   571A      5.539875  
	 572A      5.542382   573A      5.559473   574A      5.564796  
	 575A      5.619177   576A      5.635694   577A      5.641546  
	 578A      5.662060   579A      5.693910   580A      5.711212  
	 581A      5.726653   582A      5.728309   583A      5.755209  
	 584A      5.758431   585A      5.786988   586A      5.833888  
	 587A      5.866603   588A      5.918580   589A      5.924229  
	 590A      5.935749   591A      5.951451   592A      5.985150  
	 593A      6.038075   594A      6.058648   595A      6.072703  
	 596A      6.109639   597A      6.125795   598A      6.127047  
	 599A      6.150991   600A      6.168839   601A      6.208394  
	 602A      6.259321   603A      6.279789   604A      6.300199  
	 605A      6.316779   606A      6.371435   607A      6.463162  
	 608A      6.485812   609A      6.513445   610A      6.518452  
	 611A      6.524242   612A      6.579318   613A      6.604887  
	 614A      6.634088   615A      6.654764   616A      6.678712  
	 617A      6.695498   618A      6.703392   619A      6.732164  
	 620A      6.768482   621A      6.816321   622A      6.836731  
	 623A      6.840174   624A      6.869360   625A      6.878516  
	 626A      6.903639   627A      6.911889   628A      6.912366  
	 629A      6.930767   630A      7.005603   631A      7.035598  
	 632A      7.069217   633A      7.087202   634A      7.111043  
	 635A      7.186336   636A      7.238603   637A      7.282670  
	 638A      7.283847   639A      7.348874   640A      7.354221  
	 641A      7.404174   642A      7.430986   643A      7.435981  
	 644A      7.446367   645A      7.473899   646A      7.484531  
	 647A      7.544400   648A      7.550157   649A      7.588312  
	 650A      7.608748   651A      7.612713   652A      7.652694  
	 653A      7.681214   654A      7.701666   655A      7.734092  
	 656A      7.742179   657A      7.753291   658A      7.767471  
	 659A      7.815091   660A      7.817720   661A      7.854436  
	 662A      7.870928   663A      7.907961   664A      7.912934  
	 665A      7.928664   666A      7.953909   667A      7.958938  
	 668A      8.000966   669A      8.014603   670A      8.025491  
	 671A      8.059956   672A      8.093992   673A      8.155514  
	 674A      8.174469   675A      8.204376   676A      8.255846  
	 677A      8.280341   678A      8.288468   679A      8.361549  
	 680A      8.367530   681A      8.422019   682A      8.498749  
	 683A      8.677347   684A      8.729794   685A      8.764601  
	 686A      8.849129   687A      8.867014   688A      8.986875  
	 689A      9.102142   690A      9.158207   691A      9.280194  
	 692A      9.372648   693A      9.518007   694A      9.540363  
	 695A      9.610124   696A      9.731877   697A      9.871669  
	 698A      9.943615   699A      9.958621   700A      9.970448  
	 701A     10.149933   702A     10.187602   703A     10.193044  
	 704A     10.421597   705A     10.452065   706A     10.548753  
	 707A     10.602565   708A     11.053199   709A     11.126468  
	 710A     11.326489   711A     11.476647   712A     11.923400  
	 713A     11.960078   714A     12.041814   715A     12.175204  
	 716A     12.237440   717A     12.508724   718A     12.723590  
	 719A     12.967806   720A     13.250224   721A     13.404329  
	 722A     13.898490   723A     14.248078   724A     14.277294  
	 725A     16.097052   726A     17.240851   727A     18.070410  
	 728A     20.687583   729A     52.059007   730A     52.754025  
	 731A     54.968117   732A     55.892111   733A     61.657342  
	 734A     63.492631   735A     69.606644   736A     70.978180  

	Final Occupation by Irrep:
	          A 
	DOCC [    16 ]

  Energy converged.

  @RHF Final Energy:  -227.90304202069785

   => Energetics <=

    Nuclear Repulsion Energy =            121.3060636485950141
    One-Electron Energy =                -552.0570024812067231
    Two-Electron Energy =                 202.8478968119161152
    DFT Exchange-Correlation Energy =       0.0000000000000000
    Empirical Dispersion Energy =           0.0000000000000000
    Total Energy =                       -227.9030420206956080



Properties will be evaluated at   0.000000,   0.000000,   0.000000 Bohr
  ==> Properties <==


Properties computed using the SCF density density matrix
  Nuclear Dipole Moment: (a.u.)
     X:  -186.0687      Y:   -27.9176      Z:    -3.4225

  Electronic Dipole Moment: (a.u.)
     X:   185.6804      Y:    27.1352      Z:     3.2791

  Dipole Moment: (a.u.)
     X:    -0.3883      Y:    -0.7824      Z:    -0.1434     Total:     0.8851

  Dipole Moment: (Debye)
     X:    -0.9870      Y:    -1.9885      Z:    -0.3644     Total:     2.2497


  Saving occupied orbitals to File 180.

  Saving SAPT 2-MONOMER_A file.

*** tstop() called on node32.bme.utexas.edu at Thu Feb 20 21:16:35 2014
Module time:
	user time   =    1031.32 seconds =      17.19 minutes
	system time =       8.39 seconds =       0.14 minutes
	total time  =        274 seconds =       4.57 minutes
Total time:
	user time   =    2966.20 seconds =      49.44 minutes
	system time =      27.85 seconds =       0.46 minutes
	total time  =        813 seconds =      13.55 minutes

  //>>>>>>>>>>>>>>>>>>>>>>>>>>>>>>>>>>>//
  //            Monomer B HF           //
  //<<<<<<<<<<<<<<<<<<<<<<<<<<<<<<<<<<<//


  No DF_BASIS_SCF auxiliary basis selected, defaulting to aug-cc-pvtz-jkfit


*** tstart() called on node32.bme.utexas.edu
*** at Thu Feb 20 21:16:35 2014


         ---------------------------------------------------------
                                   SCF
            by Justin Turney, Rob Parrish, and Andy Simmonett
                              RHF Reference
                        4 Threads,  30000 MiB Core
         ---------------------------------------------------------

  ==> Geometry <==

    Molecular point group: c1
    Full point group: C1

    Geometry (in Angstrom), charge = 0, multiplicity = 1:

       Center              X                  Y                   Z       
    ------------   -----------------  -----------------  -----------------
           C(Gh)     -2.964905105368    -0.370801242645    -0.040333373069
           O(Gh)     -2.318361631368     0.651566444355     0.146037033931
           O(Gh)     -2.429368378368    -1.560900852645    -0.265882955069
           H(Gh)     -1.437958626368    -1.494564732645    -0.260013320069
           C(Gh)     -4.462703676368    -0.411631764645    -0.038139121069
           H(Gh)     -4.857927708368     0.579064109355     0.150289398931
           H(Gh)     -4.815535217368    -0.782562658645    -0.997501660069
           H(Gh)     -4.804393201368    -1.106023127645     0.725739983931
           N          2.005054216632    -0.602071971645    -0.128801329069
           H          2.398259329632    -1.517462200645    -0.300520756069
           C          2.926582123632     0.446043646355     0.052651780931
           O          4.123728508632     0.227747838355    -0.000228182069
           C          2.287516052632     1.725506028355     0.293258931931
           H          2.907050816632     2.592430906355     0.444736205931
           C          0.940431850632     1.805496183355     0.322640167931
           H          0.417591659632     2.733943184355     0.497938376931
           N          0.136701099632     0.714814196355     0.132234136931
           H         -0.887350730368     0.784761888355     0.156024397931
           C          0.636633585632    -0.535408587645    -0.101938086069
           O         -0.075398860368    -1.524913474645    -0.275408266069

  Running in c1 symmetry.

  Nuclear repulsion =  357.302426129136393

  Charge       = 0
  Multiplicity = 1
  Electrons    = 58
  Nalpha       = 29
  Nbeta        = 29

  ==> Algorithm <==

  SCF Algorithm Type is DF.
  DIIS enabled.
  MOM disabled.
  Fractional occupation disabled.
  Guess Type is CORE.
  Energy threshold   = 1.00e-08
  Density threshold  = 1.00e-08
  Integral threshold = 0.00e+00

  ==> Primary Basis <==

  Basis Set: AUG-CC-PVTZ
    Number of shells: 240
    Number of basis function: 736
    Number of Cartesian functions: 860
    Spherical Harmonics?: true
    Max angular momentum: 3

  ==> Pre-Iterations <==

   -------------------------------------------------------
    Irrep   Nso     Nmo     Nalpha   Nbeta   Ndocc  Nsocc
   -------------------------------------------------------
     A        736     736       0       0       0       0
   -------------------------------------------------------
    Total     736     736      29      29      29       0
   -------------------------------------------------------

 OEINTS: Wrapper to libmints.
   by Justin Turney

   Calculation information:
      Number of atoms:                  20
      Number of AO shells:             240
      Number of SO shells:             240
      Number of primitives:            448
      Number of atomic orbitals:       860
      Number of basis functions:       736

      Number of irreps:                  1
      Number of functions per irrep: [ 736 ]

      Overlap, kinetic, potential, dipole, and quadrupole integrals
        stored in file 35.

  ==> Integral Setup <==

  ==> DFJK: Density-Fitted J/K Matrices <==

    J tasked:                  Yes
    K tasked:                  Yes
    wK tasked:                  No
    OpenMP threads:              4
    Integrals threads:           4
    Memory (MB):             21457
    Algorithm:                Core
    Integral Cache:           LOAD
    Schwarz Cutoff:          0E+00
    Fitting Condition:       1E-12

   => Auxiliary Basis Set <=

  Basis Set: aug-cc-pvtz-jkfit
    Number of shells: 472
    Number of basis function: 1616
    Number of Cartesian functions: 2012
    Spherical Harmonics?: true
    Max angular momentum: 4

  Minimum eigenvalue in the overlap matrix is 2.2108492835E-06.
  Using Symmetric Orthogonalization.
  SCF Guess: Core (One-Electron) Hamiltonian.

  Guess energy:  -324.14296023276518

  ==> Iterations <==

                        Total Energy        Delta E     RMS |[F,P]|

   @RHF iter   1:  -319.79874930163351   -3.19799e+02   2.10337e-02 
   @RHF iter   2:  -286.85604687873547    3.29427e+01   1.28310e-02 DIIS
   @RHF iter   3:  -298.66055597166769   -1.18045e+01   1.51217e-02 DIIS
   @RHF iter   4:  -391.93918044459679   -9.32786e+01   7.27294e-03 DIIS
   @RHF iter   5:  -389.16769986289171    2.77148e+00   6.90430e-03 DIIS
   @RHF iter   6:  -409.99826363098919   -2.08306e+01   3.04809e-03 DIIS
   @RHF iter   7:  -412.41131165909155   -2.41305e+00   7.42940e-04 DIIS
   @RHF iter   8:  -412.58712420329539   -1.75813e-01   2.74654e-04 DIIS
   @RHF iter   9:  -412.61419142208365   -2.70672e-02   1.26790e-04 DIIS
   @RHF iter  10:  -412.62065975384007   -6.46833e-03   5.80923e-05 DIIS
   @RHF iter  11:  -412.62219673891730   -1.53699e-03   3.10872e-05 DIIS
   @RHF iter  12:  -412.62287904126606   -6.82302e-04   1.06655e-05 DIIS
   @RHF iter  13:  -412.62293977683316   -6.07356e-05   4.14864e-06 DIIS
   @RHF iter  14:  -412.62294460673388   -4.82990e-06   1.08914e-06 DIIS
   @RHF iter  15:  -412.62294502335544   -4.16622e-07   2.76118e-07 DIIS
   @RHF iter  16:  -412.62294505624072   -3.28853e-08   1.06014e-07 DIIS
   @RHF iter  17:  -412.62294506112175   -4.88103e-09   4.03302e-08 DIIS
   @RHF iter  18:  -412.62294506218257   -1.06081e-09   1.66319e-08 DIIS
   @RHF iter  19:  -412.62294506238266   -2.00089e-10   5.36784e-09 DIIS

  ==> Post-Iterations <==

	Orbital Energies (a.u.)
	-----------------------

	Doubly Occupied:                                                      

	   1A    -20.543929     2A    -20.541130     3A    -15.650133  
	   4A    -15.628078     5A    -11.416732     6A    -11.382407  
	   7A    -11.343641     8A    -11.258691     9A     -1.431893  
	  10A     -1.397758    11A     -1.313210    12A     -1.247447  
	  13A     -1.091201    14A     -0.938274    15A     -0.901580  
	  16A     -0.808275    17A     -0.768245    18A     -0.716098  
	  19A     -0.677700    20A     -0.670914    21A     -0.648599  
	  22A     -0.616185    23A     -0.602655    24A     -0.571871  
	  25A     -0.524058    26A     -0.480762    27A     -0.449423  
	  28A     -0.435574    29A     -0.371563  

	Virtual:                                                              

	  30A      0.010197    31A      0.025585    32A      0.035576  
	  33A      0.041200    34A      0.042285    35A      0.049193  
	  36A      0.052972    37A      0.060952    38A      0.069254  
	  39A      0.075077    40A      0.076549    41A      0.085652  
	  42A      0.093247    43A      0.094003    44A      0.099664  
	  45A      0.100401    46A      0.110952    47A      0.114847  
	  48A      0.116241    49A      0.123931    50A      0.125175  
	  51A      0.130131    52A      0.131299    53A      0.132281  
	  54A      0.143257    55A      0.145979    56A      0.147655  
	  57A      0.158863    58A      0.159131    59A      0.168382  
	  60A      0.176924    61A      0.180018    62A      0.186523  
	  63A      0.191486    64A      0.197155    65A      0.197887  
	  66A      0.202542    67A      0.209536    68A      0.213717  
	  69A      0.217270    70A      0.225151    71A      0.230111  
	  72A      0.242957    73A      0.243333    74A      0.249216  
	  75A      0.255889    76A      0.258150    77A      0.270992  
	  78A      0.272649    79A      0.273568    80A      0.281302  
	  81A      0.283370    82A      0.283813    83A      0.289046  
	  84A      0.290744    85A      0.293291    86A      0.298069  
	  87A      0.305002    88A      0.315560    89A      0.319948  
	  90A      0.322162    91A      0.333210    92A      0.335498  
	  93A      0.336434    94A      0.344489    95A      0.350531  
	  96A      0.352513    97A      0.355058    98A      0.368651  
	  99A      0.371910   100A      0.374295   101A      0.377217  
	 102A      0.378649   103A      0.384681   104A      0.399890  
	 105A      0.400643   106A      0.406063   107A      0.416406  
	 108A      0.416790   109A      0.421310   110A      0.426605  
	 111A      0.430917   112A      0.431191   113A      0.439474  
	 114A      0.442457   115A      0.449430   116A      0.450261  
	 117A      0.457024   118A      0.458762   119A      0.460514  
	 120A      0.467976   121A      0.474565   122A      0.476627  
	 123A      0.481162   124A      0.487119   125A      0.488233  
	 126A      0.493769   127A      0.497205   128A      0.502703  
	 129A      0.506509   130A      0.508350   131A      0.521941  
	 132A      0.522411   133A      0.530694   134A      0.531948  
	 135A      0.536643   136A      0.545624   137A      0.555675  
	 138A      0.560487   139A      0.562712   140A      0.571314  
	 141A      0.599947   142A      0.602301   143A      0.605628  
	 144A      0.611528   145A      0.612786   146A      0.621369  
	 147A      0.625205   148A      0.632637   149A      0.633827  
	 150A      0.637248   151A      0.649159   152A      0.652202  
	 153A      0.659617   154A      0.661273   155A      0.668364  
	 156A      0.678151   157A      0.681557   158A      0.682089  
	 159A      0.684592   160A      0.693378   161A      0.713227  
	 162A      0.713855   163A      0.728363   164A      0.735471  
	 165A      0.743313   166A      0.748085   167A      0.753351  
	 168A      0.759897   169A      0.767400   170A      0.770479  
	 171A      0.777519   172A      0.784360   173A      0.790724  
	 174A      0.799324   175A      0.809660   176A      0.814343  
	 177A      0.818728   178A      0.832284   179A      0.837601  
	 180A      0.838703   181A      0.843670   182A      0.863893  
	 183A      0.871338   184A      0.876950   185A      0.885881  
	 186A      0.886991   187A      0.890039   188A      0.895314  
	 189A      0.905683   190A      0.907360   191A      0.909998  
	 192A      0.930248   193A      0.931952   194A      0.935355  
	 195A      0.939059   196A      0.947051   197A      0.948220  
	 198A      0.953603   199A      0.961545   200A      0.965252  
	 201A      0.969786   202A      0.974980   203A      0.978909  
	 204A      0.988077   205A      0.988578   206A      0.995701  
	 207A      1.008688   208A      1.014416   209A      1.016902  
	 210A      1.022214   211A      1.027476   212A      1.031059  
	 213A      1.038347   214A      1.044151   215A      1.050435  
	 216A      1.051768   217A      1.058902   218A      1.061530  
	 219A      1.075201   220A      1.077864   221A      1.092163  
	 222A      1.101841   223A      1.107935   224A      1.113228  
	 225A      1.119671   226A      1.120259   227A      1.130783  
	 228A      1.132030   229A      1.137496   230A      1.143497  
	 231A      1.144488   232A      1.156473   233A      1.157711  
	 234A      1.159658   235A      1.171260   236A      1.176669  
	 237A      1.179160   238A      1.186494   239A      1.198893  
	 240A      1.199632   241A      1.209559   242A      1.210049  
	 243A      1.218409   244A      1.229846   245A      1.234302  
	 246A      1.241801   247A      1.241984   248A      1.246962  
	 249A      1.259155   250A      1.262455   251A      1.276251  
	 252A      1.279490   253A      1.286643   254A      1.299618  
	 255A      1.300661   256A      1.306181   257A      1.310872  
	 258A      1.316697   259A      1.328759   260A      1.334849  
	 261A      1.339442   262A      1.352750   263A      1.364444  
	 264A      1.370823   265A      1.374325   266A      1.375427  
	 267A      1.382794   268A      1.390736   269A      1.400622  
	 270A      1.413027   271A      1.415845   272A      1.420786  
	 273A      1.430814   274A      1.442486   275A      1.455989  
	 276A      1.457113   277A      1.465177   278A      1.466088  
	 279A      1.472752   280A      1.477045   281A      1.481973  
	 282A      1.502738   283A      1.512863   284A      1.516575  
	 285A      1.525748   286A      1.545406   287A      1.550771  
	 288A      1.556745   289A      1.561483   290A      1.563289  
	 291A      1.565513   292A      1.589151   293A      1.599076  
	 294A      1.610525   295A      1.617717   296A      1.619715  
	 297A      1.630318   298A      1.641102   299A      1.646045  
	 300A      1.654033   301A      1.672777   302A      1.681888  
	 303A      1.690273   304A      1.693384   305A      1.704944  
	 306A      1.713983   307A      1.715168   308A      1.737908  
	 309A      1.739703   310A      1.746512   311A      1.754633  
	 312A      1.777004   313A      1.779649   314A      1.784562  
	 315A      1.791258   316A      1.800575   317A      1.812293  
	 318A      1.829442   319A      1.830531   320A      1.851842  
	 321A      1.868283   322A      1.874029   323A      1.876393  
	 324A      1.885542   325A      1.890128   326A      1.902615  
	 327A      1.904023   328A      1.908918   329A      1.913936  
	 330A      1.925895   331A      1.941452   332A      1.948787  
	 333A      1.949603   334A      1.967908   335A      1.970842  
	 336A      1.976534   337A      1.997201   338A      2.006964  
	 339A      2.025138   340A      2.031765   341A      2.042470  
	 342A      2.050270   343A      2.056540   344A      2.085897  
	 345A      2.098654   346A      2.107281   347A      2.111836  
	 348A      2.120488   349A      2.138964   350A      2.147091  
	 351A      2.151184   352A      2.160046   353A      2.168159  
	 354A      2.173418   355A      2.179155   356A      2.191439  
	 357A      2.198006   358A      2.209028   359A      2.210402  
	 360A      2.229343   361A      2.237953   362A      2.245499  
	 363A      2.284283   364A      2.287464   365A      2.294904  
	 366A      2.306480   367A      2.309336   368A      2.334659  
	 369A      2.341796   370A      2.361681   371A      2.367255  
	 372A      2.373043   373A      2.397074   374A      2.402474  
	 375A      2.416301   376A      2.429873   377A      2.455370  
	 378A      2.459219   379A      2.471021   380A      2.486887  
	 381A      2.490653   382A      2.498728   383A      2.515911  
	 384A      2.521766   385A      2.530901   386A      2.536622  
	 387A      2.546818   388A      2.552119   389A      2.559329  
	 390A      2.590435   391A      2.594137   392A      2.608248  
	 393A      2.621686   394A      2.631705   395A      2.652963  
	 396A      2.667596   397A      2.669865   398A      2.671459  
	 399A      2.684598   400A      2.696634   401A      2.701554  
	 402A      2.708255   403A      2.711384   404A      2.719738  
	 405A      2.724005   406A      2.747408   407A      2.755196  
	 408A      2.756590   409A      2.766196   410A      2.790825  
	 411A      2.800290   412A      2.826488   413A      2.832849  
	 414A      2.839890   415A      2.856559   416A      2.858822  
	 417A      2.878031   418A      2.891148   419A      2.915668  
	 420A      2.918208   421A      2.925725   422A      2.935724  
	 423A      2.944727   424A      2.957753   425A      2.970348  
	 426A      2.972076   427A      3.002009   428A      3.022933  
	 429A      3.032493   430A      3.038409   431A      3.044244  
	 432A      3.090082   433A      3.102352   434A      3.113442  
	 435A      3.130700   436A      3.161412   437A      3.166830  
	 438A      3.181338   439A      3.192822   440A      3.194794  
	 441A      3.228501   442A      3.235362   443A      3.246323  
	 444A      3.258246   445A      3.273226   446A      3.283411  
	 447A      3.293829   448A      3.317065   449A      3.339194  
	 450A      3.352571   451A      3.363292   452A      3.385297  
	 453A      3.389962   454A      3.428533   455A      3.437988  
	 456A      3.439604   457A      3.463646   458A      3.478352  
	 459A      3.493787   460A      3.498861   461A      3.505084  
	 462A      3.544825   463A      3.551228   464A      3.563480  
	 465A      3.589402   466A      3.610782   467A      3.622110  
	 468A      3.624931   469A      3.645562   470A      3.660002  
	 471A      3.660957   472A      3.677589   473A      3.689484  
	 474A      3.713884   475A      3.717633   476A      3.745330  
	 477A      3.757030   478A      3.771586   479A      3.778462  
	 480A      3.813170   481A      3.813875   482A      3.822398  
	 483A      3.834312   484A      3.835157   485A      3.861965  
	 486A      3.883468   487A      3.888453   488A      3.940503  
	 489A      3.941297   490A      3.954060   491A      3.979786  
	 492A      3.995254   493A      4.012074   494A      4.013730  
	 495A      4.024787   496A      4.036482   497A      4.050784  
	 498A      4.081698   499A      4.089162   500A      4.114529  
	 501A      4.114683   502A      4.130959   503A      4.132514  
	 504A      4.148589   505A      4.164618   506A      4.169141  
	 507A      4.179434   508A      4.188885   509A      4.213448  
	 510A      4.239126   511A      4.247486   512A      4.261572  
	 513A      4.261893   514A      4.278199   515A      4.303955  
	 516A      4.305026   517A      4.322917   518A      4.326798  
	 519A      4.347201   520A      4.380132   521A      4.384613  
	 522A      4.392730   523A      4.396244   524A      4.399169  
	 525A      4.431153   526A      4.441045   527A      4.448844  
	 528A      4.462965   529A      4.463896   530A      4.483331  
	 531A      4.488576   532A      4.541423   533A      4.542940  
	 534A      4.572543   535A      4.576948   536A      4.578676  
	 537A      4.596936   538A      4.621064   539A      4.627891  
	 540A      4.647385   541A      4.661270   542A      4.672262  
	 543A      4.675706   544A      4.690666   545A      4.714940  
	 546A      4.744850   547A      4.751182   548A      4.759223  
	 549A      4.768202   550A      4.776946   551A      4.788970  
	 552A      4.797397   553A      4.804647   554A      4.839036  
	 555A      4.847197   556A      4.878624   557A      4.919525  
	 558A      4.929112   559A      4.942795   560A      4.950755  
	 561A      4.956081   562A      4.977181   563A      4.978787  
	 564A      4.990900   565A      5.024665   566A      5.044495  
	 567A      5.056507   568A      5.067925   569A      5.080203  
	 570A      5.096987   571A      5.107590   572A      5.119675  
	 573A      5.130196   574A      5.154518   575A      5.163003  
	 576A      5.165633   577A      5.190970   578A      5.246826  
	 579A      5.248252   580A      5.262666   581A      5.289959  
	 582A      5.305629   583A      5.312463   584A      5.331776  
	 585A      5.351428   586A      5.377055   587A      5.379887  
	 588A      5.411339   589A      5.436087   590A      5.456735  
	 591A      5.472095   592A      5.487198   593A      5.494814  
	 594A      5.509767   595A      5.513185   596A      5.532290  
	 597A      5.541187   598A      5.544482   599A      5.550086  
	 600A      5.562384   601A      5.567951   602A      5.588766  
	 603A      5.638657   604A      5.642758   605A      5.671088  
	 606A      5.693379   607A      5.735821   608A      5.753265  
	 609A      5.779559   610A      5.795169   611A      5.816950  
	 612A      5.831719   613A      5.835617   614A      5.878162  
	 615A      5.885818   616A      5.891479   617A      5.940078  
	 618A      5.953114   619A      5.971439   620A      5.976483  
	 621A      6.025356   622A      6.033169   623A      6.053326  
	 624A      6.100334   625A      6.111740   626A      6.123378  
	 627A      6.142333   628A      6.158522   629A      6.207596  
	 630A      6.216044   631A      6.241992   632A      6.303216  
	 633A      6.321325   634A      6.357240   635A      6.372454  
	 636A      6.405248   637A      6.475897   638A      6.522109  
	 639A      6.575553   640A      6.593381   641A      6.637421  
	 642A      6.665830   643A      6.709637   644A      6.722564  
	 645A      6.744146   646A      6.786918   647A      6.838525  
	 648A      6.850186   649A      6.861517   650A      6.899794  
	 651A      6.929104   652A      6.939782   653A      6.980462  
	 654A      6.994836   655A      7.001697   656A      7.092138  
	 657A      7.146619   658A      7.152828   659A      7.156182  
	 660A      7.186838   661A      7.187725   662A      7.206469  
	 663A      7.236625   664A      7.257514   665A      7.312034  
	 666A      7.341137   667A      7.391471   668A      7.406496  
	 669A      7.443191   670A      7.501644   671A      7.570903  
	 672A      7.686341   673A      7.695452   674A      7.724983  
	 675A      7.733982   676A      7.738241   677A      7.778029  
	 678A      7.784050   679A      7.825009   680A      7.840319  
	 681A      7.841283   682A      7.849338   683A      7.891932  
	 684A      7.909563   685A      7.941372   686A      7.972173  
	 687A      7.997737   688A      8.043172   689A      8.052314  
	 690A      8.110324   691A      8.116604   692A      8.212248  
	 693A      8.260897   694A      8.268465   695A      8.333512  
	 696A      8.356182   697A      8.419609   698A      8.548332  
	 699A      8.670270   700A      8.735973   701A      8.788451  
	 702A      9.177746   703A      9.270617   704A      9.292607  
	 705A      9.879928   706A      9.929929   707A     10.001285  
	 708A     10.064220   709A     10.163539   710A     10.203033  
	 711A     10.391370   712A     10.468039   713A     10.684307  
	 714A     10.905832   715A     11.122588   716A     11.335953  
	 717A     11.932100   718A     12.024660   719A     12.669243  
	 720A     12.813177   721A     13.352130   722A     13.792806  
	 723A     14.120481   724A     14.635060   725A     16.450422  
	 726A     16.647929   727A     16.924109   728A     17.744458  
	 729A     18.929286   730A     20.008806   731A     20.127851  
	 732A     21.392038   733A     52.818796   734A     54.802437  
	 735A     66.978725   736A     70.950523  

	Final Occupation by Irrep:
	          A 
	DOCC [    29 ]

  Energy converged.

  @RHF Final Energy:  -412.62294506238266

   => Energetics <=

    Nuclear Repulsion Energy =            357.3024261291363928
    One-Electron Energy =               -1270.9946886957393417
    Two-Electron Energy =                 501.0693175042222265
    DFT Exchange-Correlation Energy =       0.0000000000000000
    Empirical Dispersion Energy =           0.0000000000000000
    Total Energy =                       -412.6229450623807224



Properties will be evaluated at   0.000000,   0.000000,   0.000000 Bohr
  ==> Properties <==


Properties computed using the SCF density density matrix
  Nuclear Dipole Moment: (a.u.)
     X:   175.6717      Y:    29.5844      Z:     3.8112

  Electronic Dipole Moment: (a.u.)
     X:  -176.8794      Y:   -27.9663      Z:    -3.5023

  Dipole Moment: (a.u.)
     X:    -1.2078      Y:     1.6180      Z:     0.3089     Total:     2.0426

  Dipole Moment: (Debye)
     X:    -3.0698      Y:     4.1126      Z:     0.7852     Total:     5.1917


  Saving occupied orbitals to File 180.

  Saving SAPT 2-MONOMER_B file.

*** tstop() called on node32.bme.utexas.edu at Thu Feb 20 21:22:25 2014
Module time:
	user time   =    1308.15 seconds =      21.80 minutes
	system time =      12.66 seconds =       0.21 minutes
	total time  =        350 seconds =       5.83 minutes
Total time:
	user time   =    4274.38 seconds =      71.24 minutes
	system time =      40.51 seconds =       0.68 minutes
	total time  =       1163 seconds =      19.38 minutes
  No DF_BASIS_SAPT auxiliary basis selected, defaulting to aug-cc-pvtz-ri

  //>>>>>>>>>>>>>>>>>>>>>>>>>>>>>>>>>>>//
  //               SAPT2+              //
  //<<<<<<<<<<<<<<<<<<<<<<<<<<<<<<<<<<<//


*** tstart() called on node32.bme.utexas.edu
*** at Thu Feb 20 21:22:25 2014

        SAPT2+  
    Ed Hohenstein
     6 June 2009

      Orbital Information
  --------------------------
    NSO        =       736
    NMO        =       736
    NRI        =      1640
    NOCC A     =        16
    NOCC B     =        29
    FOCC A     =         4
    FOCC B     =         8
    NVIR A     =       720
    NVIR B     =       707

    Estimated memory usage: 17264.8 MB

    Elst10,r            =    -0.097285073719 H
    Exch10 (S^2)        =     0.149362399818 H
    Exch10              =     0.155579607803 H
    Ind20,r (A<-B)      =    -0.041742920244 H
    Ind20,r (B<-A)      =    -0.043464829556 H
    Ind20,r             =    -0.085207749800 H
    Exch-Ind20,r (A<-B) =     0.025521422398 H
    Exch-Ind20,r (B<-A) =     0.023654753363 H
    Exch-Ind20,r        =     0.049176175762 H
    Disp20              =    -0.035572839001 H
    Exch-Disp20         =     0.008092114749 H
    Elst12,r            =     0.002732425515 H
    Exch11              =     0.000452341850 H
    Exch12              =     0.012929151377 H
    Ind22               =    -0.011264281937 H
    Disp21              =     0.004006128791 H
    Disp22 (SDQ)        =    -0.000811535134 H

    (i =   1 of  21)      11387 seconds
    (i =   2 of  21)      22791 seconds
    (i =   3 of  21)      34196 seconds
    (i =   4 of  21)      45576 seconds
    (i =   5 of  21)      56967 seconds
    (i =   6 of  21)      68317 seconds
    (i =   7 of  21)      79659 seconds
    (i =   8 of  21)      91045 seconds
    (i =   9 of  21)     102457 seconds
    (i =  10 of  21)     113771 seconds
    (i =  11 of  21)     125132 seconds
    (i =  12 of  21)     136489 seconds
    (i =  13 of  21)     147849 seconds
    (i =  14 of  21)     159200 seconds
    (i =  15 of  21)     170565 seconds
    (i =  16 of  21)     181944 seconds
    (i =  17 of  21)     193375 seconds
    (i =  18 of  21)     204735 seconds
    (i =  19 of  21)     216163 seconds
    (i =  20 of  21)     227530 seconds
    (i =  21 of  21)     238923 seconds

    Disp220 (T)         =    -0.003234902172 H

    (i =   1 of  12)      29265 seconds
    (i =   2 of  12)      61807 seconds
    (i =   3 of  12)      96375 seconds
    (i =   4 of  12)     131284 seconds
    (i =   5 of  12)     166234 seconds
    (i =   6 of  12)     201139 seconds
    (i =   7 of  12)     235999 seconds
    (i =   8 of  12)     271095 seconds
    (i =   9 of  12)     306794 seconds
    (i =  10 of  12)     342515 seconds
    (i =  11 of  12)     378236 seconds
    (i =  12 of  12)     412621 seconds

    Disp202 (T)         =    -0.003102887512 H

    Disp22 (T)          =    -0.006337789684 H

    SAPT Results  
  -----------------------------------------------------------------------
    Electrostatics         -94.55264820 mH     -59.33268500 kcal mol^-1
      Elst10,r             -97.28507372 mH     -61.04730797 kcal mol^-1
      Elst12,r               2.73242552 mH       1.71462297 kcal mol^-1

    Exchange               168.96110103 mH     106.02469603 kcal mol^-1
      Exch10               155.57960780 mH      97.62768190 kcal mol^-1
      Exch10(S^2)          149.36239982 mH      93.72632483 kcal mol^-1
      Exch11(S^2)            0.45234185 mH       0.28384881 kcal mol^-1
      Exch12(S^2)           12.92915138 mH       8.11316532 kcal mol^-1

    Induction              -69.21368731 mH     -43.43224632 kcal mol^-1
      Ind20,r              -85.20774980 mH     -53.46867247 kcal mol^-1
      Ind22                -11.26428194 mH      -7.06844393 kcal mol^-1
      Exch-Ind20,r          49.17617576 mH      30.85851746 kcal mol^-1
      Exch-Ind22             6.50098506 mH       4.07942988 kcal mol^-1
      delta HF,r (2)       -28.41881640 mH     -17.83307727 kcal mol^-1

    Dispersion             -30.62392028 mH     -19.21680090 kcal mol^-1
      Disp20               -35.57283900 mH     -22.32229441 kcal mol^-1
      Disp21                 4.00612879 mH       2.51388387 kcal mol^-1
      Disp22 (SDQ)          -0.81153513 mH      -0.50924601 kcal mol^-1
      Disp22 (T)            -6.33778968 mH      -3.97702324 kcal mol^-1
      Exch-Disp20            8.09211475 mH       5.07787888 kcal mol^-1

    Total HF                -6.15585635 mH      -3.86285834 kcal mol^-1
    Total SAPT0            -33.63658060 mH     -21.10727388 kcal mol^-1
    Total SAPT2            -22.28595874 mH     -13.98465083 kcal mol^-1
    Total SAPT2+           -25.42915477 mH     -15.95703619 kcal mol^-1

*** tstop() called on node32.bme.utexas.edu at Sat Mar  1 02:59:16 2014
Module time:
	user time   = 2324610.23 seconds =   38743.50 minutes
	system time =    2411.81 seconds =      40.20 minutes
	total time  =     711411 seconds =   11856.85 minutes
Total time:
	user time   = 2328884.62 seconds =   38814.74 minutes
	system time =    2452.32 seconds =      40.87 minutes
	total time  =     712574 seconds =   11876.23 minutes

*** PSI4 exiting successfully. Buy a developer a beer!
