    -----------------------------------------------------------------------
          PSI4: An Open-Source Ab Initio Electronic Structure Package
                              PSI 4.0.0-beta4 Driver

    J. M. Turney, A. C. Simmonett, R. M. Parrish, E. G. Hohenstein,
    F. A. Evangelista, J. T. Fermann, B. J. Mintz, L. A. Burns, J. J. Wilke,
    M. L. Abrams, N. J. Russ, M. L. Leininger, C. L. Janssen, E. T. Seidl,
    W. D. Allen, H. F. Schaefer, R. A. King, E. F. Valeev, C. D. Sherrill,
    and T. D. Crawford, WIREs Comput. Mol. Sci., (2011) (doi: 10.1002/wcms.93)

                         Additional Contributions by
    A. E. DePrince, M. Saitow, U. Bozkaya, A. Yu. Sokolov
    -----------------------------------------------------------------------

    Process ID:  27962
    PSI4DATADIR: /home/xzhu216/psi4/psi4-install/share/psi

    Using LocalCommunicator (Number of processes = 1)

    Memory level set to 256.000 MB

  ==> Input File <==

--------------------------------------------------------------------------
#psi4
#
memory 30  gb

molecule Benzene_Benzene {
0 1
    C     0.712645325     1.120995701     0.060540783
    H     1.357841649     1.986399167     0.127737169
    C     1.258235731    -0.159251901     0.124233518
    H     2.324954277    -0.287099878     0.246743035
    C     0.426884963    -1.274526662     0.042650428
    H     0.850444649    -2.268432680     0.094749952
    C    -0.949577845    -1.110074058    -0.100313595
    H    -1.594455696    -1.976273703    -0.163713480
    C    -1.495525640     0.171050561    -0.161546018
    H    -2.563782791     0.299221149    -0.273703115
    C    -0.663827601     1.286642887    -0.083401433
    H    -1.086900697     2.281000204    -0.132886135
--
0 1
    C     1.585116562     1.113535053     2.558469638
    H     2.229961686     1.979718796     2.622220356
    C     2.131069688    -0.167616046     2.619989371
    H     3.199276572    -0.295763096     2.732733590
    C     1.299420208    -1.283216146     2.541338942
    H     1.722501915    -2.277568581     2.590992605
    C    -0.076981353    -1.117581117     2.396622194
    H    -0.722083949    -1.982991361     2.328989562
    C    -0.622541224     0.162651630     2.332656366
    H    -1.689169258     0.290480843     2.209477605
    C     0.208735726     1.277932392     2.414727310
    H    -0.214789156     2.271837426     2.362358380
units angstrom
no_reorient  #important for SAPT in psi4, default
symmetry c1  #important for SAPT in psi4, default
}

set {
basis aug-cc-pVTZ
scf_type DF
freeze_core True
}
energy('sapt2+')
--------------------------------------------------------------------------

  Memory set to  30.000 GiB by Python script.

  //>>>>>>>>>>>>>>>>>>>>>>>>>>>>>>>>>>>//
  //              Dimer HF             //
  //<<<<<<<<<<<<<<<<<<<<<<<<<<<<<<<<<<<//


  No DF_BASIS_SCF auxiliary basis selected, defaulting to aug-cc-pvtz-jkfit


*** tstart() called on pharma.bme.utexas.edu
*** at Thu Feb 20 20:41:35 2014


         ---------------------------------------------------------
                                   SCF
            by Justin Turney, Rob Parrish, and Andy Simmonett
                              RHF Reference
                        4 Threads,  30000 MiB Core
         ---------------------------------------------------------

  ==> Geometry <==

    Molecular point group: c1
    Full point group: C1

    Geometry (in Angstrom), charge = 0, multiplicity = 1:

       Center              X                  Y                   Z       
    ------------   -----------------  -----------------  -----------------
           C          0.394839845992     1.119283933610    -1.168288112112
           H          1.040036169992     1.984687399610    -1.101091726112
           C          0.940430251992    -0.160963668390    -1.104595377112
           H          2.007148797992    -0.288811645390    -0.982085860112
           C          0.109079483992    -1.276238429390    -1.186178467112
           H          0.532639169992    -2.270144447390    -1.134078943112
           C         -1.267383324008    -1.111785825390    -1.329142490112
           H         -1.912261175008    -1.977985470390    -1.392542375112
           C         -1.813331119008     0.169338793610    -1.390374913112
           H         -2.881588270008     0.297509381610    -1.502532010112
           C         -0.981633080008     1.284931119610    -1.312230328112
           H         -1.404706176008     2.279288436610    -1.361715030112
           C          1.267311082992     1.111823285610     1.329640742888
           H          1.912156206992     1.978007028610     1.393391460888
           C          1.813264208992    -0.169327813390     1.391160475888
           H          2.881471092992    -0.297474863390     1.503904694888
           C          0.981614728992    -1.284927913390     1.312510046888
           H          1.404696435992    -2.279280348390     1.362163709888
           C         -0.394786832008    -1.119292884390     1.167793298888
           H         -1.039889428008    -1.984703128390     1.100160666888
           C         -0.940346703008     0.160939862610     1.103827470888
           H         -2.006974737008     0.288769075610     0.980648709888
           C         -0.109069753008     1.276220624610     1.185898414888
           H         -0.532594635008     2.270125658610     1.133529484888

  Running in c1 symmetry.

  Nuclear repulsion =  694.522637418062914

  Charge       = 0
  Multiplicity = 1
  Electrons    = 84
  Nalpha       = 42
  Nbeta        = 42

  ==> Algorithm <==

  SCF Algorithm Type is DF.
  DIIS enabled.
  MOM disabled.
  Fractional occupation disabled.
  Guess Type is CORE.
  Energy threshold   = 1.00e-08
  Density threshold  = 1.00e-08
  Integral threshold = 0.00e+00

  ==> Primary Basis <==

  Basis Set: AUG-CC-PVTZ
    Number of shells: 276
    Number of basis function: 828
    Number of Cartesian functions: 960
    Spherical Harmonics?: true
    Max angular momentum: 3

  ==> Pre-Iterations <==

   -------------------------------------------------------
    Irrep   Nso     Nmo     Nalpha   Nbeta   Ndocc  Nsocc
   -------------------------------------------------------
     A        828     828       0       0       0       0
   -------------------------------------------------------
    Total     828     828      42      42      42       0
   -------------------------------------------------------

 OEINTS: Wrapper to libmints.
   by Justin Turney

   Calculation information:
      Number of atoms:                  24
      Number of AO shells:             276
      Number of SO shells:             276
      Number of primitives:            492
      Number of atomic orbitals:       960
      Number of basis functions:       828

      Number of irreps:                  1
      Number of functions per irrep: [ 828 ]

      Overlap, kinetic, potential, dipole, and quadrupole integrals
        stored in file 35.

  ==> Integral Setup <==

  ==> DFJK: Density-Fitted J/K Matrices <==

    J tasked:                  Yes
    K tasked:                  Yes
    wK tasked:                  No
    OpenMP threads:              4
    Integrals threads:           4
    Memory (MB):             21457
    Algorithm:                Core
    Integral Cache:           SAVE
    Schwarz Cutoff:          0E+00
    Fitting Condition:       1E-12

   => Auxiliary Basis Set <=

  Basis Set: aug-cc-pvtz-jkfit
    Number of shells: 528
    Number of basis function: 1800
    Number of Cartesian functions: 2232
    Spherical Harmonics?: true
    Max angular momentum: 4

  Minimum eigenvalue in the overlap matrix is 1.6915860648E-07.
  Using Symmetric Orthogonalization.
  SCF Guess: Core (One-Electron) Hamiltonian.

  Guess energy:  -382.40044373910268

  ==> Iterations <==

                        Total Energy        Delta E     RMS |[F,P]|

   @RHF iter   1:  -330.37573540177550   -3.30376e+02   1.91057e-02 
   @RHF iter   2:  -308.25747563174900    2.21183e+01   1.15325e-02 DIIS
   @RHF iter   3:  -414.41214505142921   -1.06155e+02   1.03864e-02 DIIS
   @RHF iter   4:  -456.37225778369088   -4.19601e+01   3.55273e-03 DIIS
   @RHF iter   5:  -460.22952302450244   -3.85727e+00   1.64958e-03 DIIS
   @RHF iter   6:  -461.35688176125041   -1.12736e+00   3.38827e-04 DIIS
   @RHF iter   7:  -461.40871026623086   -5.18285e-02   1.90791e-04 DIIS
   @RHF iter   8:  -461.42243741872380   -1.37272e-02   6.08414e-05 DIIS
   @RHF iter   9:  -461.42467024532471   -2.23283e-03   1.89500e-05 DIIS
   @RHF iter  10:  -461.42495636429544   -2.86119e-04   7.37328e-06 DIIS
   @RHF iter  11:  -461.42500533779480   -4.89735e-05   2.73953e-06 DIIS
   @RHF iter  12:  -461.42501314210131   -7.80431e-06   1.28876e-06 DIIS
   @RHF iter  13:  -461.42501475996914   -1.61787e-06   5.45254e-07 DIIS
   @RHF iter  14:  -461.42501519709572   -4.37127e-07   2.31214e-07 DIIS
   @RHF iter  15:  -461.42501532596498   -1.28869e-07   1.20107e-07 DIIS
   @RHF iter  16:  -461.42501535872907   -3.27641e-08   4.48085e-08 DIIS
   @RHF iter  17:  -461.42501536368081   -4.95174e-09   1.68573e-08 DIIS
   @RHF iter  18:  -461.42501536396117   -2.80352e-10   5.01595e-09 DIIS

  ==> Post-Iterations <==

	Orbital Energies (a.u.)
	-----------------------

	Doubly Occupied:                                                      

	   1A    -11.232796     2A    -11.232776     3A    -11.232268  
	   4A    -11.232243     5A    -11.225667     6A    -11.225646  
	   7A    -11.221825     8A    -11.221808     9A    -11.219592  
	  10A    -11.219571    11A    -11.217957    12A    -11.217937  
	  13A     -1.172988    14A     -1.125834    15A     -1.035368  
	  16A     -1.023078    17A     -0.999431    18A     -0.992455  
	  19A     -0.833033    20A     -0.828479    21A     -0.813445  
	  22A     -0.810098    23A     -0.716633    24A     -0.697193  
	  25A     -0.648252    26A     -0.634383    27A     -0.616196  
	  28A     -0.613186    29A     -0.592541    30A     -0.587047  
	  31A     -0.584425    32A     -0.574146    33A     -0.562247  
	  34A     -0.494857    35A     -0.491744    36A     -0.488229  
	  37A     -0.485090    38A     -0.430542    39A     -0.394220  
	  40A     -0.341513    41A     -0.294293    42A     -0.264841  

	Virtual:                                                              

	  43A      0.027035    44A      0.031350    45A      0.032000  
	  46A      0.042854    47A      0.043047    48A      0.043452  
	  49A      0.049607    50A      0.050172    51A      0.058849  
	  52A      0.063135    53A      0.064990    54A      0.080316  
	  55A      0.089085    56A      0.097330    57A      0.101979  
	  58A      0.106347    59A      0.108706    60A      0.109971  
	  61A      0.111187    62A      0.118878    63A      0.118944  
	  64A      0.120095    65A      0.120104    66A      0.121611  
	  67A      0.129939    68A      0.131227    69A      0.133026  
	  70A      0.135886    71A      0.140291    72A      0.142680  
	  73A      0.144811    74A      0.145311    75A      0.152363  
	  76A      0.153978    77A      0.155828    78A      0.157691  
	  79A      0.160575    80A      0.164234    81A      0.167300  
	  82A      0.172694    83A      0.174321    84A      0.178137  
	  85A      0.180318    86A      0.187386    87A      0.191112  
	  88A      0.191971    89A      0.192169    90A      0.193073  
	  91A      0.213446    92A      0.221852    93A      0.227348  
	  94A      0.236927    95A      0.246784    96A      0.249644  
	  97A      0.252359    98A      0.255001    99A      0.256739  
	 100A      0.261311   101A      0.262127   102A      0.270908  
	 103A      0.274194   104A      0.281142   105A      0.284849  
	 106A      0.285639   107A      0.290605   108A      0.292552  
	 109A      0.296629   110A      0.303028   111A      0.308388  
	 112A      0.310379   113A      0.317269   114A      0.318469  
	 115A      0.328065   116A      0.329319   117A      0.332326  
	 118A      0.334673   119A      0.339462   120A      0.346003  
	 121A      0.351272   122A      0.353754   123A      0.360978  
	 124A      0.364161   125A      0.364590   126A      0.365625  
	 127A      0.378389   128A      0.380513   129A      0.381098  
	 130A      0.388448   131A      0.394087   132A      0.395196  
	 133A      0.397846   134A      0.407508   135A      0.419200  
	 136A      0.426088   137A      0.427745   138A      0.430323  
	 139A      0.445505   140A      0.448663   141A      0.449985  
	 142A      0.452129   143A      0.459426   144A      0.459524  
	 145A      0.465651   146A      0.474870   147A      0.481069  
	 148A      0.483585   149A      0.483846   150A      0.485473  
	 151A      0.496613   152A      0.496713   153A      0.502477  
	 154A      0.506263   155A      0.507149   156A      0.509060  
	 157A      0.510254   158A      0.517080   159A      0.518642  
	 160A      0.519253   161A      0.528383   162A      0.529770  
	 163A      0.531598   164A      0.534051   165A      0.536448  
	 166A      0.538648   167A      0.547801   168A      0.548884  
	 169A      0.551765   170A      0.556713   171A      0.558977  
	 172A      0.566270   173A      0.571544   174A      0.574930  
	 175A      0.575034   176A      0.576956   177A      0.590022  
	 178A      0.593127   179A      0.597110   180A      0.600356  
	 181A      0.605615   182A      0.610552   183A      0.619774  
	 184A      0.621613   185A      0.622534   186A      0.625191  
	 187A      0.627516   188A      0.628054   189A      0.635714  
	 190A      0.639384   191A      0.645010   192A      0.649577  
	 193A      0.657472   194A      0.662594   195A      0.667643  
	 196A      0.668186   197A      0.673038   198A      0.673915  
	 199A      0.681878   200A      0.684264   201A      0.699922  
	 202A      0.708041   203A      0.713200   204A      0.715204  
	 205A      0.717174   206A      0.717882   207A      0.719533  
	 208A      0.727387   209A      0.732138   210A      0.739532  
	 211A      0.745371   212A      0.747180   213A      0.753130  
	 214A      0.754170   215A      0.760009   216A      0.772309  
	 217A      0.775513   218A      0.777622   219A      0.781153  
	 220A      0.796116   221A      0.803560   222A      0.804717  
	 223A      0.811223   224A      0.812394   225A      0.818412  
	 226A      0.820952   227A      0.835366   228A      0.836969  
	 229A      0.842532   230A      0.845181   231A      0.849462  
	 232A      0.852013   233A      0.853748   234A      0.865554  
	 235A      0.870088   236A      0.878041   237A      0.882662  
	 238A      0.894875   239A      0.898986   240A      0.901912  
	 241A      0.902820   242A      0.910454   243A      0.917676  
	 244A      0.918193   245A      0.921056   246A      0.925073  
	 247A      0.931138   248A      0.933487   249A      0.939874  
	 250A      0.940139   251A      0.946563   252A      0.952854  
	 253A      0.960359   254A      0.960393   255A      0.975298  
	 256A      0.987815   257A      0.994993   258A      0.996050  
	 259A      1.004239   260A      1.005444   261A      1.007279  
	 262A      1.009591   263A      1.012135   264A      1.016311  
	 265A      1.028652   266A      1.035210   267A      1.051381  
	 268A      1.053758   269A      1.060446   270A      1.061597  
	 271A      1.077474   272A      1.080864   273A      1.082741  
	 274A      1.087557   275A      1.090884   276A      1.093595  
	 277A      1.101829   278A      1.103146   279A      1.107322  
	 280A      1.115259   281A      1.119312   282A      1.121670  
	 283A      1.130531   284A      1.136147   285A      1.139447  
	 286A      1.139478   287A      1.141032   288A      1.144614  
	 289A      1.152632   290A      1.158416   291A      1.162125  
	 292A      1.172898   293A      1.179204   294A      1.184263  
	 295A      1.184478   296A      1.193919   297A      1.199350  
	 298A      1.205224   299A      1.217603   300A      1.225576  
	 301A      1.229004   302A      1.234655   303A      1.235221  
	 304A      1.242009   305A      1.246511   306A      1.251866  
	 307A      1.252457   308A      1.262488   309A      1.265064  
	 310A      1.266257   311A      1.273219   312A      1.277382  
	 313A      1.279598   314A      1.283748   315A      1.291602  
	 316A      1.307015   317A      1.309349   318A      1.314977  
	 319A      1.320369   320A      1.322600   321A      1.328455  
	 322A      1.332509   323A      1.337527   324A      1.343855  
	 325A      1.344412   326A      1.347518   327A      1.354885  
	 328A      1.361339   329A      1.382529   330A      1.384347  
	 331A      1.397949   332A      1.400550   333A      1.404781  
	 334A      1.409179   335A      1.410804   336A      1.423459  
	 337A      1.424485   338A      1.426572   339A      1.428843  
	 340A      1.450441   341A      1.451086   342A      1.459285  
	 343A      1.469830   344A      1.470083   345A      1.495579  
	 346A      1.499787   347A      1.499832   348A      1.503477  
	 349A      1.513436   350A      1.515997   351A      1.518258  
	 352A      1.525402   353A      1.529417   354A      1.538029  
	 355A      1.542772   356A      1.545879   357A      1.551308  
	 358A      1.552296   359A      1.556508   360A      1.563392  
	 361A      1.567168   362A      1.576673   363A      1.585864  
	 364A      1.587596   365A      1.595732   366A      1.606862  
	 367A      1.611829   368A      1.624254   369A      1.626983  
	 370A      1.636136   371A      1.636647   372A      1.647741  
	 373A      1.671844   374A      1.694177   375A      1.703008  
	 376A      1.709433   377A      1.712662   378A      1.712865  
	 379A      1.715134   380A      1.720222   381A      1.724856  
	 382A      1.732119   383A      1.734143   384A      1.744367  
	 385A      1.747584   386A      1.761131   387A      1.773015  
	 388A      1.779323   389A      1.786701   390A      1.793469  
	 391A      1.796920   392A      1.799343   393A      1.811983  
	 394A      1.814059   395A      1.817429   396A      1.830697  
	 397A      1.833923   398A      1.839902   399A      1.841813  
	 400A      1.846703   401A      1.860582   402A      1.861738  
	 403A      1.865371   404A      1.868462   405A      1.879071  
	 406A      1.884686   407A      1.896332   408A      1.906787  
	 409A      1.909100   410A      1.915278   411A      1.922990  
	 412A      1.924797   413A      1.935742   414A      1.937682  
	 415A      1.940676   416A      1.940799   417A      1.953535  
	 418A      1.958759   419A      1.963265   420A      1.969644  
	 421A      1.995720   422A      2.006306   423A      2.021878  
	 424A      2.032336   425A      2.034970   426A      2.042779  
	 427A      2.043704   428A      2.044963   429A      2.045738  
	 430A      2.060657   431A      2.066974   432A      2.072812  
	 433A      2.080571   434A      2.094265   435A      2.095783  
	 436A      2.112740   437A      2.122164   438A      2.129417  
	 439A      2.135379   440A      2.139853   441A      2.145109  
	 442A      2.164240   443A      2.165523   444A      2.173266  
	 445A      2.175903   446A      2.179403   447A      2.192811  
	 448A      2.217408   449A      2.219505   450A      2.219901  
	 451A      2.232509   452A      2.236161   453A      2.245998  
	 454A      2.250776   455A      2.256422   456A      2.266986  
	 457A      2.271576   458A      2.276836   459A      2.282188  
	 460A      2.299508   461A      2.304294   462A      2.333454  
	 463A      2.342405   464A      2.343211   465A      2.359314  
	 466A      2.391539   467A      2.396383   468A      2.402922  
	 469A      2.407524   470A      2.416231   471A      2.421326  
	 472A      2.424188   473A      2.433749   474A      2.440179  
	 475A      2.451188   476A      2.457544   477A      2.469482  
	 478A      2.484241   479A      2.488579   480A      2.491991  
	 481A      2.501816   482A      2.518541   483A      2.536549  
	 484A      2.539927   485A      2.554213   486A      2.559901  
	 487A      2.567369   488A      2.567986   489A      2.575759  
	 490A      2.588208   491A      2.588851   492A      2.606754  
	 493A      2.622887   494A      2.623396   495A      2.640181  
	 496A      2.640564   497A      2.645731   498A      2.652634  
	 499A      2.663946   500A      2.666860   501A      2.700905  
	 502A      2.712553   503A      2.713274   504A      2.724153  
	 505A      2.759884   506A      2.774775   507A      2.791498  
	 508A      2.805526   509A      2.808533   510A      2.816290  
	 511A      2.834989   512A      2.850317   513A      2.855310  
	 514A      2.871199   515A      2.885835   516A      2.898912  
	 517A      2.902225   518A      2.914299   519A      2.927043  
	 520A      2.953210   521A      3.011644   522A      3.060287  
	 523A      3.143391   524A      3.158628   525A      3.182541  
	 526A      3.187083   527A      3.250536   528A      3.273640  
	 529A      3.275094   530A      3.283915   531A      3.314595  
	 532A      3.327896   533A      3.336677   534A      3.356438  
	 535A      3.361502   536A      3.389258   537A      3.401696  
	 538A      3.406232   539A      3.415782   540A      3.428662  
	 541A      3.430365   542A      3.438622   543A      3.443392  
	 544A      3.449266   545A      3.456192   546A      3.483510  
	 547A      3.491843   548A      3.499709   549A      3.528879  
	 550A      3.535610   551A      3.544297   552A      3.546818  
	 553A      3.556741   554A      3.559200   555A      3.598850  
	 556A      3.599529   557A      3.602357   558A      3.605558  
	 559A      3.618861   560A      3.627304   561A      3.639778  
	 562A      3.646672   563A      3.663482   564A      3.670034  
	 565A      3.680946   566A      3.682524   567A      3.692838  
	 568A      3.700060   569A      3.710997   570A      3.714305  
	 571A      3.718860   572A      3.719211   573A      3.742948  
	 574A      3.743545   575A      3.766363   576A      3.769437  
	 577A      3.779931   578A      3.789087   579A      3.799525  
	 580A      3.810186   581A      3.815337   582A      3.821723  
	 583A      3.829121   584A      3.836337   585A      3.839227  
	 586A      3.849366   587A      3.863694   588A      3.887747  
	 589A      3.890701   590A      3.904855   591A      3.904905  
	 592A      3.917991   593A      3.919036   594A      3.924296  
	 595A      3.928941   596A      3.939431   597A      3.958134  
	 598A      3.970153   599A      3.977042   600A      3.981505  
	 601A      3.985926   602A      3.991431   603A      4.006422  
	 604A      4.008856   605A      4.028767   606A      4.035286  
	 607A      4.038686   608A      4.055639   609A      4.055674  
	 610A      4.067068   611A      4.073927   612A      4.084966  
	 613A      4.093134   614A      4.107516   615A      4.123925  
	 616A      4.133984   617A      4.134761   618A      4.140058  
	 619A      4.152342   620A      4.162294   621A      4.166597  
	 622A      4.169174   623A      4.172022   624A      4.185926  
	 625A      4.188830   626A      4.201948   627A      4.209990  
	 628A      4.216571   629A      4.231099   630A      4.241757  
	 631A      4.243629   632A      4.251916   633A      4.252384  
	 634A      4.263408   635A      4.267001   636A      4.272865  
	 637A      4.276482   638A      4.316268   639A      4.319202  
	 640A      4.323011   641A      4.330967   642A      4.353204  
	 643A      4.357456   644A      4.367906   645A      4.382368  
	 646A      4.383171   647A      4.389197   648A      4.401138  
	 649A      4.410510   650A      4.413162   651A      4.417655  
	 652A      4.425135   653A      4.434062   654A      4.448557  
	 655A      4.458493   656A      4.458698   657A      4.466912  
	 658A      4.472139   659A      4.491753   660A      4.496041  
	 661A      4.501652   662A      4.508889   663A      4.509480  
	 664A      4.516680   665A      4.525667   666A      4.527967  
	 667A      4.533780   668A      4.534940   669A      4.557536  
	 670A      4.573376   671A      4.577226   672A      4.582212  
	 673A      4.589195   674A      4.598722   675A      4.601098  
	 676A      4.607265   677A      4.615025   678A      4.618843  
	 679A      4.629165   680A      4.640537   681A      4.657701  
	 682A      4.664554   683A      4.679219   684A      4.703261  
	 685A      4.707086   686A      4.718290   687A      4.737374  
	 688A      4.751501   689A      4.756590   690A      4.761196  
	 691A      4.763480   692A      4.771236   693A      4.778450  
	 694A      4.787258   695A      4.813475   696A      4.832577  
	 697A      4.841846   698A      4.863186   699A      4.870817  
	 700A      4.875038   701A      4.880342   702A      4.890824  
	 703A      4.893458   704A      4.908277   705A      4.914016  
	 706A      4.925469   707A      4.945934   708A      4.956845  
	 709A      4.970992   710A      4.982482   711A      5.000886  
	 712A      5.008835   713A      5.022878   714A      5.044507  
	 715A      5.058162   716A      5.081874   717A      5.096241  
	 718A      5.100723   719A      5.109334   720A      5.123425  
	 721A      5.133195   722A      5.156035   723A      5.165585  
	 724A      5.191283   725A      5.200388   726A      5.204007  
	 727A      5.207931   728A      5.213702   729A      5.222929  
	 730A      5.223087   731A      5.226523   732A      5.233923  
	 733A      5.237182   734A      5.243893   735A      5.264019  
	 736A      5.271754   737A      5.274705   738A      5.278431  
	 739A      5.284377   740A      5.290146   741A      5.328004  
	 742A      5.346387   743A      5.353233   744A      5.357706  
	 745A      5.371118   746A      5.377719   747A      5.380776  
	 748A      5.399267   749A      5.401773   750A      5.423478  
	 751A      5.424075   752A      5.442298   753A      5.453167  
	 754A      5.453841   755A      5.463431   756A      5.475917  
	 757A      5.489976   758A      5.500442   759A      5.529347  
	 760A      5.529633   761A      5.535254   762A      5.554773  
	 763A      5.563111   764A      5.568836   765A      5.599044  
	 766A      5.620578   767A      5.646692   768A      5.653087  
	 769A      5.666013   770A      5.686481   771A      5.692548  
	 772A      5.757083   773A      5.855793   774A      5.859791  
	 775A      5.869342   776A      5.869527   777A      5.889817  
	 778A      5.897148   779A      5.929031   780A      5.937929  
	 781A      5.942380   782A      5.954257   783A      5.960463  
	 784A      6.026614   785A      6.052506   786A      6.080971  
	 787A      6.304183   788A      6.312563   789A      6.327471  
	 790A      6.331590   791A      6.404523   792A      6.408228  
	 793A      6.412117   794A      6.421959   795A      6.440081  
	 796A      6.457952   797A      6.471166   798A      6.480659  
	 799A      6.500764   800A      6.507098   801A      6.571042  
	 802A      6.639071   803A      6.720286   804A      6.762403  
	 805A      6.768638   806A      6.796611   807A      6.970045  
	 808A      7.024394   809A      7.029701   810A      7.046497  
	 811A      7.070916   812A      7.075099   813A      7.292822  
	 814A      7.376487   815A      7.472423   816A      7.489888  
	 817A     16.212390   818A     16.354534   819A     16.901849  
	 820A     16.994020   821A     19.713802   822A     19.826344  
	 823A     19.917975   824A     20.375915   825A     20.483266  
	 826A     20.606107   827A     21.291205   828A     21.484310  

	Final Occupation by Irrep:
	          A 
	DOCC [    42 ]

  Energy converged.

  @RHF Final Energy:  -461.42501536396117

   => Energetics <=

    Nuclear Repulsion Energy =            694.5226374180629136
    One-Electron Energy =               -2002.2035777505845999
    Two-Electron Energy =                 846.2559249685592704
    DFT Exchange-Correlation Energy =       0.0000000000000000
    Empirical Dispersion Energy =           0.0000000000000000
    Total Energy =                       -461.4250153639624159



Properties will be evaluated at   0.000000,   0.000000,   0.000000 Bohr
  ==> Properties <==


Properties computed using the SCF density density matrix
  Nuclear Dipole Moment: (a.u.)
     X:     0.0001      Y:    -0.0000      Z:    -0.0002

  Electronic Dipole Moment: (a.u.)
     X:    -0.0003      Y:     0.0000      Z:    -0.0001

  Dipole Moment: (a.u.)
     X:    -0.0002      Y:     0.0000      Z:    -0.0004     Total:     0.0004

  Dipole Moment: (Debye)
     X:    -0.0005      Y:     0.0000      Z:    -0.0010     Total:     0.0011


  Saving occupied orbitals to File 180.

  Saving SAPT 2-DIMER file.

*** tstop() called on pharma.bme.utexas.edu at Thu Feb 20 20:47:07 2014
Module time:
	user time   =    1247.62 seconds =      20.79 minutes
	system time =       8.77 seconds =       0.15 minutes
	total time  =        332 seconds =       5.53 minutes
Total time:
	user time   =    1247.62 seconds =      20.79 minutes
	system time =       8.77 seconds =       0.15 minutes
	total time  =        332 seconds =       5.53 minutes

  //>>>>>>>>>>>>>>>>>>>>>>>>>>>>>>>>>>>//
  //            Monomer A HF           //
  //<<<<<<<<<<<<<<<<<<<<<<<<<<<<<<<<<<<//


  No DF_BASIS_SCF auxiliary basis selected, defaulting to aug-cc-pvtz-jkfit


*** tstart() called on pharma.bme.utexas.edu
*** at Thu Feb 20 20:47:07 2014


         ---------------------------------------------------------
                                   SCF
            by Justin Turney, Rob Parrish, and Andy Simmonett
                              RHF Reference
                        4 Threads,  30000 MiB Core
         ---------------------------------------------------------

  ==> Geometry <==

    Molecular point group: c1
    Full point group: C1

    Geometry (in Angstrom), charge = 0, multiplicity = 1:

       Center              X                  Y                   Z       
    ------------   -----------------  -----------------  -----------------
           C          0.394839845992     1.119283933610    -1.168288112112
           H          1.040036169992     1.984687399610    -1.101091726112
           C          0.940430251992    -0.160963668390    -1.104595377112
           H          2.007148797992    -0.288811645390    -0.982085860112
           C          0.109079483992    -1.276238429390    -1.186178467112
           H          0.532639169992    -2.270144447390    -1.134078943112
           C         -1.267383324008    -1.111785825390    -1.329142490112
           H         -1.912261175008    -1.977985470390    -1.392542375112
           C         -1.813331119008     0.169338793610    -1.390374913112
           H         -2.881588270008     0.297509381610    -1.502532010112
           C         -0.981633080008     1.284931119610    -1.312230328112
           H         -1.404706176008     2.279288436610    -1.361715030112
           C(Gh)      1.267311082992     1.111823285610     1.329640742888
           H(Gh)      1.912156206992     1.978007028610     1.393391460888
           C(Gh)      1.813264208992    -0.169327813390     1.391160475888
           H(Gh)      2.881471092992    -0.297474863390     1.503904694888
           C(Gh)      0.981614728992    -1.284927913390     1.312510046888
           H(Gh)      1.404696435992    -2.279280348390     1.362163709888
           C(Gh)     -0.394786832008    -1.119292884390     1.167793298888
           H(Gh)     -1.039889428008    -1.984703128390     1.100160666888
           C(Gh)     -0.940346703008     0.160939862610     1.103827470888
           H(Gh)     -2.006974737008     0.288769075610     0.980648709888
           C(Gh)     -0.109069753008     1.276220624610     1.185898414888
           H(Gh)     -0.532594635008     2.270125658610     1.133529484888

  Running in c1 symmetry.

  Nuclear repulsion =  203.712002478900160

  Charge       = 0
  Multiplicity = 1
  Electrons    = 42
  Nalpha       = 21
  Nbeta        = 21

  ==> Algorithm <==

  SCF Algorithm Type is DF.
  DIIS enabled.
  MOM disabled.
  Fractional occupation disabled.
  Guess Type is CORE.
  Energy threshold   = 1.00e-08
  Density threshold  = 1.00e-08
  Integral threshold = 0.00e+00

  ==> Primary Basis <==

  Basis Set: AUG-CC-PVTZ
    Number of shells: 276
    Number of basis function: 828
    Number of Cartesian functions: 960
    Spherical Harmonics?: true
    Max angular momentum: 3

  ==> Pre-Iterations <==

   -------------------------------------------------------
    Irrep   Nso     Nmo     Nalpha   Nbeta   Ndocc  Nsocc
   -------------------------------------------------------
     A        828     828       0       0       0       0
   -------------------------------------------------------
    Total     828     828      21      21      21       0
   -------------------------------------------------------

 OEINTS: Wrapper to libmints.
   by Justin Turney

   Calculation information:
      Number of atoms:                  24
      Number of AO shells:             276
      Number of SO shells:             276
      Number of primitives:            492
      Number of atomic orbitals:       960
      Number of basis functions:       828

      Number of irreps:                  1
      Number of functions per irrep: [ 828 ]

      Overlap, kinetic, potential, dipole, and quadrupole integrals
        stored in file 35.

  ==> Integral Setup <==

  ==> DFJK: Density-Fitted J/K Matrices <==

    J tasked:                  Yes
    K tasked:                  Yes
    wK tasked:                  No
    OpenMP threads:              4
    Integrals threads:           4
    Memory (MB):             21457
    Algorithm:                Core
    Integral Cache:           LOAD
    Schwarz Cutoff:          0E+00
    Fitting Condition:       1E-12

   => Auxiliary Basis Set <=

  Basis Set: aug-cc-pvtz-jkfit
    Number of shells: 528
    Number of basis function: 1800
    Number of Cartesian functions: 2232
    Spherical Harmonics?: true
    Max angular momentum: 4

  Minimum eigenvalue in the overlap matrix is 1.6915860654E-07.
  Using Symmetric Orthogonalization.
  SCF Guess: Core (One-Electron) Hamiltonian.

  Guess energy:  -182.21403008709831

  ==> Iterations <==

                        Total Energy        Delta E     RMS |[F,P]|

   @RHF iter   1:  -182.71700419133055   -1.82717e+02   1.19577e-02 
   @RHF iter   2:  -169.79999115937602    1.29170e+01   5.97848e-03 DIIS
   @RHF iter   3:  -220.24932324788404   -5.04493e+01   5.03722e-03 DIIS
   @RHF iter   4:  -228.73722079849591   -8.48790e+00   2.20340e-03 DIIS
   @RHF iter   5:  -230.19482188592730   -1.45760e+00   1.20402e-03 DIIS
   @RHF iter   6:  -230.66835245577715   -4.73531e-01   5.13675e-04 DIIS
   @RHF iter   7:  -230.77742729547668   -1.09075e-01   8.29440e-05 DIIS
   @RHF iter   8:  -230.78158303488931   -4.15574e-03   1.45531e-05 DIIS
   @RHF iter   9:  -230.78175225934484   -1.69224e-04   4.42730e-06 DIIS
   @RHF iter  10:  -230.78176557492293   -1.33156e-05   1.85750e-06 DIIS
   @RHF iter  11:  -230.78176932099450   -3.74607e-06   9.01385e-07 DIIS
   @RHF iter  12:  -230.78177040879427   -1.08780e-06   4.42074e-07 DIIS
   @RHF iter  13:  -230.78177087223651   -4.63442e-07   1.72994e-07 DIIS
   @RHF iter  14:  -230.78177092554222   -5.33057e-08   5.15208e-08 DIIS
   @RHF iter  15:  -230.78177092975005   -4.20783e-09   1.67093e-08 DIIS
   @RHF iter  16:  -230.78177092995850   -2.08445e-10   5.90468e-09 DIIS

  ==> Post-Iterations <==

	Orbital Energies (a.u.)
	-----------------------

	Doubly Occupied:                                                      

	   1A    -11.236228     2A    -11.235652     3A    -11.235626  
	   4A    -11.234401     5A    -11.234394     6A    -11.233777  
	   7A     -1.150501     8A     -1.014942     9A     -1.014743  
	  10A     -0.824160    11A     -0.824099    12A     -0.709671  
	  13A     -0.644004    14A     -0.619209    15A     -0.588186  
	  16A     -0.587915    17A     -0.502497    18A     -0.494975  
	  19A     -0.494712    20A     -0.336900    21A     -0.336781  

	Virtual:                                                              

	  22A      0.023632    23A      0.031506    24A      0.031552  
	  25A      0.038924    26A      0.044068    27A      0.044236  
	  28A      0.049138    29A      0.049493    30A      0.059911  
	  31A      0.063677    32A      0.065667    33A      0.078317  
	  34A      0.081054    35A      0.092569    36A      0.097534  
	  37A      0.100975    38A      0.102425    39A      0.105297  
	  40A      0.110389    41A      0.113102    42A      0.116357  
	  43A      0.119503    44A      0.120553    45A      0.121232  
	  46A      0.123365    47A      0.123381    48A      0.135659  
	  49A      0.140721    50A      0.142504    51A      0.145365  
	  52A      0.146106    53A      0.149028    54A      0.152609  
	  55A      0.154880    56A      0.156162    57A      0.158831  
	  58A      0.161593    59A      0.167226    60A      0.174344  
	  61A      0.175978    62A      0.178853    63A      0.181689  
	  64A      0.186666    65A      0.188825    66A      0.190726  
	  67A      0.193222    68A      0.194305    69A      0.205354  
	  70A      0.208409    71A      0.215753    72A      0.222572  
	  73A      0.229166    74A      0.229678    75A      0.241237  
	  76A      0.242770    77A      0.250293    78A      0.253968  
	  79A      0.266100    80A      0.268319    81A      0.271212  
	  82A      0.271734    83A      0.275822    84A      0.283300  
	  85A      0.287559    86A      0.291079    87A      0.293900  
	  88A      0.302228    89A      0.304109    90A      0.309944  
	  91A      0.312093    92A      0.318060    93A      0.322181  
	  94A      0.333727    95A      0.335095    96A      0.340738  
	  97A      0.341140    98A      0.349805    99A      0.351663  
	 100A      0.355006   101A      0.358512   102A      0.362591  
	 103A      0.366902   104A      0.369130   105A      0.371544  
	 106A      0.377100   107A      0.388150   108A      0.394266  
	 109A      0.395741   110A      0.397964   111A      0.401700  
	 112A      0.411649   113A      0.415533   114A      0.421007  
	 115A      0.427000   116A      0.435774   117A      0.441084  
	 118A      0.441749   119A      0.446546   120A      0.448412  
	 121A      0.452077   122A      0.455408   123A      0.458871  
	 124A      0.462646   125A      0.466068   126A      0.477529  
	 127A      0.479443   128A      0.483903   129A      0.489449  
	 130A      0.495748   131A      0.500644   132A      0.502765  
	 133A      0.505614   134A      0.507742   135A      0.511795  
	 136A      0.512807   137A      0.514235   138A      0.515468  
	 139A      0.524936   140A      0.525895   141A      0.534206  
	 142A      0.535555   143A      0.538718   144A      0.545735  
	 145A      0.551855   146A      0.553050   147A      0.555779  
	 148A      0.573943   149A      0.575145   150A      0.576666  
	 151A      0.580546   152A      0.586770   153A      0.588555  
	 154A      0.595221   155A      0.598168   156A      0.601043  
	 157A      0.605268   158A      0.610389   159A      0.611845  
	 160A      0.613123   161A      0.618761   162A      0.624534  
	 163A      0.632970   164A      0.636314   165A      0.642353  
	 166A      0.645696   167A      0.652561   168A      0.658870  
	 169A      0.661274   170A      0.663631   171A      0.665390  
	 172A      0.673226   173A      0.679927   174A      0.683432  
	 175A      0.686263   176A      0.689389   177A      0.692128  
	 178A      0.703866   179A      0.706104   180A      0.710979  
	 181A      0.711796   182A      0.717477   183A      0.721639  
	 184A      0.722483   185A      0.730048   186A      0.739435  
	 187A      0.743411   188A      0.747214   189A      0.750244  
	 190A      0.754919   191A      0.760590   192A      0.768473  
	 193A      0.772481   194A      0.776400   195A      0.779798  
	 196A      0.782726   197A      0.792051   198A      0.795174  
	 199A      0.796757   200A      0.805082   201A      0.809633  
	 202A      0.818392   203A      0.820180   204A      0.835022  
	 205A      0.838492   206A      0.841518   207A      0.845808  
	 208A      0.849499   209A      0.854659   210A      0.863677  
	 211A      0.869999   212A      0.872453   213A      0.876921  
	 214A      0.880922   215A      0.890858   216A      0.892893  
	 217A      0.898966   218A      0.903615   219A      0.912223  
	 220A      0.915264   221A      0.917206   222A      0.925541  
	 223A      0.927971   224A      0.930437   225A      0.943475  
	 226A      0.950643   227A      0.959098   228A      0.971473  
	 229A      0.977111   230A      0.983005   231A      0.989637  
	 232A      0.990896   233A      0.996574   234A      1.007588  
	 235A      1.009963   236A      1.012573   237A      1.013857  
	 238A      1.025978   239A      1.038421   240A      1.043505  
	 241A      1.046799   242A      1.057461   243A      1.063526  
	 244A      1.070941   245A      1.073580   246A      1.080324  
	 247A      1.092881   248A      1.097998   249A      1.104912  
	 250A      1.113578   251A      1.113877   252A      1.116669  
	 253A      1.122959   254A      1.127068   255A      1.129499  
	 256A      1.131358   257A      1.133127   258A      1.143064  
	 259A      1.146707   260A      1.147544   261A      1.160772  
	 262A      1.162011   263A      1.166160   264A      1.172554  
	 265A      1.189175   266A      1.195891   267A      1.198791  
	 268A      1.201842   269A      1.208762   270A      1.212591  
	 271A      1.213851   272A      1.221765   273A      1.224516  
	 274A      1.231599   275A      1.236433   276A      1.242048  
	 277A      1.248992   278A      1.251467   279A      1.259972  
	 280A      1.263273   281A      1.269600   282A      1.276094  
	 283A      1.278117   284A      1.282694   285A      1.286551  
	 286A      1.294603   287A      1.303119   288A      1.304070  
	 289A      1.311662   290A      1.315550   291A      1.321133  
	 292A      1.324379   293A      1.331568   294A      1.332466  
	 295A      1.339912   296A      1.348369   297A      1.351248  
	 298A      1.354226   299A      1.359323   300A      1.365026  
	 301A      1.367396   302A      1.383994   303A      1.384396  
	 304A      1.396741   305A      1.400877   306A      1.406361  
	 307A      1.407912   308A      1.412275   309A      1.419013  
	 310A      1.432051   311A      1.435697   312A      1.437206  
	 313A      1.452278   314A      1.462713   315A      1.470300  
	 316A      1.478787   317A      1.490379   318A      1.500057  
	 319A      1.503877   320A      1.516513   321A      1.520669  
	 322A      1.521159   323A      1.530840   324A      1.540844  
	 325A      1.547000   326A      1.550399   327A      1.553655  
	 328A      1.555054   329A      1.557447   330A      1.560873  
	 331A      1.570044   332A      1.573724   333A      1.578473  
	 334A      1.581628   335A      1.586691   336A      1.597193  
	 337A      1.604808   338A      1.613783   339A      1.621099  
	 340A      1.627758   341A      1.632649   342A      1.638442  
	 343A      1.647095   344A      1.649038   345A      1.661232  
	 346A      1.666004   347A      1.676487   348A      1.679973  
	 349A      1.684394   350A      1.692971   351A      1.709371  
	 352A      1.714806   353A      1.719249   354A      1.725156  
	 355A      1.729862   356A      1.747028   357A      1.748274  
	 358A      1.749216   359A      1.754074   360A      1.763401  
	 361A      1.768653   362A      1.776024   363A      1.779191  
	 364A      1.787271   365A      1.794852   366A      1.811588  
	 367A      1.815249   368A      1.816385   369A      1.829490  
	 370A      1.836208   371A      1.840417   372A      1.843281  
	 373A      1.846557   374A      1.865862   375A      1.871619  
	 376A      1.875012   377A      1.878912   378A      1.886711  
	 379A      1.892394   380A      1.899159   381A      1.901587  
	 382A      1.907127   383A      1.911301   384A      1.918934  
	 385A      1.920308   386A      1.935469   387A      1.942334  
	 388A      1.948916   389A      1.960168   390A      1.963795  
	 391A      1.971721   392A      1.980189   393A      1.980912  
	 394A      2.001031   395A      2.015429   396A      2.018989  
	 397A      2.027355   398A      2.033253   399A      2.036787  
	 400A      2.042990   401A      2.049590   402A      2.058364  
	 403A      2.066499   404A      2.075383   405A      2.086757  
	 406A      2.092713   407A      2.104820   408A      2.113337  
	 409A      2.124906   410A      2.132399   411A      2.138905  
	 412A      2.143936   413A      2.157611   414A      2.159534  
	 415A      2.164502   416A      2.177070   417A      2.179035  
	 418A      2.191454   419A      2.193613   420A      2.202739  
	 421A      2.215266   422A      2.221798   423A      2.223278  
	 424A      2.241207   425A      2.252892   426A      2.276425  
	 427A      2.281057   428A      2.285732   429A      2.295361  
	 430A      2.307081   431A      2.311736   432A      2.340252  
	 433A      2.342527   434A      2.345454   435A      2.354351  
	 436A      2.366496   437A      2.382351   438A      2.385487  
	 439A      2.390793   440A      2.399379   441A      2.406548  
	 442A      2.417517   443A      2.432844   444A      2.434040  
	 445A      2.441048   446A      2.448671   447A      2.462123  
	 448A      2.470490   449A      2.476288   450A      2.485909  
	 451A      2.491501   452A      2.498775   453A      2.508625  
	 454A      2.511330   455A      2.521729   456A      2.530094  
	 457A      2.549022   458A      2.557303   459A      2.562051  
	 460A      2.569159   461A      2.574796   462A      2.579600  
	 463A      2.587088   464A      2.591013   465A      2.595521  
	 466A      2.603209   467A      2.611266   468A      2.619225  
	 469A      2.623930   470A      2.635429   471A      2.642653  
	 472A      2.650238   473A      2.655772   474A      2.662899  
	 475A      2.665845   476A      2.683289   477A      2.698334  
	 478A      2.709915   479A      2.718451   480A      2.721417  
	 481A      2.734071   482A      2.740521   483A      2.758884  
	 484A      2.773224   485A      2.794984   486A      2.808956  
	 487A      2.827814   488A      2.833264   489A      2.857781  
	 490A      2.866623   491A      2.879026   492A      2.891255  
	 493A      2.907482   494A      2.916151   495A      2.922884  
	 496A      2.935069   497A      2.944327   498A      2.954460  
	 499A      2.976006   500A      2.990879   501A      2.999510  
	 502A      3.001918   503A      3.012489   504A      3.041493  
	 505A      3.087474   506A      3.120283   507A      3.153186  
	 508A      3.196696   509A      3.219672   510A      3.229450  
	 511A      3.240380   512A      3.267792   513A      3.305607  
	 514A      3.322201   515A      3.336046   516A      3.382244  
	 517A      3.413222   518A      3.435690   519A      3.446246  
	 520A      3.462602   521A      3.479119   522A      3.481995  
	 523A      3.491229   524A      3.510473   525A      3.555102  
	 526A      3.559630   527A      3.564512   528A      3.569609  
	 529A      3.590750   530A      3.596492   531A      3.611924  
	 532A      3.631777   533A      3.639082   534A      3.681632  
	 535A      3.689328   536A      3.696440   537A      3.702142  
	 538A      3.714539   539A      3.721078   540A      3.726495  
	 541A      3.742025   542A      3.759584   543A      3.761813  
	 544A      3.775312   545A      3.784043   546A      3.814149  
	 547A      3.825357   548A      3.836763   549A      3.859372  
	 550A      3.879446   551A      3.894298   552A      3.896254  
	 553A      3.898138   554A      3.924140   555A      3.928580  
	 556A      3.933662   557A      3.940451   558A      3.946148  
	 559A      3.971480   560A      3.982702   561A      3.992926  
	 562A      4.021935   563A      4.031392   564A      4.031526  
	 565A      4.040503   566A      4.047665   567A      4.056367  
	 568A      4.067307   569A      4.069984   570A      4.077906  
	 571A      4.081383   572A      4.106318   573A      4.113352  
	 574A      4.121472   575A      4.128546   576A      4.137135  
	 577A      4.173786   578A      4.179740   579A      4.190305  
	 580A      4.195151   581A      4.201524   582A      4.207344  
	 583A      4.220797   584A      4.239483   585A      4.246087  
	 586A      4.263080   587A      4.273603   588A      4.278633  
	 589A      4.286554   590A      4.301777   591A      4.309908  
	 592A      4.317805   593A      4.331879   594A      4.335363  
	 595A      4.340584   596A      4.347324   597A      4.356573  
	 598A      4.366246   599A      4.380214   600A      4.395760  
	 601A      4.406557   602A      4.409178   603A      4.412498  
	 604A      4.426010   605A      4.440149   606A      4.447606  
	 607A      4.449519   608A      4.462296   609A      4.465399  
	 610A      4.473402   611A      4.476047   612A      4.484838  
	 613A      4.502763   614A      4.504150   615A      4.512172  
	 616A      4.521492   617A      4.525932   618A      4.535523  
	 619A      4.540999   620A      4.547459   621A      4.558080  
	 622A      4.574352   623A      4.587968   624A      4.606364  
	 625A      4.608457   626A      4.626455   627A      4.630881  
	 628A      4.641729   629A      4.665505   630A      4.673801  
	 631A      4.681628   632A      4.698573   633A      4.715592  
	 634A      4.736484   635A      4.741779   636A      4.745587  
	 637A      4.762651   638A      4.772501   639A      4.795962  
	 640A      4.800394   641A      4.816852   642A      4.817687  
	 643A      4.843195   644A      4.847122   645A      4.858546  
	 646A      4.878877   647A      4.889742   648A      4.902346  
	 649A      4.915881   650A      4.926688   651A      4.932376  
	 652A      4.944233   653A      4.948609   654A      4.958395  
	 655A      4.967457   656A      4.972705   657A      4.999675  
	 658A      5.003596   659A      5.010922   660A      5.021420  
	 661A      5.027327   662A      5.057273   663A      5.066572  
	 664A      5.072924   665A      5.090819   666A      5.094353  
	 667A      5.104055   668A      5.125068   669A      5.128900  
	 670A      5.142956   671A      5.149461   672A      5.158243  
	 673A      5.163800   674A      5.169439   675A      5.174491  
	 676A      5.184086   677A      5.187301   678A      5.196639  
	 679A      5.209783   680A      5.218991   681A      5.238510  
	 682A      5.244778   683A      5.251019   684A      5.260205  
	 685A      5.273243   686A      5.291533   687A      5.297031  
	 688A      5.301698   689A      5.306973   690A      5.310039  
	 691A      5.319533   692A      5.336786   693A      5.346827  
	 694A      5.356302   695A      5.370206   696A      5.381936  
	 697A      5.394704   698A      5.407024   699A      5.418621  
	 700A      5.427450   701A      5.440670   702A      5.441282  
	 703A      5.455318   704A      5.466093   705A      5.477622  
	 706A      5.488307   707A      5.493004   708A      5.500765  
	 709A      5.526499   710A      5.535705   711A      5.552241  
	 712A      5.569896   713A      5.578358   714A      5.581647  
	 715A      5.609862   716A      5.629561   717A      5.640982  
	 718A      5.668483   719A      5.671810   720A      5.680526  
	 721A      5.695727   722A      5.706508   723A      5.728543  
	 724A      5.750830   725A      5.781131   726A      5.798040  
	 727A      5.798862   728A      5.804971   729A      5.811086  
	 730A      5.839823   731A      5.848251   732A      5.874660  
	 733A      5.884268   734A      5.905243   735A      5.923425  
	 736A      5.938767   737A      5.943005   738A      5.949836  
	 739A      5.960921   740A      5.978291   741A      5.987609  
	 742A      6.014445   743A      6.027041   744A      6.037938  
	 745A      6.053282   746A      6.066187   747A      6.072485  
	 748A      6.077363   749A      6.082486   750A      6.109120  
	 751A      6.188614   752A      6.198318   753A      6.221511  
	 754A      6.227772   755A      6.251396   756A      6.277362  
	 757A      6.293518   758A      6.321995   759A      6.331676  
	 760A      6.334778   761A      6.409843   762A      6.450323  
	 763A      6.454504   764A      6.465627   765A      6.480146  
	 766A      6.519942   767A      6.578740   768A      6.619943  
	 769A      6.633963   770A      6.661433   771A      6.733213  
	 772A      6.746177   773A      6.768708   774A      6.931010  
	 775A      6.944964   776A      6.955450   777A      7.000213  
	 778A      7.019011   779A      7.030002   780A      7.061804  
	 781A      7.069471   782A      7.265379   783A      7.269314  
	 784A      7.299672   785A      7.378757   786A      7.399522  
	 787A      7.472209   788A      7.479164   789A      7.523894  
	 790A      7.564149   791A      7.630365   792A      7.733893  
	 793A      7.746518   794A      7.761144   795A      7.790668  
	 796A      7.854009   797A      7.947980   798A      8.050560  
	 799A      8.208071   800A      8.251545   801A      8.276130  
	 802A      8.310355   803A      8.440395   804A      8.450792  
	 805A      9.109596   806A      9.160576   807A      9.436153  
	 808A      9.708728   809A      9.806954   810A     10.160483  
	 811A     10.199807   812A     11.058119   813A     11.098467  
	 814A     11.613166   815A     11.699196   816A     11.721084  
	 817A     16.548571   818A     16.685055   819A     19.826826  
	 820A     20.435835   821A     20.666478   822A     20.875499  
	 823A     50.716484   824A     50.959985   825A     57.121366  
	 826A     57.456300   827A     57.881258   828A     58.457893  

	Final Occupation by Irrep:
	          A 
	DOCC [    21 ]

  Energy converged.

  @RHF Final Energy:  -230.78177092995850

   => Energetics <=

    Nuclear Repulsion Energy =            203.7120024789001604
    One-Electron Energy =                -713.8808022013282653
    Two-Electron Energy =                 279.3870287924689251
    DFT Exchange-Correlation Energy =       0.0000000000000000
    Empirical Dispersion Energy =           0.0000000000000000
    Total Energy =                       -230.7817709299591797



Properties will be evaluated at   0.000000,   0.000000,   0.000000 Bohr
  ==> Properties <==


Properties computed using the SCF density density matrix
  Nuclear Dipole Moment: (a.u.)
     X:   -34.6325      Y:     0.3249      Z:   -99.0574

  Electronic Dipole Moment: (a.u.)
     X:    34.6322      Y:    -0.3249      Z:    99.0616

  Dipole Moment: (a.u.)
     X:    -0.0003      Y:     0.0000      Z:     0.0042     Total:     0.0042

  Dipole Moment: (Debye)
     X:    -0.0007      Y:     0.0001      Z:     0.0106     Total:     0.0106


  Saving occupied orbitals to File 180.

  Saving SAPT 2-MONOMER_A file.

*** tstop() called on pharma.bme.utexas.edu at Thu Feb 20 20:50:24 2014
Module time:
	user time   =     732.36 seconds =      12.21 minutes
	system time =       6.43 seconds =       0.11 minutes
	total time  =        197 seconds =       3.28 minutes
Total time:
	user time   =    1979.99 seconds =      33.00 minutes
	system time =      15.20 seconds =       0.25 minutes
	total time  =        529 seconds =       8.82 minutes

  //>>>>>>>>>>>>>>>>>>>>>>>>>>>>>>>>>>>//
  //            Monomer B HF           //
  //<<<<<<<<<<<<<<<<<<<<<<<<<<<<<<<<<<<//


  No DF_BASIS_SCF auxiliary basis selected, defaulting to aug-cc-pvtz-jkfit


*** tstart() called on pharma.bme.utexas.edu
*** at Thu Feb 20 20:50:24 2014


         ---------------------------------------------------------
                                   SCF
            by Justin Turney, Rob Parrish, and Andy Simmonett
                              RHF Reference
                        4 Threads,  30000 MiB Core
         ---------------------------------------------------------

  ==> Geometry <==

    Molecular point group: c1
    Full point group: C1

    Geometry (in Angstrom), charge = 0, multiplicity = 1:

       Center              X                  Y                   Z       
    ------------   -----------------  -----------------  -----------------
           C(Gh)      0.394839845992     1.119283933610    -1.168288112112
           H(Gh)      1.040036169992     1.984687399610    -1.101091726112
           C(Gh)      0.940430251992    -0.160963668390    -1.104595377112
           H(Gh)      2.007148797992    -0.288811645390    -0.982085860112
           C(Gh)      0.109079483992    -1.276238429390    -1.186178467112
           H(Gh)      0.532639169992    -2.270144447390    -1.134078943112
           C(Gh)     -1.267383324008    -1.111785825390    -1.329142490112
           H(Gh)     -1.912261175008    -1.977985470390    -1.392542375112
           C(Gh)     -1.813331119008     0.169338793610    -1.390374913112
           H(Gh)     -2.881588270008     0.297509381610    -1.502532010112
           C(Gh)     -0.981633080008     1.284931119610    -1.312230328112
           H(Gh)     -1.404706176008     2.279288436610    -1.361715030112
           C          1.267311082992     1.111823285610     1.329640742888
           H          1.912156206992     1.978007028610     1.393391460888
           C          1.813264208992    -0.169327813390     1.391160475888
           H          2.881471092992    -0.297474863390     1.503904694888
           C          0.981614728992    -1.284927913390     1.312510046888
           H          1.404696435992    -2.279280348390     1.362163709888
           C         -0.394786832008    -1.119292884390     1.167793298888
           H         -1.039889428008    -1.984703128390     1.100160666888
           C         -0.940346703008     0.160939862610     1.103827470888
           H         -2.006974737008     0.288769075610     0.980648709888
           C         -0.109069753008     1.276220624610     1.185898414888
           H         -0.532594635008     2.270125658610     1.133529484888

  Running in c1 symmetry.

  Nuclear repulsion =  203.711723773432965

  Charge       = 0
  Multiplicity = 1
  Electrons    = 42
  Nalpha       = 21
  Nbeta        = 21

  ==> Algorithm <==

  SCF Algorithm Type is DF.
  DIIS enabled.
  MOM disabled.
  Fractional occupation disabled.
  Guess Type is CORE.
  Energy threshold   = 1.00e-08
  Density threshold  = 1.00e-08
  Integral threshold = 0.00e+00

  ==> Primary Basis <==

  Basis Set: AUG-CC-PVTZ
    Number of shells: 276
    Number of basis function: 828
    Number of Cartesian functions: 960
    Spherical Harmonics?: true
    Max angular momentum: 3

  ==> Pre-Iterations <==

   -------------------------------------------------------
    Irrep   Nso     Nmo     Nalpha   Nbeta   Ndocc  Nsocc
   -------------------------------------------------------
     A        828     828       0       0       0       0
   -------------------------------------------------------
    Total     828     828      21      21      21       0
   -------------------------------------------------------

 OEINTS: Wrapper to libmints.
   by Justin Turney

   Calculation information:
      Number of atoms:                  24
      Number of AO shells:             276
      Number of SO shells:             276
      Number of primitives:            492
      Number of atomic orbitals:       960
      Number of basis functions:       828

      Number of irreps:                  1
      Number of functions per irrep: [ 828 ]

      Overlap, kinetic, potential, dipole, and quadrupole integrals
        stored in file 35.

  ==> Integral Setup <==

  ==> DFJK: Density-Fitted J/K Matrices <==

    J tasked:                  Yes
    K tasked:                  Yes
    wK tasked:                  No
    OpenMP threads:              4
    Integrals threads:           4
    Memory (MB):             21457
    Algorithm:                Core
    Integral Cache:           LOAD
    Schwarz Cutoff:          0E+00
    Fitting Condition:       1E-12

   => Auxiliary Basis Set <=

  Basis Set: aug-cc-pvtz-jkfit
    Number of shells: 528
    Number of basis function: 1800
    Number of Cartesian functions: 2232
    Spherical Harmonics?: true
    Max angular momentum: 4

  Minimum eigenvalue in the overlap matrix is 1.6915860654E-07.
  Using Symmetric Orthogonalization.
  SCF Guess: Core (One-Electron) Hamiltonian.

  Guess energy:  -182.21386768850161

  ==> Iterations <==

                        Total Energy        Delta E     RMS |[F,P]|

   @RHF iter   1:  -182.71704264557306   -1.82717e+02   1.19577e-02 
   @RHF iter   2:  -169.80055573329614    1.29165e+01   5.97851e-03 DIIS
   @RHF iter   3:  -220.24931508752573   -5.04488e+01   5.03724e-03 DIIS
   @RHF iter   4:  -228.73806937316752   -8.48875e+00   2.20285e-03 DIIS
   @RHF iter   5:  -230.19597261507889   -1.45790e+00   1.20279e-03 DIIS
   @RHF iter   6:  -230.66840206940012   -4.72429e-01   5.13600e-04 DIIS
   @RHF iter   7:  -230.77743250636590   -1.09030e-01   8.29057e-05 DIIS
   @RHF iter   8:  -230.78158322152373   -4.15072e-03   1.45467e-05 DIIS
   @RHF iter   9:  -230.78175207754518   -1.68856e-04   4.40555e-06 DIIS
   @RHF iter  10:  -230.78176530744039   -1.32299e-05   1.85432e-06 DIIS
   @RHF iter  11:  -230.78176901205413   -3.70461e-06   8.99739e-07 DIIS
   @RHF iter  12:  -230.78177008706049   -1.07501e-06   4.42313e-07 DIIS
   @RHF iter  13:  -230.78177054799252   -4.60932e-07   1.73192e-07 DIIS
   @RHF iter  14:  -230.78177060124861   -5.32561e-08   5.11708e-08 DIIS
   @RHF iter  15:  -230.78177060540733   -4.15872e-09   1.67208e-08 DIIS
   @RHF iter  16:  -230.78177060561504   -2.07706e-10   5.89240e-09 DIIS

  ==> Post-Iterations <==

	Orbital Energies (a.u.)
	-----------------------

	Doubly Occupied:                                                      

	   1A    -11.236229     2A    -11.235652     3A    -11.235626  
	   4A    -11.234401     5A    -11.234395     6A    -11.233777  
	   7A     -1.150498     8A     -1.014941     9A     -1.014744  
	  10A     -0.824160    11A     -0.824101    12A     -0.709671  
	  13A     -0.644008    14A     -0.619207    15A     -0.588186  
	  16A     -0.587917    17A     -0.502495    18A     -0.494978  
	  19A     -0.494712    20A     -0.336898    21A     -0.336781  

	Virtual:                                                              

	  22A      0.023632    23A      0.031505    24A      0.031552  
	  25A      0.038925    26A      0.044068    27A      0.044235  
	  28A      0.049139    29A      0.049494    30A      0.059911  
	  31A      0.063676    32A      0.065668    33A      0.078316  
	  34A      0.081053    35A      0.092573    36A      0.097529  
	  37A      0.100972    38A      0.102425    39A      0.105297  
	  40A      0.110395    41A      0.113110    42A      0.116349  
	  43A      0.119505    44A      0.120546    45A      0.121227  
	  46A      0.123366    47A      0.123383    48A      0.135663  
	  49A      0.140718    50A      0.142500    51A      0.145365  
	  52A      0.146104    53A      0.149032    54A      0.152609  
	  55A      0.154883    56A      0.156163    57A      0.158834  
	  58A      0.161593    59A      0.167229    60A      0.174341  
	  61A      0.175972    62A      0.178851    63A      0.181682  
	  64A      0.186665    65A      0.188828    66A      0.190728  
	  67A      0.193222    68A      0.194316    69A      0.205349  
	  70A      0.208410    71A      0.215753    72A      0.222569  
	  73A      0.229169    74A      0.229680    75A      0.241226  
	  76A      0.242764    77A      0.250295    78A      0.253968  
	  79A      0.266094    80A      0.268319    81A      0.271236  
	  82A      0.271751    83A      0.275832    84A      0.283300  
	  85A      0.287543    86A      0.291061    87A      0.293897  
	  88A      0.302224    89A      0.304105    90A      0.309949  
	  91A      0.312095    92A      0.318049    93A      0.322170  
	  94A      0.333722    95A      0.335084    96A      0.340756  
	  97A      0.341156    98A      0.349833    99A      0.351653  
	 100A      0.354996   101A      0.358524   102A      0.362602  
	 103A      0.366880   104A      0.369095   105A      0.371528  
	 106A      0.377100   107A      0.388160   108A      0.394247  
	 109A      0.395759   110A      0.397961   111A      0.401734  
	 112A      0.411652   113A      0.415547   114A      0.421011  
	 115A      0.426979   116A      0.435763   117A      0.441060  
	 118A      0.441732   119A      0.446519   120A      0.448431  
	 121A      0.452134   122A      0.455428   123A      0.458865  
	 124A      0.462657   125A      0.466104   126A      0.477506  
	 127A      0.479452   128A      0.483898   129A      0.489466  
	 130A      0.495762   131A      0.500664   132A      0.502760  
	 133A      0.505607   134A      0.507749   135A      0.511786  
	 136A      0.512782   137A      0.514237   138A      0.515437  
	 139A      0.524918   140A      0.525885   141A      0.534202  
	 142A      0.535527   143A      0.538724   144A      0.545717  
	 145A      0.551886   146A      0.553073   147A      0.555779  
	 148A      0.573922   149A      0.575131   150A      0.576686  
	 151A      0.580534   152A      0.586775   153A      0.588564  
	 154A      0.595220   155A      0.598158   156A      0.601046  
	 157A      0.605224   158A      0.610368   159A      0.611798  
	 160A      0.613120   161A      0.618786   162A      0.624579  
	 163A      0.633002   164A      0.636365   165A      0.642358  
	 166A      0.645693   167A      0.652573   168A      0.658803  
	 169A      0.661243   170A      0.663628   171A      0.665346  
	 172A      0.673226   173A      0.679919   174A      0.683449  
	 175A      0.686291   176A      0.689392   177A      0.692118  
	 178A      0.703846   179A      0.706101   180A      0.710999  
	 181A      0.711823   182A      0.717462   183A      0.721660  
	 184A      0.722524   185A      0.730098   186A      0.739476  
	 187A      0.743354   188A      0.747198   189A      0.750233  
	 190A      0.754824   191A      0.760597   192A      0.768481  
	 193A      0.772471   194A      0.776370   195A      0.779790  
	 196A      0.782692   197A      0.792050   198A      0.795181  
	 199A      0.796807   200A      0.805135   201A      0.809620  
	 202A      0.818429   203A      0.820176   204A      0.835006  
	 205A      0.838528   206A      0.841525   207A      0.845791  
	 208A      0.849521   209A      0.854640   210A      0.863698  
	 211A      0.870020   212A      0.872464   213A      0.876919  
	 214A      0.880923   215A      0.890853   216A      0.892897  
	 217A      0.898956   218A      0.903688   219A      0.912203  
	 220A      0.915299   221A      0.917247   222A      0.925511  
	 223A      0.927964   224A      0.930399   225A      0.943489  
	 226A      0.950663   227A      0.959098   228A      0.971388  
	 229A      0.977118   230A      0.983013   231A      0.989626  
	 232A      0.990835   233A      0.996559   234A      1.007658  
	 235A      1.009956   236A      1.012592   237A      1.013883  
	 238A      1.025976   239A      1.038423   240A      1.043467  
	 241A      1.046764   242A      1.057355   243A      1.063587  
	 244A      1.071016   245A      1.073549   246A      1.080267  
	 247A      1.092831   248A      1.097950   249A      1.104936  
	 250A      1.113566   251A      1.113942   252A      1.116675  
	 253A      1.122947   254A      1.126990   255A      1.129465  
	 256A      1.131309   257A      1.133131   258A      1.142971  
	 259A      1.146574   260A      1.147620   261A      1.160818  
	 262A      1.161966   263A      1.166175   264A      1.172588  
	 265A      1.189130   266A      1.195878   267A      1.198746  
	 268A      1.201829   269A      1.208766   270A      1.212609  
	 271A      1.213917   272A      1.221797   273A      1.224450  
	 274A      1.231630   275A      1.236441   276A      1.242034  
	 277A      1.248974   278A      1.251475   279A      1.260109  
	 280A      1.263361   281A      1.269665   282A      1.276130  
	 283A      1.278148   284A      1.282774   285A      1.286556  
	 286A      1.294567   287A      1.303174   288A      1.303985  
	 289A      1.311614   290A      1.315545   291A      1.321103  
	 292A      1.324328   293A      1.331734   294A      1.332455  
	 295A      1.339947   296A      1.348334   297A      1.351278  
	 298A      1.354298   299A      1.359342   300A      1.364984  
	 301A      1.367429   302A      1.383970   303A      1.384394  
	 304A      1.396661   305A      1.400939   306A      1.406323  
	 307A      1.407895   308A      1.412252   309A      1.419088  
	 310A      1.432089   311A      1.435652   312A      1.437209  
	 313A      1.452259   314A      1.462647   315A      1.470248  
	 316A      1.478745   317A      1.490356   318A      1.500015  
	 319A      1.503940   320A      1.516526   321A      1.520677  
	 322A      1.521283   323A      1.530820   324A      1.540843  
	 325A      1.547027   326A      1.550437   327A      1.553684  
	 328A      1.555036   329A      1.557435   330A      1.560789  
	 331A      1.570075   332A      1.573772   333A      1.578521  
	 334A      1.581610   335A      1.586619   336A      1.597053  
	 337A      1.604808   338A      1.613803   339A      1.621010  
	 340A      1.627815   341A      1.632642   342A      1.638388  
	 343A      1.646972   344A      1.649083   345A      1.661248  
	 346A      1.666028   347A      1.676559   348A      1.679829  
	 349A      1.684336   350A      1.692793   351A      1.709303  
	 352A      1.714739   353A      1.719227   354A      1.725085  
	 355A      1.729912   356A      1.747068   357A      1.748253  
	 358A      1.749340   359A      1.754034   360A      1.763310  
	 361A      1.768537   362A      1.775987   363A      1.779128  
	 364A      1.787196   365A      1.794935   366A      1.811620  
	 367A      1.815438   368A      1.816465   369A      1.829581  
	 370A      1.836231   371A      1.840428   372A      1.843416  
	 373A      1.846575   374A      1.865919   375A      1.871605  
	 376A      1.875029   377A      1.878949   378A      1.886724  
	 379A      1.892317   380A      1.899049   381A      1.901611  
	 382A      1.907113   383A      1.911185   384A      1.918925  
	 385A      1.920233   386A      1.935387   387A      1.942333  
	 388A      1.948902   389A      1.960245   390A      1.963862  
	 391A      1.971717   392A      1.980204   393A      1.981042  
	 394A      2.001077   395A      2.015536   396A      2.019012  
	 397A      2.027375   398A      2.033339   399A      2.036926  
	 400A      2.042988   401A      2.049575   402A      2.058372  
	 403A      2.066420   404A      2.075411   405A      2.086702  
	 406A      2.092719   407A      2.104864   408A      2.113281  
	 409A      2.124948   410A      2.132417   411A      2.138947  
	 412A      2.143960   413A      2.157568   414A      2.159592  
	 415A      2.164397   416A      2.177026   417A      2.179035  
	 418A      2.191477   419A      2.193623   420A      2.202546  
	 421A      2.215190   422A      2.221903   423A      2.223216  
	 424A      2.241270   425A      2.252900   426A      2.276369  
	 427A      2.281043   428A      2.285603   429A      2.295482  
	 430A      2.306943   431A      2.311733   432A      2.340243  
	 433A      2.342542   434A      2.345352   435A      2.354350  
	 436A      2.366562   437A      2.382333   438A      2.385631  
	 439A      2.390931   440A      2.399495   441A      2.406545  
	 442A      2.417523   443A      2.432727   444A      2.433957  
	 445A      2.441169   446A      2.448712   447A      2.462220  
	 448A      2.470502   449A      2.476274   450A      2.485955  
	 451A      2.491506   452A      2.498773   453A      2.508535  
	 454A      2.511325   455A      2.521694   456A      2.530065  
	 457A      2.549003   458A      2.557335   459A      2.562017  
	 460A      2.569172   461A      2.574811   462A      2.579564  
	 463A      2.587132   464A      2.591004   465A      2.595466  
	 466A      2.603210   467A      2.611272   468A      2.619256  
	 469A      2.623929   470A      2.635421   471A      2.642704  
	 472A      2.650252   473A      2.655781   474A      2.663028  
	 475A      2.665865   476A      2.683377   477A      2.698362  
	 478A      2.709931   479A      2.718491   480A      2.721410  
	 481A      2.734067   482A      2.740360   483A      2.758991  
	 484A      2.773170   485A      2.795015   486A      2.809091  
	 487A      2.827739   488A      2.833194   489A      2.857701  
	 490A      2.866555   491A      2.879065   492A      2.890958  
	 493A      2.907535   494A      2.916186   495A      2.922840  
	 496A      2.935102   497A      2.944053   498A      2.954439  
	 499A      2.975968   500A      2.990839   501A      2.999572  
	 502A      3.002045   503A      3.012464   504A      3.041729  
	 505A      3.087544   506A      3.120172   507A      3.153102  
	 508A      3.196566   509A      3.219624   510A      3.229437  
	 511A      3.240322   512A      3.267961   513A      3.305619  
	 514A      3.322002   515A      3.336179   516A      3.382163  
	 517A      3.412993   518A      3.435658   519A      3.446225  
	 520A      3.462490   521A      3.479162   522A      3.481944  
	 523A      3.491263   524A      3.510398   525A      3.555074  
	 526A      3.559655   527A      3.564410   528A      3.569614  
	 529A      3.590672   530A      3.596514   531A      3.611819  
	 532A      3.631886   533A      3.638879   534A      3.681624  
	 535A      3.689310   536A      3.696592   537A      3.702025  
	 538A      3.714490   539A      3.721030   540A      3.726511  
	 541A      3.741974   542A      3.759625   543A      3.761819  
	 544A      3.775324   545A      3.784088   546A      3.814157  
	 547A      3.825382   548A      3.836650   549A      3.859297  
	 550A      3.879547   551A      3.894299   552A      3.896269  
	 553A      3.897955   554A      3.924097   555A      3.928592  
	 556A      3.933754   557A      3.940576   558A      3.946182  
	 559A      3.971347   560A      3.982795   561A      3.992945  
	 562A      4.021972   563A      4.031352   564A      4.031403  
	 565A      4.040520   566A      4.047661   567A      4.056326  
	 568A      4.067482   569A      4.070043   570A      4.077953  
	 571A      4.081367   572A      4.106337   573A      4.113239  
	 574A      4.121338   575A      4.128522   576A      4.137111  
	 577A      4.173769   578A      4.179677   579A      4.190331  
	 580A      4.194884   581A      4.201552   582A      4.207314  
	 583A      4.220994   584A      4.239369   585A      4.245915  
	 586A      4.263116   587A      4.273733   588A      4.278760  
	 589A      4.286419   590A      4.301663   591A      4.309929  
	 592A      4.317829   593A      4.331985   594A      4.335323  
	 595A      4.340616   596A      4.347269   597A      4.356571  
	 598A      4.366477   599A      4.380285   600A      4.395740  
	 601A      4.406526   602A      4.409221   603A      4.412669  
	 604A      4.425854   605A      4.440307   606A      4.447561  
	 607A      4.449493   608A      4.462324   609A      4.465379  
	 610A      4.473358   611A      4.476179   612A      4.484870  
	 613A      4.502577   614A      4.504271   615A      4.512091  
	 616A      4.521553   617A      4.525892   618A      4.535567  
	 619A      4.541038   620A      4.547523   621A      4.558067  
	 622A      4.574349   623A      4.587941   624A      4.606188  
	 625A      4.608362   626A      4.626435   627A      4.630837  
	 628A      4.641895   629A      4.665315   630A      4.673729  
	 631A      4.681795   632A      4.698628   633A      4.715718  
	 634A      4.736522   635A      4.741655   636A      4.745543  
	 637A      4.762801   638A      4.772542   639A      4.796085  
	 640A      4.800352   641A      4.816956   642A      4.817725  
	 643A      4.843187   644A      4.847123   645A      4.858629  
	 646A      4.878914   647A      4.889772   648A      4.902453  
	 649A      4.915847   650A      4.926516   651A      4.932258  
	 652A      4.944006   653A      4.948711   654A      4.958407  
	 655A      4.967462   656A      4.972643   657A      4.999633  
	 658A      5.003592   659A      5.011155   660A      5.021493  
	 661A      5.027174   662A      5.057149   663A      5.066737  
	 664A      5.072924   665A      5.090784   666A      5.094316  
	 667A      5.104111   668A      5.125037   669A      5.128965  
	 670A      5.143080   671A      5.149446   672A      5.158261  
	 673A      5.163773   674A      5.169426   675A      5.174354  
	 676A      5.183979   677A      5.187136   678A      5.196618  
	 679A      5.209802   680A      5.218850   681A      5.238549  
	 682A      5.244719   683A      5.250969   684A      5.260248  
	 685A      5.273340   686A      5.291463   687A      5.297026  
	 688A      5.301498   689A      5.307088   690A      5.310008  
	 691A      5.319640   692A      5.336822   693A      5.346921  
	 694A      5.356593   695A      5.370052   696A      5.381996  
	 697A      5.394804   698A      5.407005   699A      5.418587  
	 700A      5.427437   701A      5.440604   702A      5.441400  
	 703A      5.455270   704A      5.465922   705A      5.477667  
	 706A      5.488317   707A      5.492959   708A      5.500739  
	 709A      5.526728   710A      5.535943   711A      5.552251  
	 712A      5.569997   713A      5.578369   714A      5.581734  
	 715A      5.609787   716A      5.629506   717A      5.641106  
	 718A      5.668431   719A      5.671671   720A      5.680827  
	 721A      5.695865   722A      5.706595   723A      5.728478  
	 724A      5.750964   725A      5.780980   726A      5.798072  
	 727A      5.798896   728A      5.804968   729A      5.811105  
	 730A      5.839860   731A      5.848204   732A      5.874724  
	 733A      5.884206   734A      5.905441   735A      5.923440  
	 736A      5.938576   737A      5.942860   738A      5.949817  
	 739A      5.960932   740A      5.978254   741A      5.987589  
	 742A      6.014475   743A      6.027030   744A      6.037953  
	 745A      6.053281   746A      6.066146   747A      6.072395  
	 748A      6.077324   749A      6.082462   750A      6.108942  
	 751A      6.188587   752A      6.198355   753A      6.221528  
	 754A      6.227814   755A      6.251366   756A      6.277356  
	 757A      6.293422   758A      6.322065   759A      6.331455  
	 760A      6.334643   761A      6.409658   762A      6.450351  
	 763A      6.454436   764A      6.465597   765A      6.480237  
	 766A      6.519703   767A      6.578798   768A      6.620096  
	 769A      6.634343   770A      6.661221   771A      6.733193  
	 772A      6.746155   773A      6.768757   774A      6.930910  
	 775A      6.944943   776A      6.955466   777A      7.000220  
	 778A      7.018934   779A      7.030034   780A      7.061515  
	 781A      7.069397   782A      7.265453   783A      7.269355  
	 784A      7.299609   785A      7.379161   786A      7.399875  
	 787A      7.472145   788A      7.479263   789A      7.523825  
	 790A      7.564305   791A      7.630522   792A      7.733938  
	 793A      7.746469   794A      7.761077   795A      7.790623  
	 796A      7.853708   797A      7.948020   798A      8.050631  
	 799A      8.208155   800A      8.251549   801A      8.276214  
	 802A      8.310325   803A      8.440396   804A      8.450812  
	 805A      9.109611   806A      9.160496   807A      9.436187  
	 808A      9.708900   809A      9.806931   810A     10.160517  
	 811A     10.199620   812A     11.058197   813A     11.098505  
	 814A     11.613500   815A     11.699138   816A     11.720730  
	 817A     16.548104   818A     16.685264   819A     19.826363  
	 820A     20.433889   821A     20.668110   822A     20.875596  
	 823A     50.717483   824A     50.959875   825A     57.122504  
	 826A     57.460634   827A     57.877603   828A     58.457707  

	Final Occupation by Irrep:
	          A 
	DOCC [    21 ]

  Energy converged.

  @RHF Final Energy:  -230.78177060561504

   => Energetics <=

    Nuclear Repulsion Energy =            203.7117237734329649
    One-Electron Energy =                -713.8802387639035487
    Two-Electron Energy =                 279.3867443848554899
    DFT Exchange-Correlation Energy =       0.0000000000000000
[...]
     352A      1.519880   353A      1.525421   354A      1.525703  
     355A      1.528887   356A      1.544317   357A      1.548670  
     358A      1.551836   359A      1.554745   360A      1.558822  
     361A      1.560531   362A      1.568317   363A      1.573097  
     364A      1.575676   365A      1.587038   366A      1.645328  
     367A      1.647402   368A      1.652931   369A      1.670848  
     370A      1.672163   371A      1.674341   372A      1.679056  
     373A      1.680141   374A      1.681199   375A      1.683145  
     376A      1.694075   377A      1.698138   378A      1.700181  
     379A      1.703265   380A      1.719316   381A      1.721450  
     382A      1.721707   383A      1.758488   384A      1.759263  
     385A      1.779495   386A      1.794827   387A      1.804839  
     388A      1.818076   389A      1.831148   390A      1.831935  
     391A      1.835236   392A      1.842632   393A      1.843578  
     394A      1.855227   395A      1.855720   396A      1.858614  
     397A      1.888716   398A      1.889406   399A      1.890175  
     400A      1.892949   401A      1.893689   402A      1.895487  
     403A      1.896424   404A      1.904491   405A      1.914539  
     406A      1.917112   407A      1.935018   408A      1.985049  
     409A      1.989438   410A      1.997130   411A      1.997475  
     412A      2.009501   413A      2.010929   414A      2.013766  
     415A      2.014543   416A      2.015366   417A      2.023543  
     418A      2.024733   419A      2.042537   420A      2.055042  
     421A      2.055431   422A      2.062071   423A      2.090385  
     424A      2.092144   425A      2.103997   426A      2.106186  
     427A      2.107055   428A      2.110121   429A      2.111146  
     430A      2.120880   431A      2.157808   432A      2.159237  
     433A      2.159394   434A      2.162881   435A      2.163543  
     436A      2.178435   437A      2.179290   438A      2.204092  
     439A      2.209412   440A      2.220283   441A      2.226150  
     442A      2.231908   443A      2.235534   444A      2.252749  
     445A      2.273303   446A      2.277325   447A      2.296720  
     448A      2.323723   449A      2.326639   450A      2.327300  
     451A      2.330099   452A      2.332182   453A      2.337580  
     454A      2.338604   455A      2.343212   456A      2.344516  
     457A      2.349247   458A      2.350073   459A      2.354304  
     460A      2.356670   461A      2.358469   462A      2.371661  
     463A      2.372011   464A      2.373386   465A      2.379667  
     466A      2.388321   467A      2.390797   468A      2.406475  
     469A      2.442415   470A      2.457795   471A      2.458230  
     472A      2.507693   473A      2.508515   474A      2.515890  
     475A      2.516800   476A      2.520887   477A      2.524698  
     478A      2.535695   479A      2.538139   480A      2.552909  
     481A      2.553191   482A      2.565564   483A      2.567839  
     484A      2.569421   485A      2.593274   486A      2.594729  
     487A      2.617843   488A      2.620168   489A      2.683237  
     490A      2.718378   491A      2.730409   492A      2.738452  
     493A      2.741230   494A      2.754497   495A      2.764910  
     496A      2.781479   497A      2.793815   498A      2.833476  
     499A      2.834341   500A      2.843540   501A      2.844890  
     502A      2.860743   503A      2.876811   504A      2.881591  
     505A      2.882309   506A      2.883288   507A      2.930495  
     508A      2.933230   509A      3.037719   510A      3.082293  
     511A      3.082752   512A      3.102584   513A      3.132452  
     514A      3.132983   515A      3.138535   516A      3.167750  
     517A      3.170244   518A      3.227019   519A      3.227577  
     520A      3.282385   521A      3.282756   522A      3.312935  
     523A      3.319395   524A      3.319905   525A      3.336978  
     526A      3.367570   527A      3.369332   528A      3.384916  
     529A      3.385170   530A      3.395648   531A      3.406158  
     532A      3.411955   533A      3.430882   534A      3.431163  
     535A      3.492944   536A      3.494857   537A      3.530341  
     538A      3.531840   539A      3.536430   540A      3.536792  
     541A      3.556512   542A      3.556680   543A      3.574078  
     544A      3.574983   545A      3.580499   546A      3.594954  
     547A      3.622897   548A      3.637519   549A      3.653582  
     550A      3.657620   551A      3.657978   552A      3.752784  
     553A      3.772720   554A      3.791222   555A      3.800254  
     556A      3.801165   557A      3.805445   558A      3.819846  
     559A      3.834623   560A      3.835182   561A      3.839705  
     562A      3.840061   563A      3.846744   564A      3.847282  
     565A      3.861498   566A      3.866301   567A      3.871976  
     568A      3.873543   569A      3.939473   570A      3.962444  
     571A      3.962728   572A      3.970534   573A      3.988624  
     574A      3.990096   575A      3.991503   576A      3.999356  
     577A      4.005486   578A      4.005710   579A      4.033252  
     580A      4.034000   581A      4.037270   582A      4.039774  
     583A      4.049758   584A      4.054009   585A      4.056298  
     586A      4.058179   587A      4.059653   588A      4.062980  
     589A      4.086598   590A      4.086773   591A      4.108287  
     592A      4.108635   593A      4.129056   594A      4.132147  
     595A      4.132404   596A      4.136090   597A      4.137902  
     598A      4.172895   599A      4.177981   600A      4.178485  
     601A      4.188527   602A      4.207104   603A      4.211890  
     604A      4.215537   605A      4.215769   606A      4.247696  
     607A      4.248510   608A      4.273820   609A      4.288598  
     610A      4.289035   611A      4.291115   612A      4.292049  
     613A      4.293526   614A      4.300748   615A      4.302443  
     616A      4.338196   617A      4.338320   618A      4.349637  
     619A      4.350370   620A      4.356449   621A      4.360640  
     622A      4.368073   623A      4.371981   624A      4.377663  
     625A      4.430198   626A      4.435835   627A      4.436193  
     628A      4.444134   629A      4.444735   630A      4.468518  
     631A      4.471622   632A      4.472077   633A      4.480800  
     634A      4.493159   635A      4.493759   636A      4.510759  
     637A      4.511506   638A      4.526311   639A      4.560925  
     640A      4.561966   641A      4.564680   642A      4.565952  
     643A      4.567210   644A      4.568197   645A      4.581690  
     646A      4.583866   647A      4.605788   648A      4.634449  
     649A      4.635291   650A      4.641639   651A      4.703784  
     652A      4.708961   653A      4.709242   654A      4.722856  
     655A      4.723602   656A      4.728617   657A      4.729115  
     658A      4.743497   659A      4.786105   660A      4.795112  
     661A      4.795966   662A      4.797153   663A      4.797298  
     664A      4.881781   665A      4.882536   666A      4.893792  
     667A      4.917093   668A      4.932284   669A      4.933224  
     670A      4.944468   671A      4.970215   672A      4.970372  
     673A      4.971773   674A      4.973030   675A      5.034040  
     676A      5.034105   677A      5.060699   678A      5.061498  
     679A      5.081261   680A      5.082302   681A      5.082728  
     682A      5.086272   683A      5.105195   684A      5.109949  
     685A      5.111175   686A      5.118317   687A      5.118933  
     688A      5.127426   689A      5.135519   690A      5.156124  
     691A      5.156521   692A      5.162092   693A      5.179553  
     694A      5.180393   695A      5.180874   696A      5.181236  
     697A      5.182608   698A      5.183588   699A      5.212634  
     700A      5.213451   701A      5.219402   702A      5.241493  
     703A      5.242588   704A      5.274592   705A      5.275633  
     706A      5.341601   707A      5.343257   708A      5.347809  
     709A      5.358172   710A      5.410040   711A      5.417343  
     712A      5.417927   713A      5.432397   714A      5.432731  
     715A      5.441225   716A      5.441503   717A      5.448547  
     718A      5.448786   719A      5.487392   720A      5.488709  
     721A      5.506101   722A      5.509105   723A      5.531310  
     724A      5.539130   725A      5.630561   726A      5.631742  
     727A      5.638802   728A      5.641569   729A      5.666366  
     730A      5.693669   731A      5.727673   732A      5.728150  
     733A      5.737197   734A      5.737916   735A      5.743325  
     736A      5.743655   737A      5.769798   738A      5.792318  
     739A      5.792943   740A      5.793471   741A      5.794432  
     742A      5.798388   743A      5.799467   744A      5.857337  
     745A      5.858170   746A      5.882206   747A      5.946395  
     748A      5.963161   749A      5.964245   750A      5.984392  
     751A      6.004944   752A      6.005986   753A      6.137139  
     754A      6.137520   755A      6.168723   756A      6.169557  
     757A      6.178045   758A      6.195703   759A      6.196198  
     760A      6.197202   761A      6.215054   762A      6.273279  
     763A      6.274406   764A      6.300595   765A      6.370417  
     766A      6.371676   767A      6.401026   768A      6.433622  
     769A      6.435607   770A      6.468271   771A      6.524817  
     772A      6.651738   773A      6.652810   774A      6.713324  
     775A      6.773916   776A      6.775745   777A      6.863560  
     778A      6.864365   779A      6.886168   780A      6.887683  
     781A      6.981061   782A      7.032612   783A      7.062260  
     784A      7.062609   785A      7.114202   786A      7.114861  
     787A      7.155660   788A      7.157639   789A      7.223525  
     790A      7.399902   791A      7.446537   792A      7.464007  
     793A      7.464537   794A      7.579042   795A      7.656003  
     796A      7.657302   797A      7.786814   798A      7.897412  
     799A      8.002796   800A      8.201984   801A      8.202373  
     802A      8.216765   803A      8.333336   804A      8.334187  
     805A      8.960550   806A      8.961456   807A      9.308311  
     808A      9.313042   809A      9.371883   810A     10.051412  
     811A     10.051782   812A     10.992597   813A     11.044529  
     814A     11.205267   815A     11.319401   816A     11.325841  
     817A     16.065680   818A     16.066670   819A     17.324299  
     820A     19.356808   821A     19.372580   822A     19.580747  
     823A     49.691508   824A     49.693443   825A     50.467368  
     826A     55.356901   827A     55.385206   828A     56.646946  

    Final Occupation by Irrep:
              A 
    DOCC [    21 ]

  @DF-RHF Final Energy:  -230.78128273511822

   => Energetics <=

    Nuclear Repulsion Energy =            203.7116637545062474
    One-Electron Energy =                -713.8768155932772288
    Two-Electron Energy =                 279.3838691036527280
    Total Energy =                       -230.7812827351182250

Computation Completed


Properties will be evaluated at   0.000000,   0.000000,   0.000000 [a0]

Properties computed using the SCF density matrix

  Nuclear Dipole Moment: [e a0]
     X:    92.4330      Y:    -0.8672      Z:   264.4076

  Electronic Dipole Moment: [e a0]
     X:   -92.4329      Y:     0.8672      Z:  -264.4122

  Dipole Moment: [e a0]
     X:     0.0001      Y:    -0.0000      Z:    -0.0047     Total:     0.0047

  Dipole Moment: [D]
     X:     0.0003      Y:    -0.0001      Z:    -0.0119     Total:     0.0119


*** tstop() called on node49.bme.utexas.edu at Fri Apr 24 12:56:16 2020
Module time:
	user time   =     233.80 seconds =       3.90 minutes
	system time =       3.56 seconds =       0.06 minutes
	total time  =         33 seconds =       0.55 minutes
Total time:
	user time   =     952.17 seconds =      15.87 minutes
	system time =      14.07 seconds =       0.23 minutes
	total time  =        225 seconds =       3.75 minutes
  Constructing Basis Sets for SAPT...

   => Loading Basis Set <=

    Name: (AUG-CC-PVTZ AUX)
    Role: RIFIT
    Keyword: DF_BASIS_SAPT
    atoms 1, 3, 5, 7, 9, 11, 13, 15, 17, 19, 21, 23  entry C          line   148 file /home/liuchw/anaconda3/envs/psi4env/share/psi4/basis/aug-cc-pvtz-ri.gbs 
    atoms 2, 4, 6, 8, 10, 12, 14, 16, 18, 20, 22, 24 entry H          line    30 file /home/liuchw/anaconda3/envs/psi4env/share/psi4/basis/aug-cc-pvtz-ri.gbs 


  //>>>>>>>>>>>>>>>>>>>>>>>>>>>>>>>>>>>//
  //               SAPT2+              //
  //<<<<<<<<<<<<<<<<<<<<<<<<<<<<<<<<<<<//


*** tstart() called on node49.bme.utexas.edu
*** at Fri Apr 24 12:56:16 2020

        SAPT2+  
    Ed Hohenstein
     6 June 2009

      Orbital Information
  --------------------------
    NSO        =       828
    NMO        =       828
    NRI        =      1824
    NOCC A     =        21
    NOCC B     =        21
    FOCC A     =         6
    FOCC B     =         6
    NVIR A     =       807
    NVIR B     =       807

    Estimated memory usage: 16395.8 MB

    Natural Orbital Cutoff:   1.000E-06
    Disp(T3) Truncation:            Yes
    CCD (vv|vv) Truncation:         Yes
    MBPT T2 Truncation:             Yes

    Monomer A: 466 virtual orbitals dropped
    Monomer B: 466 virtual orbitals dropped

    Elst10,r            =     0.000163872836 [Eh]
    Exch10 (S^2)        =     0.000000821681 [Eh]
    Exch10              =     0.000000821681 [Eh]
    Ind20,r (A<-B)      =    -0.000006909188 [Eh]
    Ind20,r (B<-A)      =    -0.000006915100 [Eh]
    Ind20,r             =    -0.000013824288 [Eh]
    Exch-Ind20,r (A<-B) =     0.000000143387 [Eh]
    Exch-Ind20,r (B<-A) =     0.000000143611 [Eh]
    Exch-Ind20,r        =     0.000000286998 [Eh]
    Disp20              =    -0.000373858880 [Eh]
    Disp20 (NO)         =    -0.000365937863 [Eh]
    Exch-Disp20         =     0.000000505222 [Eh]
    Elst12,r            =    -0.000035476718 [Eh]
    Exch11              =     0.000000014654 [Eh]
    Exch12              =     0.000000012165 [Eh]
    Ind22               =     0.000000929410 [Eh]
    Disp21              =     0.000146367001 [Eh]
    Disp22 (SDQ)        =     0.000010528057 [Eh]

    (i =   1 of  15)        357 seconds
    (i =   2 of  15)        712 seconds
    (i =   3 of  15)       1068 seconds
    (i =   4 of  15)       1423 seconds
    (i =   5 of  15)       1779 seconds
    (i =   6 of  15)       2134 seconds
    (i =   7 of  15)       2490 seconds
    (i =   8 of  15)       2845 seconds
    (i =   9 of  15)       3201 seconds
    (i =  10 of  15)       3557 seconds
    (i =  11 of  15)       3913 seconds
    (i =  12 of  15)       4268 seconds
    (i =  13 of  15)       4624 seconds
    (i =  14 of  15)       4980 seconds
    (i =  15 of  15)       5335 seconds

    Disp220 (T)         =    -0.000045590876 [Eh]

    (i =   1 of  15)        386 seconds
    (i =   2 of  15)        771 seconds
    (i =   3 of  15)       1156 seconds
    (i =   4 of  15)       1539 seconds
    (i =   5 of  15)       1923 seconds
    (i =   6 of  15)       2307 seconds
    (i =   7 of  15)       2691 seconds
    (i =   8 of  15)       3075 seconds
    (i =   9 of  15)       3459 seconds
    (i =  10 of  15)       3843 seconds
    (i =  11 of  15)       4228 seconds
    (i =  12 of  15)       4612 seconds
    (i =  13 of  15)       4986 seconds
    (i =  14 of  15)       5345 seconds
    (i =  15 of  15)       5703 seconds

    Disp202 (T)         =    -0.000045592095 [Eh]

    Disp22 (T)          =    -0.000091182971 [Eh]

    Est. Disp220 (T)    =    -0.000046577726 [Eh]
    Est. Disp202 (T)    =    -0.000046578972 [Eh]

    Est. Disp22 (T)     =    -0.000093156699 [Eh]

    SAPT Results 
  --------------------------------------------------------------------------------------------------------
    Electrostatics                  0.12839612 [mEh]       0.08056978 [kcal/mol]       0.33710396 [kJ/mol]
      Elst10,r                      0.16387284 [mEh]       0.10283176 [kcal/mol]       0.43024807 [kJ/mol]
      Elst12,r                     -0.03547672 [mEh]      -0.02226198 [kcal/mol]      -0.09314411 [kJ/mol]

    Exchange                        0.00084850 [mEh]       0.00053244 [kcal/mol]       0.00222774 [kJ/mol]
      Exch10                        0.00082168 [mEh]       0.00051561 [kcal/mol]       0.00215732 [kJ/mol]
      Exch10(S^2)                   0.00082168 [mEh]       0.00051561 [kcal/mol]       0.00215732 [kJ/mol]
      Exch11(S^2)                   0.00001465 [mEh]       0.00000920 [kcal/mol]       0.00003848 [kJ/mol]
      Exch12(S^2)                   0.00001217 [mEh]       0.00000763 [kcal/mol]       0.00003194 [kJ/mol]

    Induction                      -0.01182940 [mEh]      -0.00742306 [kcal/mol]      -0.03105809 [kJ/mol]
      Ind20,r                      -0.01382429 [mEh]      -0.00867487 [kcal/mol]      -0.03629566 [kJ/mol]
      Ind22                         0.00092941 [mEh]       0.00058321 [kcal/mol]       0.00244017 [kJ/mol]
      Exch-Ind20,r                  0.00028700 [mEh]       0.00018009 [kcal/mol]       0.00075351 [kJ/mol]
      Exch-Ind22                   -0.00001929 [mEh]      -0.00001211 [kcal/mol]      -0.00005066 [kJ/mol]
      delta HF,r (2)                0.00079777 [mEh]       0.00050061 [kcal/mol]       0.00209456 [kJ/mol]

    Dispersion                     -0.30961530 [mEh]      -0.19428653 [kcal/mol]      -0.81289486 [kJ/mol]
      Disp20                       -0.37385888 [mEh]      -0.23459999 [kcal/mol]      -0.98156635 [kJ/mol]
      Disp21                        0.14636700 [mEh]       0.09184668 [kcal/mol]       0.38428651 [kJ/mol]
      Disp22 (SDQ)                  0.01052806 [mEh]       0.00660646 [kcal/mol]       0.02764141 [kJ/mol]
      Disp22 (T)                   -0.09118297 [mEh]      -0.05721818 [kcal/mol]      -0.23940086 [kJ/mol]
      Est. Disp22 (T)              -0.09315670 [mEh]      -0.05845671 [kcal/mol]      -0.24458288 [kJ/mol]
      Exch-Disp20                   0.00050522 [mEh]       0.00031703 [kcal/mol]       0.00132646 [kJ/mol]

  Total HF                          0.15195500 [mEh]       0.09535320 [kcal/mol]       0.39895780 [kJ/mol]
  Total SAPT0                      -0.22139866 [mEh]      -0.13892975 [kcal/mol]      -0.58128209 [kJ/mol]
  Total SAPT2                      -0.25593844 [mEh]      -0.16060380 [kcal/mol]      -0.67196628 [kJ/mol]
  Total SAPT2+                     -0.19220008 [mEh]      -0.12060737 [kcal/mol]      -0.50462125 [kJ/mol]

  Special recipe for scaled SAPT0 (see Manual):
    Electrostatics sSAPT0           0.16387284 [mEh]       0.10283176 [kcal/mol]       0.43024807 [kJ/mol]
    Exchange sSAPT0                 0.00082168 [mEh]       0.00051561 [kcal/mol]       0.00215732 [kJ/mol]
    Induction sSAPT0               -0.01273952 [mEh]      -0.00799417 [kcal/mol]      -0.03344759 [kJ/mol]
    Dispersion sSAPT0              -0.37335366 [mEh]      -0.23428296 [kcal/mol]      -0.98023989 [kJ/mol]
  Total sSAPT0                     -0.22139866 [mEh]      -0.13892975 [kcal/mol]      -0.58128209 [kJ/mol]
  --------------------------------------------------------------------------------------------------------

*** tstop() called on node49.bme.utexas.edu at Fri Apr 24 17:19:32 2020
Module time:
	user time   =  101282.56 seconds =    1688.04 minutes
	system time =    1443.89 seconds =      24.06 minutes
	total time  =      15796 seconds =     263.27 minutes
Total time:
	user time   =  102235.84 seconds =    1703.93 minutes
	system time =    1457.99 seconds =      24.30 minutes
	total time  =      16021 seconds =     267.02 minutes

    Psi4 stopped on: Friday, 24 April 2020 05:19PM
    Psi4 wall time for execution: 4:27:02.24

*** Psi4 exiting successfully. Buy a developer a beer!
