
    -----------------------------------------------------------------------
          Psi4: An Open-Source Ab Initio Electronic Structure Package
                               Psi4 1.4a2.dev224 

                         Git: Rev {master} e453b16 


    R. M. Parrish, L. A. Burns, D. G. A. Smith, A. C. Simmonett,
    A. E. DePrince III, E. G. Hohenstein, U. Bozkaya, A. Yu. Sokolov,
    R. Di Remigio, R. M. Richard, J. F. Gonthier, A. M. James,
    H. R. McAlexander, A. Kumar, M. Saitow, X. Wang, B. P. Pritchard,
    P. Verma, H. F. Schaefer III, K. Patkowski, R. A. King, E. F. Valeev,
    F. A. Evangelista, J. M. Turney, T. D. Crawford, and C. D. Sherrill,
    J. Chem. Theory Comput. 13(7) pp 3185--3197 (2017).
    (doi: 10.1021/acs.jctc.7b00174)


                         Additional Contributions by
    P. Kraus, H. Kruse, M. H. Lechner, M. C. Schieber, R. A. Shaw,
    A. Alenaizan, R. Galvelis, Z. L. Glick, S. Lehtola, and J. P. Misiewicz

    -----------------------------------------------------------------------


    Psi4 started on: Friday, 24 April 2020 12:52PM

    Process ID: 75362
    Host:       node49.bme.utexas.edu
    PSIDATADIR: /home/liuchw/anaconda3/envs/psi4env/share/psi4
    Memory:     500.0 MiB
    Threads:    8
    
  ==> Input File <==

--------------------------------------------------------------------------
#Generated by lconvert.py for sapt job

memory 25 GB

molecule  {
0 1
  C       0.712640    1.121000    0.060540
  H       1.357840    1.986400    0.127740
  C       1.258240   -0.159250    0.124230
  H       2.324950   -0.287100    0.246740
  C       0.426890   -1.274530    0.042650
  H       0.850450   -2.268430    0.094750
  C      -0.949580   -1.110070   -0.100310
  H      -1.594460   -1.976270   -0.163710
  C      -1.495530    0.171050   -0.161550
  H      -2.563780    0.299220   -0.273700
  C      -0.663830    1.286640   -0.083400
  H      -1.086900    2.281000   -0.132890
--
0 1
  C       3.041620    1.099870    6.725120
  H       3.686470    1.966050    6.788870
  C       3.587580   -0.181280    6.786640
  H       4.655780   -0.309430    6.899380
  C       2.755930   -1.296880    6.707990
  H       3.179010   -2.291230    6.757640
  C       1.379520   -1.131250    6.563270
  H       0.734420   -1.996660    6.495640
  C       0.833970    0.148990    6.499310
  H      -0.232660    0.276810    6.376130
  C       1.665240    1.264270    6.581380
  H       1.241720    2.258170    6.529010
units angstrom
no_reorient
symmetry c1
}

set {
scf_type DF
basis aug-cc-pvtz
freeze_core True
guess SAD
}
energy('sapt2+')
--------------------------------------------------------------------------

  Memory set to  23.283 GiB by Python driver.

Scratch directory: /scratch/liuchw/

  //>>>>>>>>>>>>>>>>>>>>>>>>>>>>>>>>>>>//
  //              Dimer HF             //
  //<<<<<<<<<<<<<<<<<<<<<<<<<<<<<<<<<<<//


*** tstart() called on node49.bme.utexas.edu
*** at Fri Apr 24 12:52:31 2020

   => Loading Basis Set <=

    Name: AUG-CC-PVTZ
    Role: ORBITAL
    Keyword: BASIS
    atoms 1, 3, 5, 7, 9, 11, 13, 15, 17, 19, 21, 23  entry C          line   239 file /home/liuchw/anaconda3/envs/psi4env/share/psi4/basis/aug-cc-pvtz.gbs 
    atoms 2, 4, 6, 8, 10, 12, 14, 16, 18, 20, 22, 24 entry H          line    40 file /home/liuchw/anaconda3/envs/psi4env/share/psi4/basis/aug-cc-pvtz.gbs 


         ---------------------------------------------------------
                                   SCF
               by Justin Turney, Rob Parrish, Andy Simmonett
                          and Daniel G. A. Smith
                              RHF Reference
                        8 Threads,  23841 MiB Core
         ---------------------------------------------------------

  ==> Geometry <==

    Molecular point group: c1
    Full point group: C1

    Geometry (in Angstrom), charge = 0, multiplicity = 1:

       Center              X                  Y                   Z               Mass       
    ------------   -----------------  -----------------  -----------------  -----------------
         C           -0.333418468480     1.126120193696    -3.251614090070    12.000000000000
         H            0.311781531520     1.991520193696    -3.184414090070     1.007825032230
         C            0.212181531520    -0.154129806304    -3.187924090070    12.000000000000
         H            1.278891531520    -0.281979806304    -3.065414090070     1.007825032230
         C           -0.619168468480    -1.269409806304    -3.269504090070    12.000000000000
         H           -0.195608468480    -2.263309806304    -3.217404090070     1.007825032230
         C           -1.995638468480    -1.104949806304    -3.412464090070    12.000000000000
         H           -2.640518468480    -1.971149806304    -3.475864090070     1.007825032230
         C           -2.541588468480     0.176170193696    -3.473704090070    12.000000000000
         H           -3.609838468480     0.304340193696    -3.585854090070     1.007825032230
         C           -1.709888468480     1.291760193696    -3.395554090070    12.000000000000
         H           -2.132958468480     2.286120193696    -3.445044090070     1.007825032230
         C            1.995561531520     1.104990193696     3.412965909930    12.000000000000
         H            2.640411531520     1.971170193696     3.476715909930     1.007825032230
         C            2.541521531520    -0.176159806304     3.474485909930    12.000000000000
         H            3.609721531520    -0.304309806304     3.587225909930     1.007825032230
         C            1.709871531520    -1.291759806304     3.395835909930    12.000000000000
         H            2.132951531520    -2.286109806304     3.445485909930     1.007825032230
         C            0.333461531520    -1.126129806304     3.251115909930    12.000000000000
         H           -0.311638468480    -1.991539806304     3.183485909930     1.007825032230
         C           -0.212088468480     0.154110193696     3.187155909930    12.000000000000
         H           -1.278718468480     0.281930193696     3.063975909930     1.007825032230
         C            0.619181531520     1.269390193696     3.269225909930    12.000000000000
         H            0.195661531520     2.263290193696     3.216855909930     1.007825032230

  Running in c1 symmetry.

  Rotational constants: A =      0.05283  B =      0.00795  C =      0.00782 [cm^-1]
  Rotational constants: A =   1583.72713  B =    238.24599  C =    234.43559 [MHz]
  Nuclear repulsion =  534.996387632002438

  Charge       = 0
  Multiplicity = 1
  Electrons    = 84
  Nalpha       = 42
  Nbeta        = 42

  ==> Algorithm <==

  SCF Algorithm Type is DF.
  DIIS enabled.
  MOM disabled.
  Fractional occupation disabled.
  Guess Type is SAD.
  Energy threshold   = 1.00e-08
  Density threshold  = 1.00e-08
  Integral threshold = 0.00e+00

  ==> Primary Basis <==

  Basis Set: AUG-CC-PVTZ
    Blend: AUG-CC-PVTZ
    Number of shells: 276
    Number of basis function: 828
    Number of Cartesian functions: 960
    Spherical Harmonics?: true
    Max angular momentum: 3

   => Loading Basis Set <=

    Name: (AUG-CC-PVTZ AUX)
    Role: JKFIT
    Keyword: DF_BASIS_SCF
    atoms 1, 3, 5, 7, 9, 11, 13, 15, 17, 19, 21, 23  entry C          line   162 file /home/liuchw/anaconda3/envs/psi4env/share/psi4/basis/aug-cc-pvtz-jkfit.gbs 
    atoms 2, 4, 6, 8, 10, 12, 14, 16, 18, 20, 22, 24 entry H          line    70 file /home/liuchw/anaconda3/envs/psi4env/share/psi4/basis/aug-cc-pvtz-jkfit.gbs 

  ==> Pre-Iterations <==

   -------------------------------------------------------
    Irrep   Nso     Nmo     Nalpha   Nbeta   Ndocc  Nsocc
   -------------------------------------------------------
     A        828     828       0       0       0       0
   -------------------------------------------------------
    Total     828     828      42      42      42       0
   -------------------------------------------------------

  ==> Integral Setup <==

  ==> DiskDFJK: Density-Fitted J/K Matrices <==

    J tasked:                  Yes
    K tasked:                  Yes
    wK tasked:                  No
    OpenMP threads:              8
    Integrals threads:           8
    Memory [MiB]:            17881
    Algorithm:                Core
    Integral Cache:           SAVE
    Schwarz Cutoff:          1E-12
    Fitting Condition:       1E-10

   => Auxiliary Basis Set <=

  Basis Set: (AUG-CC-PVTZ AUX)
    Blend: AUG-CC-PVTZ-JKFIT
    Number of shells: 528
    Number of basis function: 1800
    Number of Cartesian functions: 2232
    Spherical Harmonics?: true
    Max angular momentum: 4

  Minimum eigenvalue in the overlap matrix is 3.1302810216E-07.
  Using Symmetric Orthogonalization.

  SCF Guess: Superposition of Atomic Densities via on-the-fly atomic UHF.

  ==> Iterations <==

                           Total Energy        Delta E     RMS |[F,P]|

   @DF-RHF iter SAD:  -460.39005129304996   -4.60390e+02   0.00000e+00 
   @DF-RHF iter   1:  -461.20060509611653   -8.10554e-01   9.35648e-04 DIIS
   @DF-RHF iter   2:  -461.48488746800501   -2.84282e-01   4.65055e-04 DIIS
   @DF-RHF iter   3:  -461.55924747955015   -7.43600e-02   7.41854e-05 DIIS
   @DF-RHF iter   4:  -461.56235179011452   -3.10431e-03   9.41502e-06 DIIS
   @DF-RHF iter   5:  -461.56241066366943   -5.88736e-05   2.26007e-06 DIIS
   @DF-RHF iter   6:  -461.56241314324103   -2.47957e-06   1.09904e-06 DIIS
   @DF-RHF iter   7:  -461.56241363211461   -4.88874e-07   1.16540e-07 DIIS
   @DF-RHF iter   8:  -461.56241364194477   -9.83016e-09   2.24906e-08 DIIS
   @DF-RHF iter   9:  -461.56241364225957   -3.14799e-10   7.02622e-09 DIIS
  Energy and wave function converged.


  ==> Post-Iterations <==

    Orbital Energies [Eh]
    ---------------------

    Doubly Occupied:                                                      

       1A    -11.234769     2A    -11.234769     3A    -11.234162  
       4A    -11.234161     5A    -11.234045     6A    -11.234043  
       7A    -11.232905     8A    -11.232905     9A    -11.232879  
      10A    -11.232876    11A    -11.232186    12A    -11.232182  
      13A     -1.148939    14A     -1.148935    15A     -1.013392  
      16A     -1.013388    17A     -1.013244    18A     -1.013242  
      19A     -0.822664    20A     -0.822662    21A     -0.822586  
      22A     -0.822585    23A     -0.708186    24A     -0.708182  
      25A     -0.642530    26A     -0.642528    27A     -0.617708  
      28A     -0.617705    29A     -0.586668    30A     -0.586665  
      31A     -0.586478    32A     -0.586473    33A     -0.500964  
      34A     -0.500763    35A     -0.493470    36A     -0.493469  
      37A     -0.493265    38A     -0.493262    39A     -0.335360  
      40A     -0.335357    41A     -0.335163    42A     -0.335128  

    Virtual:                                                              

      43A      0.027509    44A      0.031170    45A      0.031403  
      46A      0.038591    47A      0.040516    48A      0.041028  
      49A      0.047225    50A      0.047528    51A      0.053368  
      52A      0.054274    53A      0.063734    54A      0.069610  
      55A      0.087253    56A      0.100690    57A      0.102237  
      58A      0.103302    59A      0.103789    60A      0.108204  
      61A      0.109155    62A      0.113438    63A      0.114652  
      64A      0.115470    65A      0.117369    66A      0.121364  
      67A      0.122552    68A      0.125041    69A      0.126656  
      70A      0.128007    71A      0.128888    72A      0.130203  
      73A      0.133348    74A      0.134933    75A      0.135135  
      76A      0.137253    77A      0.141023    78A      0.152675  
      79A      0.153760    80A      0.156171    81A      0.156512  
      82A      0.156780    83A      0.157557    84A      0.158378  
      85A      0.159795    86A      0.160311    87A      0.160693  
      88A      0.164086    89A      0.179470    90A      0.182527  
      91A      0.186483    92A      0.187565    93A      0.198690  
      94A      0.208000    95A      0.230443    96A      0.233779  
      97A      0.240869    98A      0.244729    99A      0.246654  
     100A      0.248755   101A      0.253292   102A      0.260157  
     103A      0.261096   104A      0.262312   105A      0.265941  
     106A      0.273213   107A      0.286872   108A      0.291681  
     109A      0.298926   110A      0.298984   111A      0.302415  
     112A      0.303462   113A      0.308069   114A      0.310793  
     115A      0.314200   116A      0.317957   117A      0.319578  
     118A      0.321295   119A      0.322302   120A      0.322916  
     121A      0.325759   122A      0.331409   123A      0.332330  
     124A      0.337083   125A      0.340577   126A      0.341820  
     127A      0.344084   128A      0.347819   129A      0.350283  
     130A      0.351730   131A      0.353774   132A      0.354750  
     133A      0.355217   134A      0.356158   135A      0.357901  
     136A      0.373622   137A      0.377021   138A      0.395520  
     139A      0.396325   140A      0.396677   141A      0.404724  
     142A      0.408706   143A      0.414009   144A      0.420169  
     145A      0.424027   146A      0.438234   147A      0.439147  
     148A      0.439236   149A      0.441660   150A      0.441708  
     151A      0.443469   152A      0.444947   153A      0.448361  
     154A      0.453808   155A      0.463685   156A      0.469090  
     157A      0.472328   158A      0.473690   159A      0.474257  
     160A      0.474955   161A      0.478960   162A      0.481955  
     163A      0.485754   164A      0.486188   165A      0.491287  
     166A      0.491539   167A      0.494119   168A      0.496631  
     169A      0.500067   170A      0.502630   171A      0.504747  
     172A      0.505397   173A      0.508459   174A      0.515303  
     175A      0.518558   176A      0.524027   177A      0.525405  
     178A      0.527525   179A      0.532377   180A      0.533711  
     181A      0.534447   182A      0.536133   183A      0.536243  
     184A      0.538324   185A      0.546904   186A      0.550128  
     187A      0.551452   188A      0.557740   189A      0.558302  
     190A      0.562594   191A      0.565783   192A      0.571560  
     193A      0.603582   194A      0.619402   195A      0.627380  
     196A      0.630046   197A      0.634270   198A      0.638521  
     199A      0.640556   200A      0.650065   201A      0.650747  
     202A      0.651579   203A      0.653255   204A      0.654765  
     205A      0.657295   206A      0.661161   207A      0.661480  
     208A      0.662891   209A      0.665904   210A      0.668585  
     211A      0.669948   212A      0.672038   213A      0.699998  
     214A      0.701540   215A      0.702995   216A      0.705138  
     217A      0.705922   218A      0.709254   219A      0.712380  
     220A      0.716877   221A      0.729480   222A      0.729660  
     223A      0.734364   224A      0.739309   225A      0.740732  
     226A      0.743378   227A      0.749647   228A      0.758898  
     229A      0.769294   230A      0.770089   231A      0.772615  
     232A      0.773173   233A      0.792563   234A      0.795734  
     235A      0.806034   236A      0.807410   237A      0.821696  
     238A      0.822022   239A      0.823539   240A      0.824224  
     241A      0.838577   242A      0.839525   243A      0.851752  
     244A      0.855562   245A      0.857553   246A      0.859155  
     247A      0.860313   248A      0.862776   249A      0.871641  
     250A      0.871860   251A      0.874188   252A      0.879484  
     253A      0.881723   254A      0.883599   255A      0.889594  
     256A      0.889864   257A      0.897989   258A      0.903069  
     259A      0.904349   260A      0.905718   261A      0.907881  
     262A      0.913367   263A      0.914320   264A      0.922837  
     265A      0.929582   266A      0.936507   267A      0.938997  
     268A      0.944527   269A      0.949136   270A      0.949932  
     271A      0.952240   272A      0.970035   273A      0.972368  
     274A      0.978137   275A      0.992548   276A      0.995046  
     277A      0.995678   278A      0.997877   279A      1.003152  
     280A      1.003686   281A      1.018364   282A      1.023300  
     283A      1.028962   284A      1.035373   285A      1.039027  
     286A      1.044430   287A      1.050766   288A      1.051064  
     289A      1.059535   290A      1.059579   291A      1.066901  
     292A      1.075497   293A      1.080197   294A      1.083843  
     295A      1.087252   296A      1.088091   297A      1.089739  
     298A      1.089937   299A      1.092116   300A      1.101257  
     301A      1.101849   302A      1.102261   303A      1.104461  
     304A      1.106617   305A      1.108203   306A      1.112117  
     307A      1.115725   308A      1.116989   309A      1.122732  
     310A      1.126140   311A      1.126717   312A      1.135176  
     313A      1.142835   314A      1.144008   315A      1.144658  
     316A      1.145104   317A      1.153318   318A      1.156228  
     319A      1.183116   320A      1.184790   321A      1.186372  
     322A      1.187844   323A      1.188661   324A      1.193231  
     325A      1.195541   326A      1.200439   327A      1.216095  
     328A      1.217048   329A      1.219943   330A      1.220492  
     331A      1.222729   332A      1.226737   333A      1.228005  
     334A      1.228534   335A      1.229630   336A      1.234035  
     337A      1.239190   338A      1.240053   339A      1.244265  
     340A      1.245592   341A      1.268366   342A      1.274844  
     343A      1.275311   344A      1.282671   345A      1.284320  
     346A      1.286017   347A      1.291477   348A      1.298228  
     349A      1.331857   350A      1.332590   351A      1.361027  
     352A      1.362186   353A      1.366174   354A      1.366707  
     355A      1.369326   356A      1.375329   357A      1.386919  
     358A      1.392007   359A      1.397744   360A      1.401720  
     361A      1.403770   362A      1.403879   363A      1.406902  
     364A      1.406930   365A      1.410147   366A      1.410343  
     367A      1.433395   368A      1.434060   369A      1.478261  
     370A      1.480385   371A      1.481559   372A      1.484230  
     373A      1.490877   374A      1.494509   375A      1.514973  
     376A      1.518063   377A      1.518188   378A      1.519493  
     379A      1.525763   380A      1.526941   381A      1.528080  
     382A      1.529505   383A      1.533542   384A      1.535034  
     385A      1.550875   386A      1.551898   387A      1.645975  
     388A      1.657984   389A      1.678969   390A      1.681634  
     391A      1.682006   392A      1.688870   393A      1.696710  
     394A      1.698163   395A      1.700731   396A      1.701175  
     397A      1.704739   398A      1.705194   399A      1.718957  
     400A      1.719608   401A      1.724829   402A      1.725481  
     403A      1.757874   404A      1.759501   405A      1.759734  
     406A      1.761751   407A      1.781030   408A      1.781098  
     409A      1.796767   410A      1.797186   411A      1.819414  
     412A      1.819737   413A      1.830021   414A      1.830797  
     415A      1.833825   416A      1.834131   417A      1.842027  
     418A      1.843174   419A      1.845505   420A      1.847667  
     421A      1.859193   422A      1.861289   423A      1.883766  
     424A      1.891987   425A      1.894473   426A      1.894842  
     427A      1.896560   428A      1.897266   429A      1.912377  
     430A      1.912499   431A      1.919994   432A      1.923059  
     433A      1.935337   434A      1.938413   435A      1.983128  
     436A      1.989873   437A      1.996182   438A      1.997215  
     439A      1.999791   440A      2.003042   441A      2.010517  
     442A      2.011261   443A      2.011923   444A      2.013290  
     445A      2.018044   446A      2.020665   447A      2.029052  
     448A      2.033502   449A      2.043523   450A      2.045122  
     451A      2.055864   452A      2.056722   453A      2.057200  
     454A      2.057666   455A      2.063801   456A      2.063933  
     457A      2.090537   458A      2.093365   459A      2.093631  
     460A      2.094366   461A      2.103448   462A      2.103484  
     463A      2.110219   464A      2.110554   465A      2.112072  
     466A      2.114350   467A      2.121728   468A      2.127293  
     469A      2.230624   470A      2.231050   471A      2.237017  
     472A      2.240035   473A      2.271084   474A      2.272783  
     475A      2.280778   476A      2.285091   477A      2.340754  
     478A      2.342816   479A      2.345344   480A      2.345935  
     481A      2.353725   482A      2.355934   483A      2.372518  
     484A      2.373084   485A      2.373351   486A      2.373834  
     487A      2.374991   488A      2.381993   489A      2.385835  
     490A      2.398397   491A      2.406184   492A      2.409841  
     493A      2.443369   494A      2.444665   495A      2.515514  
     496A      2.515870   497A      2.519635   498A      2.520160  
     499A      2.563751   500A      2.565012   501A      2.567781  
     502A      2.569718   503A      2.572449   504A      2.573809  
     505A      2.593108   506A      2.595295   507A      2.595643  
     508A      2.598146   509A      2.716577   510A      2.717937  
     511A      2.721809   512A      2.747530   513A      2.756060  
     514A      2.756115   515A      2.765832   516A      2.767047  
     517A      2.795312   518A      2.795325   519A      2.843823  
     520A      2.844306   521A      2.846223   522A      2.848603  
     523A      2.867200   524A      2.890091   525A      2.934368  
     526A      2.935037   527A      3.081743   528A      3.083388  
     529A      3.084144   530A      3.086548   531A      3.139523  
     532A      3.139632   533A      3.164329   534A      3.166426  
     535A      3.171813   536A      3.179827   537A      3.227505  
     538A      3.228543   539A      3.229205   540A      3.229892  
     541A      3.314214   542A      3.314664   543A      3.318518  
     544A      3.318924   545A      3.322682   546A      3.324352  
     547A      3.337085   548A      3.339893   549A      3.368556  
     550A      3.368571   551A      3.369715   552A      3.372730  
     553A      3.385196   554A      3.385615   555A      3.387316  
     556A      3.388994   557A      3.395158   558A      3.399405  
     559A      3.407770   560A      3.407781   561A      3.413516  
     562A      3.413537   563A      3.431709   564A      3.432406  
     565A      3.432954   566A      3.434364   567A      3.528426  
     568A      3.530980   569A      3.534140   570A      3.534262  
     571A      3.538041   572A      3.538545   573A      3.538590  
     574A      3.538882   575A      3.556640   576A      3.558256  
     577A      3.558335   578A      3.560086   579A      3.575146  
     580A      3.575405   581A      3.575819   582A      3.578484  
     583A      3.590792   584A      3.601978   585A      3.622401  
     586A      3.627382   587A      3.636913   588A      3.641079  
     589A      3.652813   590A      3.656210   591A      3.657170  
     592A      3.660004   593A      3.661359   594A      3.662926  
     595A      3.752944   596A      3.756463   597A      3.773510  
     598A      3.775106   599A      3.806751   600A      3.807781  
     601A      3.818426   602A      3.822170   603A      3.834656  
     604A      3.835202   605A      3.836806   606A      3.838696  
     607A      3.840616   608A      3.841218   609A      3.841332  
     610A      3.842791   611A      3.847508   612A      3.848214  
     613A      3.849465   614A      3.850668   615A      3.872126  
     616A      3.873536   617A      3.874878   618A      3.875896  
     619A      3.961885   620A      3.964025   621A      3.964177  
     622A      3.966578   623A      3.989733   624A      3.991513  
     625A      3.991593   626A      3.992721   627A      3.993225  
     628A      3.996750   629A      4.037107   630A      4.038334  
     631A      4.039288   632A      4.041124   633A      4.049006  
     634A      4.055018   635A      4.058986   636A      4.061587  
     637A      4.067278   638A      4.070471   639A      4.109732  
     640A      4.109738   641A      4.110065   642A      4.110695  
     643A      4.130534   644A      4.130688   645A      4.136641  
     646A      4.137749   647A      4.137816   648A      4.141175  
     649A      4.174324   650A      4.174728   651A      4.189992  
     652A      4.190163   653A      4.207121   654A      4.210219  
     655A      4.248758   656A      4.249332   657A      4.250585  
     658A      4.251097   659A      4.285646   660A      4.292728  
     661A      4.292852   662A      4.302683   663A      4.337400  
     664A      4.337601   665A      4.341760   666A      4.342480  
     667A      4.357674   668A      4.357987   669A      4.371095  
     670A      4.371211   671A      4.373409   672A      4.374871  
     673A      4.431346   674A      4.432032   675A      4.435806  
     676A      4.437320   677A      4.438145   678A      4.439031  
     679A      4.445035   680A      4.446150   681A      4.446278  
     682A      4.446657   683A      4.467729   684A      4.470815  
     685A      4.473201   686A      4.473539   687A      4.474625  
     688A      4.475271   689A      4.511968   690A      4.512551  
     691A      4.513062   692A      4.513476   693A      4.607368  
     694A      4.607383   695A      4.705104   696A      4.705453  
     697A      4.723366   698A      4.723882   699A      4.724938  
     700A      4.726365   701A      4.729473   702A      4.730480  
     703A      4.730784   704A      4.731098   705A      4.742704  
     706A      4.747906   707A      4.798294   708A      4.798443  
     709A      4.798841   710A      4.799346   711A      4.882259  
     712A      4.883507   713A      4.884636   714A      4.884825  
     715A      4.932804   716A      4.932972   717A      4.934796  
     718A      4.934849   719A      4.946146   720A      4.946175  
     721A      5.035132   722A      5.035350   723A      5.035927  
     724A      5.035981   725A      5.078052   726A      5.081540  
     727A      5.083073   728A      5.083604   729A      5.084447  
     730A      5.087206   731A      5.087274   732A      5.090991  
     733A      5.119381   734A      5.121434   735A      5.121773  
     736A      5.124692   737A      5.155866   738A      5.156214  
     739A      5.158767   740A      5.159335   741A      5.181985  
     742A      5.182108   743A      5.182526   744A      5.182756  
     745A      5.183851   746A      5.184400   747A      5.184474  
     748A      5.185957   749A      5.241553   750A      5.244141  
     751A      5.244183   752A      5.245917   753A      5.341667  
     754A      5.342357   755A      5.344392   756A      5.347339  
     757A      5.349388   758A      5.349545   759A      5.358491  
     760A      5.361623   761A      5.433379   762A      5.434180  
     763A      5.434220   764A      5.434615   765A      5.442621  
     766A      5.442954   767A      5.443171   768A      5.443330  
     769A      5.504295   770A      5.511085   771A      5.540314  
     772A      5.541065   773A      5.743278   774A      5.744191  
     775A      5.745832   776A      5.745989   777A      5.794425  
     778A      5.794601   779A      5.795898   780A      5.797011  
     781A      5.859327   782A      5.860017   783A      5.883521  
     784A      5.883926   785A      5.944782   786A      5.951559  
     787A      5.985781   788A      5.986073   789A      6.169900  
     790A      6.170123   791A      6.170845   792A      6.172163  
     793A      6.273598   794A      6.275263   795A      6.276199  
     796A      6.276712   797A      6.370884   798A      6.372536  
     799A      6.372737   800A      6.373869   801A      6.402196  
     802A      6.402931   803A      6.652666   804A      6.653597  
     805A      6.654295   806A      6.654770   807A      6.864854  
     808A      6.865239   809A      6.865287   810A      6.867616  
     811A      7.034025   812A      7.034414   813A      7.223445  
     814A      7.226666   815A      7.448080   816A      7.448112  
     817A     16.062765   818A     16.065952   819A     16.069781  
     820A     16.072276   821A     17.318053   822A     17.333244  
     823A     19.341011   824A     19.367139   825A     19.376138  
     826A     19.380608   827A     19.581928   828A     19.582959  

    Final Occupation by Irrep:
              A 
    DOCC [    42 ]

  @DF-RHF Final Energy:  -461.56241364225957

   => Energetics <=

    Nuclear Repulsion Energy =            534.9963876320024383
    One-Electron Energy =               -1683.0319306408346165
    Two-Electron Energy =                 686.4731293665724934
    Total Energy =                       -461.5624136422595711

Computation Completed


Properties will be evaluated at   0.000000,   0.000000,   0.000000 [a0]

Properties computed using the SCF density matrix

  Nuclear Dipole Moment: [e a0]
     X:     0.0001      Y:    -0.0000      Z:    -0.0002

  Electronic Dipole Moment: [e a0]
     X:    -0.0001      Y:     0.0000      Z:     0.0001

  Dipole Moment: [e a0]
     X:     0.0000      Y:    -0.0000      Z:    -0.0001     Total:     0.0001

  Dipole Moment: [D]
     X:     0.0001      Y:    -0.0000      Z:    -0.0003     Total:     0.0003


*** tstop() called on node49.bme.utexas.edu at Fri Apr 24 12:55:09 2020
Module time:
	user time   =     485.31 seconds =       8.09 minutes
	system time =       6.94 seconds =       0.12 minutes
	total time  =        158 seconds =       2.63 minutes
Total time:
	user time   =     485.31 seconds =       8.09 minutes
	system time =       6.94 seconds =       0.12 minutes
	total time  =        158 seconds =       2.63 minutes

  //>>>>>>>>>>>>>>>>>>>>>>>>>>>>>>>>>>>//
  //            Monomer A HF           //
  //<<<<<<<<<<<<<<<<<<<<<<<<<<<<<<<<<<<//


*** tstart() called on node49.bme.utexas.edu
*** at Fri Apr 24 12:55:09 2020

   => Loading Basis Set <=

    Name: AUG-CC-PVTZ
    Role: ORBITAL
    Keyword: BASIS
    atoms 1, 3, 5, 7, 9, 11, 13, 15, 17, 19, 21, 23  entry C          line   239 file /home/liuchw/anaconda3/envs/psi4env/share/psi4/basis/aug-cc-pvtz.gbs 
    atoms 2, 4, 6, 8, 10, 12, 14, 16, 18, 20, 22, 24 entry H          line    40 file /home/liuchw/anaconda3/envs/psi4env/share/psi4/basis/aug-cc-pvtz.gbs 


         ---------------------------------------------------------
                                   SCF
               by Justin Turney, Rob Parrish, Andy Simmonett
                          and Daniel G. A. Smith
                              RHF Reference
                        8 Threads,  23841 MiB Core
         ---------------------------------------------------------

  ==> Geometry <==

    Molecular point group: c1
    Full point group: C1

    Geometry (in Angstrom), charge = 0, multiplicity = 1:

       Center              X                  Y                   Z               Mass       
    ------------   -----------------  -----------------  -----------------  -----------------
         C           -0.333418468480     1.126120193696    -3.251614090070    12.000000000000
         H            0.311781531520     1.991520193696    -3.184414090070     1.007825032230
         C            0.212181531520    -0.154129806304    -3.187924090070    12.000000000000
         H            1.278891531520    -0.281979806304    -3.065414090070     1.007825032230
         C           -0.619168468480    -1.269409806304    -3.269504090070    12.000000000000
         H           -0.195608468480    -2.263309806304    -3.217404090070     1.007825032230
         C           -1.995638468480    -1.104949806304    -3.412464090070    12.000000000000
         H           -2.640518468480    -1.971149806304    -3.475864090070     1.007825032230
         C           -2.541588468480     0.176170193696    -3.473704090070    12.000000000000
         H           -3.609838468480     0.304340193696    -3.585854090070     1.007825032230
         C           -1.709888468480     1.291760193696    -3.395554090070    12.000000000000
         H           -2.132958468480     2.286120193696    -3.445044090070     1.007825032230
      Gh(C)           1.995561531520     1.104990193696     3.412965909930    12.000000000000
      Gh(H)           2.640411531520     1.971170193696     3.476715909930     1.007825032230
      Gh(C)           2.541521531520    -0.176159806304     3.474485909930    12.000000000000
      Gh(H)           3.609721531520    -0.304309806304     3.587225909930     1.007825032230
      Gh(C)           1.709871531520    -1.291759806304     3.395835909930    12.000000000000
      Gh(H)           2.132951531520    -2.286109806304     3.445485909930     1.007825032230
      Gh(C)           0.333461531520    -1.126129806304     3.251115909930    12.000000000000
      Gh(H)          -0.311638468480    -1.991539806304     3.183485909930     1.007825032230
      Gh(C)          -0.212088468480     0.154110193696     3.187155909930    12.000000000000
      Gh(H)          -1.278718468480     0.281930193696     3.063975909930     1.007825032230
      Gh(C)           0.619181531520     1.269390193696     3.269225909930    12.000000000000
      Gh(H)           0.195661531520     2.263290193696     3.216855909930     1.007825032230

  Running in c1 symmetry.

  Rotational constants: A =      0.05283  B =      0.00795  C =      0.00782 [cm^-1]
  Rotational constants: A =   1583.72713  B =    238.24599  C =    234.43559 [MHz]
  Nuclear repulsion =  203.711894082039635

  Charge       = 0
  Multiplicity = 1
  Electrons    = 42
  Nalpha       = 21
  Nbeta        = 21

  ==> Algorithm <==

  SCF Algorithm Type is DF.
  DIIS enabled.
  MOM disabled.
  Fractional occupation disabled.
  Guess Type is SAD.
  Energy threshold   = 1.00e-08
  Density threshold  = 1.00e-08
  Integral threshold = 0.00e+00

  ==> Primary Basis <==

  Basis Set: AUG-CC-PVTZ
    Blend: AUG-CC-PVTZ
    Number of shells: 276
    Number of basis function: 828
    Number of Cartesian functions: 960
    Spherical Harmonics?: true
    Max angular momentum: 3

   => Loading Basis Set <=

    Name: (AUG-CC-PVTZ AUX)
    Role: JKFIT
    Keyword: DF_BASIS_SCF
    atoms 1, 3, 5, 7, 9, 11, 13, 15, 17, 19, 21, 23  entry C          line   162 file /home/liuchw/anaconda3/envs/psi4env/share/psi4/basis/aug-cc-pvtz-jkfit.gbs 
    atoms 2, 4, 6, 8, 10, 12, 14, 16, 18, 20, 22, 24 entry H          line    70 file /home/liuchw/anaconda3/envs/psi4env/share/psi4/basis/aug-cc-pvtz-jkfit.gbs 

  ==> Pre-Iterations <==

   -------------------------------------------------------
    Irrep   Nso     Nmo     Nalpha   Nbeta   Ndocc  Nsocc
   -------------------------------------------------------
     A        828     828       0       0       0       0
   -------------------------------------------------------
    Total     828     828      21      21      21       0
   -------------------------------------------------------

  ==> Integral Setup <==

  ==> DiskDFJK: Density-Fitted J/K Matrices <==

    J tasked:                  Yes
    K tasked:                  Yes
    wK tasked:                  No
    OpenMP threads:              8
    Integrals threads:           8
    Memory [MiB]:            17881
    Algorithm:                Core
    Integral Cache:           LOAD
    Schwarz Cutoff:          1E-12
    Fitting Condition:       1E-10

   => Auxiliary Basis Set <=

  Basis Set: (AUG-CC-PVTZ AUX)
    Blend: AUG-CC-PVTZ-JKFIT
    Number of shells: 528
    Number of basis function: 1800
    Number of Cartesian functions: 2232
    Spherical Harmonics?: true
    Max angular momentum: 4

  Minimum eigenvalue in the overlap matrix is 3.1302810216E-07.
  Using Symmetric Orthogonalization.

  SCF Guess: Superposition of Atomic Densities via on-the-fly atomic UHF.

  ==> Iterations <==

                           Total Energy        Delta E     RMS |[F,P]|

   @DF-RHF iter SAD:  -230.19477499944378   -2.30195e+02   0.00000e+00 
   @DF-RHF iter   1:  -230.60054559255565   -4.05771e-01   6.61221e-04 DIIS
   @DF-RHF iter   2:  -230.74270295650737   -1.42157e-01   3.28050e-04 DIIS
   @DF-RHF iter   3:  -230.77970437221558   -3.70014e-02   5.23584e-05 DIIS
   @DF-RHF iter   4:  -230.78125290683818   -1.54853e-03   6.47168e-06 DIIS
   @DF-RHF iter   5:  -230.78128182368803   -2.89168e-05   1.18019e-06 DIIS
   @DF-RHF iter   6:  -230.78128284418642   -1.02050e-06   1.50193e-07 DIIS
   @DF-RHF iter   7:  -230.78128286015792   -1.59715e-08   6.76979e-08 DIIS
   @DF-RHF iter   8:  -230.78128286202215   -1.86424e-09   1.18919e-08 DIIS
   @DF-RHF iter   9:  -230.78128286214226   -1.20110e-10   2.93670e-09 DIIS
  Energy and wave function converged.


  ==> Post-Iterations <==

    Orbital Energies [Eh]
    ---------------------

    Doubly Occupied:                                                      

       1A    -11.236280     2A    -11.235701     3A    -11.235676  
       4A    -11.234451     5A    -11.234444     6A    -11.233826  
       7A     -1.150538     8A     -1.015006     9A     -1.014801  
      10A     -0.824224    11A     -0.824165    12A     -0.709746  
      13A     -0.644068    14A     -0.619287    15A     -0.588264  
      16A     -0.587991    17A     -0.502493    18A     -0.495050  
      19A     -0.494786    20A     -0.336933    21A     -0.336810  

    Virtual:                                                              

      22A      0.018735    23A      0.029354    24A      0.029669  
      25A      0.034473    26A      0.039095    27A      0.039871  
      28A      0.046642    29A      0.046780    30A      0.053529  
      31A      0.054359    32A      0.063942    33A      0.069741  
      34A      0.070286    35A      0.079827    36A      0.094133  
      37A      0.094264    38A      0.097071    39A      0.099108  
      40A      0.104992    41A      0.105895    42A      0.109688  
      43A      0.116948    44A      0.117704    45A      0.117927  
      46A      0.120053    47A      0.123585    48A      0.125108  
      49A      0.126119    50A      0.128374    51A      0.130612  
      52A      0.131336    53A      0.131781    54A      0.136014  
      55A      0.140554    56A      0.140844    57A      0.149679  
      58A      0.153865    59A      0.156141    60A      0.156400  
      61A      0.157164    62A      0.159076    63A      0.159751  
      64A      0.160048    65A      0.163372    66A      0.174086  
      67A      0.176174    68A      0.177281    69A      0.179807  
      70A      0.184008    71A      0.194515    72A      0.199813  
      73A      0.200481    74A      0.224094    75A      0.230778  
      76A      0.235347    77A      0.237123    78A      0.239731  
      79A      0.245060    80A      0.248869    81A      0.256912  
      82A      0.258311    83A      0.258857    84A      0.278616  
      85A      0.286940    86A      0.288967    87A      0.290084  
      88A      0.295389    89A      0.296386    90A      0.302152  
      91A      0.303449    92A      0.305108    93A      0.307769  
      94A      0.310974    95A      0.311959    96A      0.316314  
      97A      0.319374    98A      0.322153    99A      0.326208  
     100A      0.329243   101A      0.335017   102A      0.336973  
     103A      0.341696   104A      0.341988   105A      0.349121  
     106A      0.349669   107A      0.350909   108A      0.354019  
     109A      0.358563   110A      0.360048   111A      0.366059  
     112A      0.367860   113A      0.368660   114A      0.371528  
     115A      0.379354   116A      0.382843   117A      0.384824  
     118A      0.387549   119A      0.396050   120A      0.399858  
     121A      0.401975   122A      0.405266   123A      0.407996  
     124A      0.413768   125A      0.415529   126A      0.419116  
     127A      0.425310   128A      0.429748   129A      0.433479  
     130A      0.434569   131A      0.439018   132A      0.442540  
     133A      0.447045   134A      0.448790   135A      0.454680  
     136A      0.455282   137A      0.466582   138A      0.470711  
     139A      0.471592   140A      0.474213   141A      0.480385  
     142A      0.482154   143A      0.488541   144A      0.491714  
     145A      0.491945   146A      0.496299   147A      0.499248  
     148A      0.500055   149A      0.501571   150A      0.509238  
     151A      0.513934   152A      0.520733   153A      0.521432  
     154A      0.527452   155A      0.530816   156A      0.534243  
     157A      0.537237   158A      0.540071   159A      0.542323  
     160A      0.547945   161A      0.553009   162A      0.556537  
     163A      0.559097   164A      0.562191   165A      0.566584  
     166A      0.598250   167A      0.600603   168A      0.605576  
     169A      0.608560   170A      0.616381   171A      0.619138  
     172A      0.620591   173A      0.623023   174A      0.625149  
     175A      0.628529   176A      0.636630   177A      0.639493  
     178A      0.643489   179A      0.653766   180A      0.654203  
     181A      0.655378   182A      0.658471   183A      0.665737  
     184A      0.665986   185A      0.669742   186A      0.677037  
     187A      0.679186   188A      0.689664   189A      0.690596  
     190A      0.698717   191A      0.699000   192A      0.700946  
     193A      0.702705   194A      0.704658   195A      0.709086  
     196A      0.714801   197A      0.716267   198A      0.720076  
     199A      0.726030   200A      0.728477   201A      0.730017  
     202A      0.738057   203A      0.739435   204A      0.744590  
     205A      0.748300   206A      0.750840   207A      0.759288  
     208A      0.759942   209A      0.767795   210A      0.768355  
     211A      0.772203   212A      0.774870   213A      0.777675  
     214A      0.778956   215A      0.795546   216A      0.804098  
     217A      0.805885   218A      0.820992   219A      0.822296  
     220A      0.827931   221A      0.830226   222A      0.837528  
     223A      0.855243   224A      0.856025   225A      0.861022  
     226A      0.873217   227A      0.874177   228A      0.874554  
     229A      0.880084   230A      0.884617   231A      0.884844  
     232A      0.885404   233A      0.891378   234A      0.904730  
     235A      0.905830   236A      0.911422   237A      0.913958  
     238A      0.917497   239A      0.925307   240A      0.934698  
     241A      0.940232   242A      0.954000   243A      0.958450  
     244A      0.960537   245A      0.972738   246A      0.982278  
     247A      0.988658   248A      0.990826   249A      0.996128  
     250A      1.009714   251A      1.022324   252A      1.027339  
     253A      1.032233   254A      1.033827   255A      1.035978  
     256A      1.041037   257A      1.044799   258A      1.047857  
     259A      1.053304   260A      1.067590   261A      1.071832  
     262A      1.077360   263A      1.079027   264A      1.081773  
     265A      1.083054   266A      1.086125   267A      1.087235  
     268A      1.088029   269A      1.094905   270A      1.099420  
     271A      1.100461   272A      1.102977   273A      1.104577  
     274A      1.105127   275A      1.106685   276A      1.110530  
     277A      1.113363   278A      1.119835   279A      1.127311  
     280A      1.131590   281A      1.135092   282A      1.142205  
     283A      1.142952   284A      1.153159   285A      1.166483  
     286A      1.167524   287A      1.169275   288A      1.173793  
     289A      1.175281   290A      1.182236   291A      1.185985  
     292A      1.190880   293A      1.192705   294A      1.193208  
     295A      1.199910   296A      1.210870   297A      1.215747  
     298A      1.219736   299A      1.224531   300A      1.225595  
     301A      1.230073   302A      1.234879   303A      1.235797  
     304A      1.244183   305A      1.245388   306A      1.267127  
     307A      1.268717   308A      1.273248   309A      1.273898  
     310A      1.282465   311A      1.283519   312A      1.292210  
     313A      1.299292   314A      1.300174   315A      1.307216  
     316A      1.308807   317A      1.310135   318A      1.312096  
     319A      1.313163   320A      1.315667   321A      1.317215  
     322A      1.318272   323A      1.320980   324A      1.321536  
     325A      1.323642   326A      1.325058   327A      1.334419  
     328A      1.364497   329A      1.365667   330A      1.367431  
     331A      1.385797   332A      1.390397   333A      1.395072  
     334A      1.400471   335A      1.405091   336A      1.405691  
     337A      1.416751   338A      1.418559   339A      1.430709  
     340A      1.445459   341A      1.473170   342A      1.475177  
     343A      1.478290   344A      1.480577   345A      1.480962  
     346A      1.483580   347A      1.491587   348A      1.514470  
     349A      1.516464   350A      1.517085   351A      1.517559  
     352A      1.519875   353A      1.525412   354A      1.525705  
     355A      1.528887   356A      1.544303   357A      1.548674  
     358A      1.551826   359A      1.554745   360A      1.558837  
     361A      1.560530   362A      1.568329   363A      1.573095  
     364A      1.575686   365A      1.587041   366A      1.645330  
     367A      1.647407   368A      1.652947   369A      1.670841  
     370A      1.672155   371A      1.674342   372A      1.679061  
     373A      1.680145   374A      1.681199   375A      1.683146  
     376A      1.694084   377A      1.698137   378A      1.700184  
     379A      1.703264   380A      1.719315   381A      1.721458  
     382A      1.721718   383A      1.758498   384A      1.759268  
     385A      1.779493   386A      1.794818   387A      1.804838  
     388A      1.818076   389A      1.831148   390A      1.831929  
     391A      1.835241   392A      1.842628   393A      1.843572  
     394A      1.855230   395A      1.855725   396A      1.858620  
     397A      1.888711   398A      1.889399   399A      1.890172  
     400A      1.892950   401A      1.893699   402A      1.895491  
     403A      1.896427   404A      1.904493   405A      1.914537  
     406A      1.917099   407A      1.935017   408A      1.985026  
     409A      1.989441   410A      1.997122   411A      1.997470  
     412A      2.009502   413A      2.010920   414A      2.013768  
     415A      2.014543   416A      2.015356   417A      2.023548  
     418A      2.024734   419A      2.042533   420A      2.055041  
     421A      2.055428   422A      2.062070   423A      2.090385  
     424A      2.092139   425A      2.103994   426A      2.106184  
     427A      2.107063   428A      2.110121   429A      2.111148  
     430A      2.120875   431A      2.157812   432A      2.159245  
     433A      2.159404   434A      2.162886   435A      2.163553  
     436A      2.178430   437A      2.179293   438A      2.204092  
     439A      2.209425   440A      2.220278   441A      2.226139  
     442A      2.231897   443A      2.235524   444A      2.252756  
     445A      2.273299   446A      2.277311   447A      2.296725  
     448A      2.323714   449A      2.326637   450A      2.327307  
     451A      2.330100   452A      2.332202   453A      2.337583  
     454A      2.338609   455A      2.343217   456A      2.344518  
     457A      2.349237   458A      2.350059   459A      2.354301  
     460A      2.356679   461A      2.358470   462A      2.371666  
     463A      2.372018   464A      2.373371   465A      2.379676  
     466A      2.388321   467A      2.390799   468A      2.406472  
     469A      2.442413   470A      2.457802   471A      2.458233  
     472A      2.507696   473A      2.508520   474A      2.515893  
     475A      2.516810   476A      2.520876   477A      2.524709  
     478A      2.535695   479A      2.538148   480A      2.552911  
     481A      2.553196   482A      2.565559   483A      2.567840  
     484A      2.569418   485A      2.593278   486A      2.594733  
     487A      2.617853   488A      2.620169   489A      2.683232  
     490A      2.718379   491A      2.730428   492A      2.738451  
     493A      2.741228   494A      2.754505   495A      2.764911  
     496A      2.781480   497A      2.793813   498A      2.833475  
     499A      2.834343   500A      2.843538   501A      2.844894  
     502A      2.860748   503A      2.876839   504A      2.881561  
     505A      2.882338   506A      2.883291   507A      2.930501  
     508A      2.933228   509A      3.037720   510A      3.082302  
     511A      3.082755   512A      3.102584   513A      3.132450  
     514A      3.132979   515A      3.138541   516A      3.167751  
     517A      3.170241   518A      3.227016   519A      3.227585  
     520A      3.282382   521A      3.282755   522A      3.312934  
     523A      3.319396   524A      3.319907   525A      3.336981  
     526A      3.367571   527A      3.369333   528A      3.384911  
     529A      3.385180   530A      3.395650   531A      3.406156  
     532A      3.411959   533A      3.430886   534A      3.431167  
     535A      3.492945   536A      3.494868   537A      3.530347  
     538A      3.531844   539A      3.536430   540A      3.536793  
     541A      3.556512   542A      3.556680   543A      3.574080  
     544A      3.574979   545A      3.580488   546A      3.594976  
     547A      3.622899   548A      3.637499   549A      3.653600  
     550A      3.657624   551A      3.657980   552A      3.752785  
     553A      3.772723   554A      3.791219   555A      3.800265  
     556A      3.801164   557A      3.805439   558A      3.819844  
     559A      3.834628   560A      3.835188   561A      3.839705  
     562A      3.840061   563A      3.846740   564A      3.847281  
     565A      3.861500   566A      3.866311   567A      3.871973  
     568A      3.873544   569A      3.939456   570A      3.962441  
     571A      3.962729   572A      3.970516   573A      3.988627  
     574A      3.990100   575A      3.991502   576A      3.999362  
     577A      4.005489   578A      4.005707   579A      4.033259  
     580A      4.034009   581A      4.037255   582A      4.039768  
     583A      4.049753   584A      4.054011   585A      4.056291  
     586A      4.058168   587A      4.059638   588A      4.062984  
     589A      4.086604   590A      4.086770   591A      4.108291  
     592A      4.108638   593A      4.129057   594A      4.132148  
     595A      4.132406   596A      4.136094   597A      4.137902  
     598A      4.172895   599A      4.177983   600A      4.178472  
     601A      4.188519   602A      4.207108   603A      4.211892  
     604A      4.215537   605A      4.215766   606A      4.247696  
     607A      4.248511   608A      4.273821   609A      4.288597  
     610A      4.289045   611A      4.291116   612A      4.292050  
     613A      4.293519   614A      4.300740   615A      4.302435  
     616A      4.338202   617A      4.338318   618A      4.349643  
     619A      4.350377   620A      4.356455   621A      4.360645  
     622A      4.368074   623A      4.371979   624A      4.377637  
     625A      4.430203   626A      4.435833   627A      4.436190  
     628A      4.444131   629A      4.444731   630A      4.468515  
     631A      4.471625   632A      4.472077   633A      4.480804  
     634A      4.493161   635A      4.493760   636A      4.510755  
     637A      4.511494   638A      4.526312   639A      4.560905  
     640A      4.561990   641A      4.564687   642A      4.565958  
     643A      4.567205   644A      4.568202   645A      4.581687  
     646A      4.583873   647A      4.605789   648A      4.634449  
     649A      4.635293   650A      4.641638   651A      4.703783  
     652A      4.708972   653A      4.709244   654A      4.722860  
     655A      4.723610   656A      4.728614   657A      4.729115  
     658A      4.743478   659A      4.786122   660A      4.795124  
     661A      4.795974   662A      4.797154   663A      4.797291  
     664A      4.881784   665A      4.882529   666A      4.893795  
     667A      4.917102   668A      4.932292   669A      4.933218  
     670A      4.944469   671A      4.970216   672A      4.970378  
     673A      4.971785   674A      4.973038   675A      5.034042  
     676A      5.034100   677A      5.060701   678A      5.061509  
     679A      5.081255   680A      5.082302   681A      5.082728  
     682A      5.086277   683A      5.105202   684A      5.109953  
     685A      5.111182   686A      5.118308   687A      5.118926  
     688A      5.127445   689A      5.135511   690A      5.156118  
     691A      5.156512   692A      5.162090   693A      5.179550  
     694A      5.180386   695A      5.180870   696A      5.181228  
     697A      5.182613   698A      5.183582   699A      5.212642  
     700A      5.213452   701A      5.219400   702A      5.241491  
     703A      5.242589   704A      5.274595   705A      5.275637  
     706A      5.341587   707A      5.343256   708A      5.347811  
     709A      5.358173   710A      5.410043   711A      5.417351  
     712A      5.417934   713A      5.432392   714A      5.432726  
     715A      5.441220   716A      5.441481   717A      5.448557  
     718A      5.448783   719A      5.487395   720A      5.488702  
     721A      5.506087   722A      5.509107   723A      5.531314  
     724A      5.539120   725A      5.630569   726A      5.631743  
     727A      5.638804   728A      5.641559   729A      5.666373  
     730A      5.693682   731A      5.727674   732A      5.728157  
     733A      5.737164   734A      5.737918   735A      5.743323  
     736A      5.743640   737A      5.769803   738A      5.792307  
     739A      5.792947   740A      5.793461   741A      5.794428  
     742A      5.798398   743A      5.799454   744A      5.857359  
     745A      5.858164   746A      5.882195   747A      5.946399  
     748A      5.963172   749A      5.964253   750A      5.984396  
     751A      6.004953   752A      6.005991   753A      6.137146  
     754A      6.137547   755A      6.168724   756A      6.169556  
     757A      6.178035   758A      6.195706   759A      6.196190  
     760A      6.197213   761A      6.215062   762A      6.273264  
     763A      6.274390   764A      6.300581   765A      6.370414  
     766A      6.371667   767A      6.401012   768A      6.433647  
     769A      6.435618   770A      6.468246   771A      6.524839  
     772A      6.651738   773A      6.652808   774A      6.713318  
     775A      6.773914   776A      6.775730   777A      6.863558  
     778A      6.864374   779A      6.886164   780A      6.887748  
     781A      6.981081   782A      7.032625   783A      7.062263  
     784A      7.062595   785A      7.114196   786A      7.114860  
     787A      7.155666   788A      7.157649   789A      7.223536  
     790A      7.399901   791A      7.446537   792A      7.464019  
     793A      7.464540   794A      7.579041   795A      7.656023  
     796A      7.657307   797A      7.786827   798A      7.897395  
     799A      8.002825   800A      8.201971   801A      8.202375  
     802A      8.216766   803A      8.333363   804A      8.334193  
     805A      8.960529   806A      8.961468   807A      9.308327  
     808A      9.313052   809A      9.371871   810A     10.051440  
     811A     10.051780   812A     10.992593   813A     11.044516  
     814A     11.205247   815A     11.319431   816A     11.325868  
     817A     16.065612   818A     16.066743   819A     17.324272  
     820A     19.356755   821A     19.372566   822A     19.580811  
     823A     49.691644   824A     49.693269   825A     50.467429  
     826A     55.356982   827A     55.385223   828A     56.646807  

    Final Occupation by Irrep:
              A 
    DOCC [    21 ]

  @DF-RHF Final Energy:  -230.78128286214226

   => Energetics <=

    Nuclear Repulsion Energy =            203.7118940820396347
    One-Electron Energy =                -713.8772817121831622
    Two-Electron Energy =                 279.3841047680012935
    Total Energy =                       -230.7812828621422341

Computation Completed


Properties will be evaluated at   0.000000,   0.000000,   0.000000 [a0]

Properties computed using the SCF density matrix

  Nuclear Dipole Moment: [e a0]
     X:   -92.4329      Y:     0.8672      Z:  -264.4078

  Electronic Dipole Moment: [e a0]
     X:    92.4328      Y:    -0.8672      Z:   264.4124

  Dipole Moment: [e a0]
     X:    -0.0001      Y:     0.0000      Z:     0.0046     Total:     0.0046

  Dipole Moment: [D]
     X:    -0.0003      Y:     0.0001      Z:     0.0117     Total:     0.0117


*** tstop() called on node49.bme.utexas.edu at Fri Apr 24 12:55:43 2020
Module time:
	user time   =     232.95 seconds =       3.88 minutes
	system time =       3.57 seconds =       0.06 minutes
	total time  =         34 seconds =       0.57 minutes
Total time:
	user time   =     718.33 seconds =      11.97 minutes
	system time =      10.51 seconds =       0.18 minutes
	total time  =        192 seconds =       3.20 minutes

  //>>>>>>>>>>>>>>>>>>>>>>>>>>>>>>>>>>>//
  //            Monomer B HF           //
  //<<<<<<<<<<<<<<<<<<<<<<<<<<<<<<<<<<<//


*** tstart() called on node49.bme.utexas.edu
*** at Fri Apr 24 12:55:43 2020

   => Loading Basis Set <=

    Name: AUG-CC-PVTZ
    Role: ORBITAL
    Keyword: BASIS
    atoms 1, 3, 5, 7, 9, 11, 13, 15, 17, 19, 21, 23  entry C          line   239 file /home/liuchw/anaconda3/envs/psi4env/share/psi4/basis/aug-cc-pvtz.gbs 
    atoms 2, 4, 6, 8, 10, 12, 14, 16, 18, 20, 22, 24 entry H          line    40 file /home/liuchw/anaconda3/envs/psi4env/share/psi4/basis/aug-cc-pvtz.gbs 


         ---------------------------------------------------------
                                   SCF
               by Justin Turney, Rob Parrish, Andy Simmonett
                          and Daniel G. A. Smith
                              RHF Reference
                        8 Threads,  23841 MiB Core
         ---------------------------------------------------------

  ==> Geometry <==

    Molecular point group: c1
    Full point group: C1

    Geometry (in Angstrom), charge = 0, multiplicity = 1:

       Center              X                  Y                   Z               Mass       
    ------------   -----------------  -----------------  -----------------  -----------------
      Gh(C)          -0.333418468480     1.126120193696    -3.251614090070    12.000000000000
      Gh(H)           0.311781531520     1.991520193696    -3.184414090070     1.007825032230
      Gh(C)           0.212181531520    -0.154129806304    -3.187924090070    12.000000000000
      Gh(H)           1.278891531520    -0.281979806304    -3.065414090070     1.007825032230
      Gh(C)          -0.619168468480    -1.269409806304    -3.269504090070    12.000000000000
      Gh(H)          -0.195608468480    -2.263309806304    -3.217404090070     1.007825032230
      Gh(C)          -1.995638468480    -1.104949806304    -3.412464090070    12.000000000000
      Gh(H)          -2.640518468480    -1.971149806304    -3.475864090070     1.007825032230
      Gh(C)          -2.541588468480     0.176170193696    -3.473704090070    12.000000000000
      Gh(H)          -3.609838468480     0.304340193696    -3.585854090070     1.007825032230
      Gh(C)          -1.709888468480     1.291760193696    -3.395554090070    12.000000000000
      Gh(H)          -2.132958468480     2.286120193696    -3.445044090070     1.007825032230
         C            1.995561531520     1.104990193696     3.412965909930    12.000000000000
         H            2.640411531520     1.971170193696     3.476715909930     1.007825032230
         C            2.541521531520    -0.176159806304     3.474485909930    12.000000000000
         H            3.609721531520    -0.304309806304     3.587225909930     1.007825032230
         C            1.709871531520    -1.291759806304     3.395835909930    12.000000000000
         H            2.132951531520    -2.286109806304     3.445485909930     1.007825032230
         C            0.333461531520    -1.126129806304     3.251115909930    12.000000000000
         H           -0.311638468480    -1.991539806304     3.183485909930     1.007825032230
         C           -0.212088468480     0.154110193696     3.187155909930    12.000000000000
         H           -1.278718468480     0.281930193696     3.063975909930     1.007825032230
         C            0.619181531520     1.269390193696     3.269225909930    12.000000000000
         H            0.195661531520     2.263290193696     3.216855909930     1.007825032230

  Running in c1 symmetry.

  Rotational constants: A =      0.05283  B =      0.00795  C =      0.00782 [cm^-1]
  Rotational constants: A =   1583.72713  B =    238.24599  C =    234.43559 [MHz]
  Nuclear repulsion =  203.711663754506247

  Charge       = 0
  Multiplicity = 1
  Electrons    = 42
  Nalpha       = 21
  Nbeta        = 21

  ==> Algorithm <==

  SCF Algorithm Type is DF.
  DIIS enabled.
  MOM disabled.
  Fractional occupation disabled.
  Guess Type is SAD.
  Energy threshold   = 1.00e-08
  Density threshold  = 1.00e-08
  Integral threshold = 0.00e+00

  ==> Primary Basis <==

  Basis Set: AUG-CC-PVTZ
    Blend: AUG-CC-PVTZ
    Number of shells: 276
    Number of basis function: 828
    Number of Cartesian functions: 960
    Spherical Harmonics?: true
    Max angular momentum: 3

   => Loading Basis Set <=

    Name: (AUG-CC-PVTZ AUX)
    Role: JKFIT
    Keyword: DF_BASIS_SCF
    atoms 1, 3, 5, 7, 9, 11, 13, 15, 17, 19, 21, 23  entry C          line   162 file /home/liuchw/anaconda3/envs/psi4env/share/psi4/basis/aug-cc-pvtz-jkfit.gbs 
    atoms 2, 4, 6, 8, 10, 12, 14, 16, 18, 20, 22, 24 entry H          line    70 file /home/liuchw/anaconda3/envs/psi4env/share/psi4/basis/aug-cc-pvtz-jkfit.gbs 

  ==> Pre-Iterations <==

   -------------------------------------------------------
    Irrep   Nso     Nmo     Nalpha   Nbeta   Ndocc  Nsocc
   -------------------------------------------------------
     A        828     828       0       0       0       0
   -------------------------------------------------------
    Total     828     828      21      21      21       0
   -------------------------------------------------------

  ==> Integral Setup <==

  ==> DiskDFJK: Density-Fitted J/K Matrices <==

    J tasked:                  Yes
    K tasked:                  Yes
    wK tasked:                  No
    OpenMP threads:              8
    Integrals threads:           8
    Memory [MiB]:            17881
    Algorithm:                Core
    Integral Cache:           LOAD
    Schwarz Cutoff:          1E-12
    Fitting Condition:       1E-10

   => Auxiliary Basis Set <=

  Basis Set: (AUG-CC-PVTZ AUX)
    Blend: AUG-CC-PVTZ-JKFIT
    Number of shells: 528
    Number of basis function: 1800
    Number of Cartesian functions: 2232
    Spherical Harmonics?: true
    Max angular momentum: 4

  Minimum eigenvalue in the overlap matrix is 3.1302810216E-07.
  Using Symmetric Orthogonalization.

  SCF Guess: Superposition of Atomic Densities via on-the-fly atomic UHF.

  ==> Iterations <==

                           Total Energy        Delta E     RMS |[F,P]|

   @DF-RHF iter SAD:  -230.19475681139420   -2.30195e+02   0.00000e+00 
   @DF-RHF iter   1:  -230.60054826222299   -4.05791e-01   6.61215e-04 DIIS
   @DF-RHF iter   2:  -230.74270419915416   -1.42156e-01   3.28044e-04 DIIS
   @DF-RHF iter   3:  -230.77970425689350   -3.70001e-02   5.23582e-05 DIIS
   @DF-RHF iter   4:  -230.78125277943349   -1.54852e-03   6.47176e-06 DIIS
   @DF-RHF iter   5:  -230.78128169640689   -2.89170e-05   1.18046e-06 DIIS
   @DF-RHF iter   6:  -230.78128271691426   -1.02051e-06   1.52309e-07 DIIS
   @DF-RHF iter   7:  -230.78128273293549   -1.60212e-08   7.13018e-08 DIIS
   @DF-RHF iter   8:  -230.78128273499740   -2.06191e-09   1.17647e-08 DIIS
   @DF-RHF iter   9:  -230.78128273511822   -1.20821e-10   2.95243e-09 DIIS
  Energy and wave function converged.


  ==> Post-Iterations <==

    Orbital Energies [Eh]
    ---------------------

    Doubly Occupied:                                                      

       1A    -11.236281     2A    -11.235701     3A    -11.235676  
       4A    -11.234451     5A    -11.234445     6A    -11.233825  
       7A     -1.150536     8A     -1.015004     9A     -1.014802  
      10A     -0.824224    11A     -0.824165    12A     -0.709747  
      13A     -0.644071    14A     -0.619286    15A     -0.588263  
      16A     -0.587994    17A     -0.502491    18A     -0.495051  
      19A     -0.494787    20A     -0.336931    21A     -0.336810  

    Virtual:                                                              

      22A      0.018734    23A      0.029353    24A      0.029668  
      25A      0.034473    26A      0.039095    27A      0.039871  
      28A      0.046642    29A      0.046780    30A      0.053528  
      31A      0.054358    32A      0.063943    33A      0.069742  
      34A      0.070285    35A      0.079823    36A      0.094131  
      37A      0.094263    38A      0.097069    39A      0.099111  
      40A      0.104991    41A      0.105892    42A      0.109690  
      43A      0.116950    44A      0.117706    45A      0.117928  
      46A      0.120051    47A      0.123587    48A      0.125107  
      49A      0.126118    50A      0.128375    51A      0.130607  
      52A      0.131331    53A      0.131780    54A      0.136020  
      55A      0.140554    56A      0.140843    57A      0.149677  
      58A      0.153863    59A      0.156145    60A      0.156406  
      61A      0.157165    62A      0.159072    63A      0.159754  
      64A      0.160043    65A      0.163366    66A      0.174074  
      67A      0.176168    68A      0.177283    69A      0.179819  
      70A      0.184004    71A      0.194518    72A      0.199811  
      73A      0.200477    74A      0.224106    75A      0.230786  
      76A      0.235346    77A      0.237126    78A      0.239731  
      79A      0.245054    80A      0.248867    81A      0.256909  
      82A      0.258309    83A      0.258853    84A      0.278618  
      85A      0.286952    86A      0.288964    87A      0.290088  
      88A      0.295395    89A      0.296392    90A      0.302152  
      91A      0.303458    92A      0.305099    93A      0.307763  
      94A      0.310968    95A      0.311924    96A      0.316330  
      97A      0.319378    98A      0.322157    99A      0.326209  
     100A      0.329241   101A      0.335006   102A      0.336982  
     103A      0.341696   104A      0.341988   105A      0.349120  
     106A      0.349667   107A      0.350915   108A      0.354021  
     109A      0.358566   110A      0.360050   111A      0.366045  
     112A      0.367858   113A      0.368646   114A      0.371526  
     115A      0.379353   116A      0.382838   117A      0.384822  
     118A      0.387540   119A      0.396066   120A      0.399840  
     121A      0.401965   122A      0.405266   123A      0.408018  
     124A      0.413740   125A      0.415524   126A      0.419131  
     127A      0.425331   128A      0.429728   129A      0.433479  
     130A      0.434565   131A      0.439020   132A      0.442551  
     133A      0.447038   134A      0.448785   135A      0.454694  
     136A      0.455281   137A      0.466577   138A      0.470707  
     139A      0.471590   140A      0.474227   141A      0.480381  
     142A      0.482160   143A      0.488541   144A      0.491722  
     145A      0.491949   146A      0.496294   147A      0.499249  
     148A      0.500059   149A      0.501575   150A      0.509210  
     151A      0.513942   152A      0.520730   153A      0.521424  
     154A      0.527439   155A      0.530803   156A      0.534248  
     157A      0.537240   158A      0.540071   159A      0.542317  
     160A      0.547942   161A      0.553010   162A      0.556542  
     163A      0.559086   164A      0.562168   165A      0.566592  
     166A      0.598243   167A      0.600598   168A      0.605573  
     169A      0.608575   170A      0.616420   171A      0.619141  
     172A      0.620593   173A      0.623029   174A      0.625163  
     175A      0.628522   176A      0.636617   177A      0.639479  
     178A      0.643513   179A      0.653771   180A      0.654209  
     181A      0.655384   182A      0.658463   183A      0.665739  
     184A      0.665988   185A      0.669725   186A      0.677036  
     187A      0.679173   188A      0.689661   189A      0.690597  
     190A      0.698714   191A      0.698996   192A      0.700943  
     193A      0.702697   194A      0.704658   195A      0.709085  
     196A      0.714813   197A      0.716282   198A      0.720093  
     199A      0.726024   200A      0.728492   201A      0.730028  
     202A      0.738054   203A      0.739414   204A      0.744590  
     205A      0.748295   206A      0.750843   207A      0.759291  
     208A      0.759937   209A      0.767791   210A      0.768348  
     211A      0.772196   212A      0.774854   213A      0.777672  
     214A      0.778959   215A      0.795562   216A      0.804088  
     217A      0.805898   218A      0.820992   219A      0.822290  
     220A      0.827920   221A      0.830222   222A      0.837528  
     223A      0.855249   224A      0.856027   225A      0.861022  
     226A      0.873211   227A      0.874172   228A      0.874556  
     229A      0.880088   230A      0.884614   231A      0.884839  
     232A      0.885402   233A      0.891380   234A      0.904726  
     235A      0.905836   236A      0.911426   237A      0.913963  
     238A      0.917487   239A      0.925305   240A      0.934719  
     241A      0.940208   242A      0.953998   243A      0.958459  
     244A      0.960527   245A      0.972746   246A      0.982285  
     247A      0.988660   248A      0.990826   249A      0.996137  
     250A      1.009741   251A      1.022323   252A      1.027302  
     253A      1.032226   254A      1.033836   255A      1.035986  
     256A      1.041018   257A      1.044792   258A      1.047840  
     259A      1.053291   260A      1.067599   261A      1.071836  
     262A      1.077344   263A      1.079016   264A      1.081765  
     265A      1.083049   266A      1.086124   267A      1.087230  
     268A      1.088027   269A      1.094896   270A      1.099401  
     271A      1.100458   272A      1.102982   273A      1.104574  
     274A      1.105143   275A      1.106700   276A      1.110543  
     277A      1.113349   278A      1.119849   279A      1.127323  
     280A      1.131613   281A      1.135063   282A      1.142207  
     283A      1.142955   284A      1.153161   285A      1.166485  
     286A      1.167524   287A      1.169275   288A      1.173792  
     289A      1.175275   290A      1.182233   291A      1.185991  
     292A      1.190885   293A      1.192709   294A      1.193210  
     295A      1.199910   296A      1.210854   297A      1.215743  
     298A      1.219738   299A      1.224529   300A      1.225597  
     301A      1.230073   302A      1.234877   303A      1.235790  
     304A      1.244187   305A      1.245402   306A      1.267135  
     307A      1.268727   308A      1.273244   309A      1.273901  
     310A      1.282467   311A      1.283525   312A      1.292203  
     313A      1.299292   314A      1.300176   315A      1.307210  
     316A      1.308807   317A      1.310128   318A      1.312101  
     319A      1.313161   320A      1.315668   321A      1.317208  
     322A      1.318281   323A      1.320970   324A      1.321538  
     325A      1.323636   326A      1.325027   327A      1.334435  
     328A      1.364493   329A      1.365651   330A      1.367429  
     331A      1.385797   332A      1.390401   333A      1.395066  
     334A      1.400466   335A      1.405092   336A      1.405694  
     337A      1.416763   338A      1.418562   339A      1.430710  
     340A      1.445450   341A      1.473165   342A      1.475187  
     343A      1.478292   344A      1.480567   345A      1.480959  
     346A      1.483577   347A      1.491592   348A      1.514458  
     349A      1.516463   350A      1.517085   351A      1.517555  
     352A      1.519880   353A      1.525421   354A      1.525703  
     355A      1.528887   356A      1.544317   357A      1.548670  
     358A      1.551836   359A      1.554745   360A      1.558822  
     361A      1.560531   362A      1.568317   363A      1.573097  
     364A      1.575676   365A      1.587038   366A      1.645328  
     367A      1.647402   368A      1.652931   369A      1.670848  
     370A      1.672163   371A      1.674341   372A      1.679056  
     373A      1.680141   374A      1.681199   375A      1.683145  
     376A      1.694075   377A      1.698138   378A      1.700181  
     379A      1.703265   380A      1.719316   381A      1.721450  
     382A      1.721707   383A      1.758488   384A      1.759263  
     385A      1.779495   386A      1.794827   387A      1.804839  
     388A      1.818076   389A      1.831148   390A      1.831935  
     391A      1.835236   392A      1.842632   393A      1.843578  
     394A      1.855227   395A      1.855720   396A      1.858614  
     397A      1.888716   398A      1.889406   399A      1.890175  
     400A      1.892949   401A      1.893689   402A      1.895487  
     403A      1.896424   404A      1.904491   405A      1.914539  
     406A      1.917112   407A      1.935018   408A      1.985049  
     409A      1.989438   410A      1.997130   411A      1.997475  
     412A      2.009501   413A      2.010929   414A      2.013766  
     415A      2.014543   416A      2.015366   417A      2.023543  
     418A      2.024733   419A      2.042537   420A      2.055042  
     421A      2.055431   422A      2.062071   423A      2.090385  
     424A      2.092144   425A      2.103997   426A      2.106186  
     427A      2.107055   428A      2.110121   429A      2.111146  
     430A      2.120880   431A      2.157808   432A      2.159237  
     433A      2.159394   434A      2.162881   435A      2.163543  
     436A      2.178435   437A      2.179290   438A      2.204092  
     439A      2.209412   440A      2.220283   441A      2.226150  
     442A      2.231908   443A      2.235534   444A      2.252749  
     445A      2.273303   446A      2.277325   447A      2.296720  
     448A      2.323723   449A      2.326639   450A      2.327300  
     451A      2.330099   452A      2.332182   453A      2.337580  
     454A      2.338604   455A      2.343212   456A      2.344516  
     457A      2.349247   458A      2.350073   459A      2.354304  
     460A      2.356670   461A      2.358469   462A      2.371661  
     463A      2.372011   464A      2.373386   465A      2.379667  
     466A      2.388321   467A      2.390797   468A      2.406475  
     469A      2.442415   470A      2.457795   471A      2.458230  
     472A      2.507693   473A      2.508515   474A      2.515890  
     475A      2.516800   476A      2.520887   477A      2.524698  
     478A      2.535695   479A      2.538139   480A      2.552909  
     481A      2.553191   482A      2.565564   483A      2.567839  
     484A      2.569421   485A      2.593274   486A      2.594729  
     487A      2.617843   488A      2.620168   489A      2.683237  
     490A      2.718378   491A      2.730409   492A      2.738452  
     493A      2.741230   494A      2.754497   495A      2.764910  
     496A      2.781479   497A      2.793815   498A      2.833476  
     499A      2.834341   500A      2.843540   501A      2.844890  
     502A      2.860743   503A      2.876811   504A      2.881591  
     505A      2.882309   506A      2.883288   507A      2.930495  
     508A      2.933230   509A      3.037719   510A      3.082293  
     511A      3.082752   512A      3.102584   513A      3.132452  
     514A      3.132983   515A      3.138535   516A      3.167750  
     517A      3.170244   518A      3.227019   519A      3.227577  
     520A      3.282385   521A      3.282756   522A      3.312935  
     523A      3.319395   524A      3.319905   525A      3.336978  
     526A      3.367570   527A      3.369332   528A      3.384916  
     529A      3.385170   530A      3.395648   531A      3.406158  
     532A      3.411955   533A      3.430882   534A      3.431163  
     535A      3.492944   536A      3.494857   537A      3.530341  
     538A      3.531840   539A      3.536430   540A      3.536792  
     541A      3.556512   542A      3.556680   543A      3.574078  
     544A      3.574983   545A      3.580499   546A      3.594954  
     547A      3.622897   548A      3.637519   549A      3.653582  
     550A      3.657620   551A      3.657978   552A      3.752784  
     553A      3.772720   554A      3.791222   555A      3.800254  
     556A      3.801165   557A      3.805445   558A      3.819846  
     559A      3.834623   560A      3.835182   561A      3.839705  
     562A      3.840061   563A      3.846744   564A      3.847282  
     565A      3.861498   566A      3.866301   567A      3.871976  
     568A      3.873543   569A      3.939473   570A      3.962444  
     571A      3.962728   572A      3.970534   573A      3.988624  
     574A      3.990096   575A      3.991503   576A      3.999356  
     577A      4.005486   578A      4.005710   579A      4.033252  
     580A      4.034000   581A      4.037270   582A      4.039774  
     583A      4.049758   584A      4.054009   585A      4.056298  
     586A      4.058179   587A      4.059653   588A      4.062980  
     589A      4.086598   590A      4.086773   591A      4.108287  
     592A      4.108635   593A      4.129056   594A      4.132147  
     595A      4.132404   596A      4.136090   597A      4.137902  
     598A      4.172895   599A      4.177981   600A      4.178485  
     601A      4.188527   602A      4.207104   603A      4.211890  
     604A      4.215537   605A      4.215769   606A      4.247696  
     607A      4.248510   608A      4.273820   609A      4.288598  
     610A      4.289035   611A      4.291115   612A      4.292049  
     613A      4.293526   614A      4.300748   615A      4.302443  
     616A      4.338196   617A      4.338320   618A      4.349637  
     619A      4.350370   620A      4.356449   621A      4.360640  
     622A      4.368073   623A      4.371981   624A      4.377663  
     625A      4.430198   626A      4.435835   627A      4.436193  
     628A      4.444134   629A      4.444735   630A      4.468518  
     631A      4.471622   632A      4.472077   633A      4.480800  
     634A      4.493159   635A      4.493759   636A      4.510759  
     637A      4.511506   638A      4.526311   639A      4.560925  
     640A      4.561966   641A      4.564680   642A      4.565952  
     643A      4.567210   644A      4.568197   645A      4.581690  
     646A      4.583866   647A      4.605788   648A      4.634449  
     649A      4.635291   650A      4.641639   651A      4.703784  
     652A      4.708961   653A      4.709242   654A      4.722856  
     655A      4.723602   656A      4.728617   657A      4.729115  
     658A      4.743497   659A      4.786105   660A      4.795112  
     661A      4.795966   662A      4.797153   663A      4.797298  
     664A      4.881781   665A      4.882536   666A      4.893792  
     667A      4.917093   668A      4.932284   669A      4.933224  
     670A      4.944468   671A      4.970215   672A      4.970372  
     673A      4.971773   674A      4.973030   675A      5.034040  
     676A      5.034105   677A      5.060699   678A      5.061498  
     679A      5.081261   680A      5.082302   681A      5.082728  
     682A      5.086272   683A      5.105195   684A      5.109949  
     685A      5.111175   686A      5.118317   687A      5.118933  
     688A      5.127426   689A      5.135519   690A      5.156124  
     691A      5.156521   692A      5.162092   693A      5.179553  
     694A      5.180393   695A      5.180874   696A      5.181236  
     697A      5.182608   698A      5.183588   699A      5.212634  
     700A      5.213451   701A      5.219402   702A      5.241493  
     703A      5.242588   704A      5.274592   705A      5.275633  
     706A      5.341601   707A      5.343257   708A      5.347809  
     709A      5.358172   710A      5.410040   711A      5.417343  
     712A      5.417927   713A      5.432397   714A      5.432731  
     715A      5.441225   716A      5.441503   717A      5.448547  
     718A      5.448786   719A      5.487392   720A      5.488709  
     721A      5.506101   722A      5.509105   723A      5.531310  
     724A      5.539130   725A      5.630561   726A      5.631742  
     727A      5.638802   728A      5.641569   729A      5.666366  
     730A      5.693669   731A      5.727673   732A      5.728150  
     733A      5.737197   734A      5.737916   735A      5.743325  
     736A      5.743655   737A      5.769798   738A      5.792318  
     739A      5.792943   740A      5.793471   741A      5.794432  
     742A      5.798388   743A      5.799467   744A      5.857337  
     745A      5.858170   746A      5.882206   747A      5.946395  
     748A      5.963161   749A      5.964245   750A      5.984392  
     751A      6.004944   752A      6.005986   753A      6.137139  
     754A      6.137520   755A      6.168723   756A      6.169557  
     757A      6.178045   758A      6.195703   759A      6.196198  
     760A      6.197202   761A      6.215054   762A      6.273279  
     763A      6.274406   764A      6.300595   765A      6.370417  
     766A      6.371676   767A      6.401026   768A      6.433622  
     769A      6.435607   770A      6.468271   771A      6.524817  
     772A      6.651738   773A      6.652810   774A      6.713324  
     775A      6.773916   776A      6.775745   777A      6.863560  
     778A      6.864365   779A      6.886168   780A      6.887683  
     781A      6.981061   782A      7.032612   783A      7.062260  
     784A      7.062609   785A      7.114202   786A      7.114861  
     787A      7.155660   788A      7.157639   789A      7.223525  
     790A      7.399902   791A      7.446537   792A      7.464007  
     793A      7.464537   794A      7.579042   795A      7.656003  
     796A      7.657302   797A      7.786814   798A      7.897412  
     799A      8.002796   800A      8.201984   801A      8.202373  
     802A      8.216765   803A      8.333336   804A      8.334187  
     805A      8.960550   806A      8.961456   807A      9.308311  
     808A      9.313042   809A      9.371883   810A     10.051412  
     811A     10.051782   812A     10.992597   813A     11.044529  
     814A     11.205267   815A     11.319401   816A     11.325841  
     817A     16.065680   818A     16.066670   819A     17.324299  
     820A     19.356808   821A     19.372580   822A     19.580747  
     823A     49.691508   824A     49.693443   825A     50.467368  
     826A     55.356901   827A     55.385206   828A     56.646946  

    Final Occupation by Irrep:
              A 
    DOCC [    21 ]

  @DF-RHF Final Energy:  -230.78128273511822

   => Energetics <=

    Nuclear Repulsion Energy =            203.7116637545062474
    One-Electron Energy =                -713.8768155932772288
    Two-Electron Energy =                 279.3838691036527280
    Total Energy =                       -230.7812827351182250

Computation Completed


Properties will be evaluated at   0.000000,   0.000000,   0.000000 [a0]

Properties computed using the SCF density matrix

  Nuclear Dipole Moment: [e a0]
     X:    92.4330      Y:    -0.8672      Z:   264.4076

  Electronic Dipole Moment: [e a0]
     X:   -92.4329      Y:     0.8672      Z:  -264.4122

  Dipole Moment: [e a0]
     X:     0.0001      Y:    -0.0000      Z:    -0.0047     Total:     0.0047

  Dipole Moment: [D]
     X:     0.0003      Y:    -0.0001      Z:    -0.0119     Total:     0.0119


*** tstop() called on node49.bme.utexas.edu at Fri Apr 24 12:56:16 2020
Module time:
	user time   =     233.80 seconds =       3.90 minutes
	system time =       3.56 seconds =       0.06 minutes
	total time  =         33 seconds =       0.55 minutes
Total time:
	user time   =     952.17 seconds =      15.87 minutes
	system time =      14.07 seconds =       0.23 minutes
	total time  =        225 seconds =       3.75 minutes
  Constructing Basis Sets for SAPT...

   => Loading Basis Set <=

    Name: (AUG-CC-PVTZ AUX)
    Role: RIFIT
    Keyword: DF_BASIS_SAPT
    atoms 1, 3, 5, 7, 9, 11, 13, 15, 17, 19, 21, 23  entry C          line   148 file /home/liuchw/anaconda3/envs/psi4env/share/psi4/basis/aug-cc-pvtz-ri.gbs 
    atoms 2, 4, 6, 8, 10, 12, 14, 16, 18, 20, 22, 24 entry H          line    30 file /home/liuchw/anaconda3/envs/psi4env/share/psi4/basis/aug-cc-pvtz-ri.gbs 


  //>>>>>>>>>>>>>>>>>>>>>>>>>>>>>>>>>>>//
  //               SAPT2+              //
  //<<<<<<<<<<<<<<<<<<<<<<<<<<<<<<<<<<<//


*** tstart() called on node49.bme.utexas.edu
*** at Fri Apr 24 12:56:16 2020

        SAPT2+  
    Ed Hohenstein
     6 June 2009

      Orbital Information
  --------------------------
    NSO        =       828
    NMO        =       828
    NRI        =      1824
    NOCC A     =        21
    NOCC B     =        21
    FOCC A     =         6
    FOCC B     =         6
    NVIR A     =       807
    NVIR B     =       807

    Estimated memory usage: 16395.8 MB

    Natural Orbital Cutoff:   1.000E-06
    Disp(T3) Truncation:            Yes
    CCD (vv|vv) Truncation:         Yes
    MBPT T2 Truncation:             Yes

    Monomer A: 466 virtual orbitals dropped
    Monomer B: 466 virtual orbitals dropped

    Elst10,r            =     0.000163872836 [Eh]
    Exch10 (S^2)        =     0.000000821681 [Eh]
    Exch10              =     0.000000821681 [Eh]
    Ind20,r (A<-B)      =    -0.000006909188 [Eh]
    Ind20,r (B<-A)      =    -0.000006915100 [Eh]
    Ind20,r             =    -0.000013824288 [Eh]
    Exch-Ind20,r (A<-B) =     0.000000143387 [Eh]
    Exch-Ind20,r (B<-A) =     0.000000143611 [Eh]
    Exch-Ind20,r        =     0.000000286998 [Eh]
    Disp20              =    -0.000373858880 [Eh]
    Disp20 (NO)         =    -0.000365937863 [Eh]
    Exch-Disp20         =     0.000000505222 [Eh]
    Elst12,r            =    -0.000035476718 [Eh]
    Exch11              =     0.000000014654 [Eh]
    Exch12              =     0.000000012165 [Eh]
    Ind22               =     0.000000929410 [Eh]
    Disp21              =     0.000146367001 [Eh]
    Disp22 (SDQ)        =     0.000010528057 [Eh]

    (i =   1 of  15)        357 seconds
    (i =   2 of  15)        712 seconds
    (i =   3 of  15)       1068 seconds
    (i =   4 of  15)       1423 seconds
    (i =   5 of  15)       1779 seconds
    (i =   6 of  15)       2134 seconds
    (i =   7 of  15)       2490 seconds
    (i =   8 of  15)       2845 seconds
    (i =   9 of  15)       3201 seconds
    (i =  10 of  15)       3557 seconds
    (i =  11 of  15)       3913 seconds
    (i =  12 of  15)       4268 seconds
    (i =  13 of  15)       4624 seconds
    (i =  14 of  15)       4980 seconds
    (i =  15 of  15)       5335 seconds

    Disp220 (T)         =    -0.000045590876 [Eh]

    (i =   1 of  15)        386 seconds
    (i =   2 of  15)        771 seconds
    (i =   3 of  15)       1156 seconds
    (i =   4 of  15)       1539 seconds
    (i =   5 of  15)       1923 seconds
    (i =   6 of  15)       2307 seconds
    (i =   7 of  15)       2691 seconds
    (i =   8 of  15)       3075 seconds
    (i =   9 of  15)       3459 seconds
    (i =  10 of  15)       3843 seconds
    (i =  11 of  15)       4228 seconds
    (i =  12 of  15)       4612 seconds
    (i =  13 of  15)       4986 seconds
    (i =  14 of  15)       5345 seconds
    (i =  15 of  15)       5703 seconds

    Disp202 (T)         =    -0.000045592095 [Eh]

    Disp22 (T)          =    -0.000091182971 [Eh]

    Est. Disp220 (T)    =    -0.000046577726 [Eh]
    Est. Disp202 (T)    =    -0.000046578972 [Eh]

    Est. Disp22 (T)     =    -0.000093156699 [Eh]

    SAPT Results 
  --------------------------------------------------------------------------------------------------------
    Electrostatics                  0.12839612 [mEh]       0.08056978 [kcal/mol]       0.33710396 [kJ/mol]
      Elst10,r                      0.16387284 [mEh]       0.10283176 [kcal/mol]       0.43024807 [kJ/mol]
      Elst12,r                     -0.03547672 [mEh]      -0.02226198 [kcal/mol]      -0.09314411 [kJ/mol]

    Exchange                        0.00084850 [mEh]       0.00053244 [kcal/mol]       0.00222774 [kJ/mol]
      Exch10                        0.00082168 [mEh]       0.00051561 [kcal/mol]       0.00215732 [kJ/mol]
      Exch10(S^2)                   0.00082168 [mEh]       0.00051561 [kcal/mol]       0.00215732 [kJ/mol]
      Exch11(S^2)                   0.00001465 [mEh]       0.00000920 [kcal/mol]       0.00003848 [kJ/mol]
      Exch12(S^2)                   0.00001217 [mEh]       0.00000763 [kcal/mol]       0.00003194 [kJ/mol]

    Induction                      -0.01182940 [mEh]      -0.00742306 [kcal/mol]      -0.03105809 [kJ/mol]
      Ind20,r                      -0.01382429 [mEh]      -0.00867487 [kcal/mol]      -0.03629566 [kJ/mol]
      Ind22                         0.00092941 [mEh]       0.00058321 [kcal/mol]       0.00244017 [kJ/mol]
      Exch-Ind20,r                  0.00028700 [mEh]       0.00018009 [kcal/mol]       0.00075351 [kJ/mol]
      Exch-Ind22                   -0.00001929 [mEh]      -0.00001211 [kcal/mol]      -0.00005066 [kJ/mol]
      delta HF,r (2)                0.00079777 [mEh]       0.00050061 [kcal/mol]       0.00209456 [kJ/mol]

    Dispersion                     -0.30961530 [mEh]      -0.19428653 [kcal/mol]      -0.81289486 [kJ/mol]
      Disp20                       -0.37385888 [mEh]      -0.23459999 [kcal/mol]      -0.98156635 [kJ/mol]
      Disp21                        0.14636700 [mEh]       0.09184668 [kcal/mol]       0.38428651 [kJ/mol]
      Disp22 (SDQ)                  0.01052806 [mEh]       0.00660646 [kcal/mol]       0.02764141 [kJ/mol]
      Disp22 (T)                   -0.09118297 [mEh]      -0.05721818 [kcal/mol]      -0.23940086 [kJ/mol]
      Est. Disp22 (T)              -0.09315670 [mEh]      -0.05845671 [kcal/mol]      -0.24458288 [kJ/mol]
      Exch-Disp20                   0.00050522 [mEh]       0.00031703 [kcal/mol]       0.00132646 [kJ/mol]

  Total HF                          0.15195500 [mEh]       0.09535320 [kcal/mol]       0.39895780 [kJ/mol]
  Total SAPT0                      -0.22139866 [mEh]      -0.13892975 [kcal/mol]      -0.58128209 [kJ/mol]
  Total SAPT2                      -0.25593844 [mEh]      -0.16060380 [kcal/mol]      -0.67196628 [kJ/mol]
  Total SAPT2+                     -0.19220008 [mEh]      -0.12060737 [kcal/mol]      -0.50462125 [kJ/mol]

  Special recipe for scaled SAPT0 (see Manual):
    Electrostatics sSAPT0           0.16387284 [mEh]       0.10283176 [kcal/mol]       0.43024807 [kJ/mol]
    Exchange sSAPT0                 0.00082168 [mEh]       0.00051561 [kcal/mol]       0.00215732 [kJ/mol]
    Induction sSAPT0               -0.01273952 [mEh]      -0.00799417 [kcal/mol]      -0.03344759 [kJ/mol]
    Dispersion sSAPT0              -0.37335366 [mEh]      -0.23428296 [kcal/mol]      -0.98023989 [kJ/mol]
  Total sSAPT0                     -0.22139866 [mEh]      -0.13892975 [kcal/mol]      -0.58128209 [kJ/mol]
  --------------------------------------------------------------------------------------------------------

*** tstop() called on node49.bme.utexas.edu at Fri Apr 24 17:19:32 2020
Module time:
	user time   =  101282.56 seconds =    1688.04 minutes
	system time =    1443.89 seconds =      24.06 minutes
	total time  =      15796 seconds =     263.27 minutes
Total time:
	user time   =  102235.84 seconds =    1703.93 minutes
	system time =    1457.99 seconds =      24.30 minutes
	total time  =      16021 seconds =     267.02 minutes

    Psi4 stopped on: Friday, 24 April 2020 05:19PM
    Psi4 wall time for execution: 4:27:02.24

*** Psi4 exiting successfully. Buy a developer a beer!
