    -----------------------------------------------------------------------
          PSI4: An Open-Source Ab Initio Electronic Structure Package
                              PSI 4.0.0-beta4 Driver

    J. M. Turney, A. C. Simmonett, R. M. Parrish, E. G. Hohenstein,
    F. A. Evangelista, J. T. Fermann, B. J. Mintz, L. A. Burns, J. J. Wilke,
    M. L. Abrams, N. J. Russ, M. L. Leininger, C. L. Janssen, E. T. Seidl,
    W. D. Allen, H. F. Schaefer, R. A. King, E. F. Valeev, C. D. Sherrill,
    and T. D. Crawford, WIREs Comput. Mol. Sci., (2011) (doi: 10.1002/wcms.93)

                         Additional Contributions by
    A. E. DePrince, M. Saitow, U. Bozkaya, A. Yu. Sokolov
    -----------------------------------------------------------------------

    Process ID:  84112
    PSI4DATADIR: /home/xzhu216/psi4/psi4-install/share/psi

    Using LocalCommunicator (Number of processes = 1)

    Memory level set to 256.000 MB

  ==> Input File <==

--------------------------------------------------------------------------
#psi4
#

memory 45 gb

molecule UracilUracil {
0 1
N    1.376901114   0.839747467   0.734624939
H    1.051812405   1.386223848   1.523355628
C    1.308982712   1.457529813  -0.520654996
O    0.920561362   2.611077765  -0.625976731
N    2.011422932  -1.213208303  -0.098071819
H    1.727285511   0.990842685  -2.611995560
C    2.025736871  -0.697171229  -1.364397399
H    2.297516982  -1.391060038  -2.145645314
C    1.714512349   0.591937798  -1.612487223
H    2.129454216  -2.201520905   0.056829125
C    1.645945031  -0.485205977   1.018718301
O    1.561116018  -0.971816376   2.129809048

--
0 1
N   -1.239595274  -0.816042403   0.734624939
H   -0.914506565  -1.362518784   1.523355628
C   -1.171676872  -1.433824749  -0.520654996
O   -0.783255522  -2.587372701  -0.625976731
N   -1.874117092   1.236913367  -0.098071819
H   -1.589979671  -0.967137621  -2.611995560
C   -1.888431031   0.720876293  -1.364397399
H   -2.160211142   1.414765102  -2.145645314
C   -1.577206509  -0.568232734  -1.612487223
H   -1.992148376   2.225225969   0.056829125
C   -1.508639191   0.508911041   1.018718301
O   -1.423810178   0.995521440   2.129809048


units angstrom

no_reorient  #important for SAPT in psi4, default
symmetry c1  #important for SAPT in psi4, default
}

set {
  basis aug-cc-pVTZ
  scf_type DF
  freeze_core True
}

energy('sapt2+')
--------------------------------------------------------------------------

  Memory set to  45.000 GiB by Python script.

  //>>>>>>>>>>>>>>>>>>>>>>>>>>>>>>>>>>>//
  //              Dimer HF             //
  //<<<<<<<<<<<<<<<<<<<<<<<<<<<<<<<<<<<//


  No DF_BASIS_SCF auxiliary basis selected, defaulting to aug-cc-pvtz-jkfit


*** tstart() called on node35.bme.utexas.edu
*** at Thu Nov  7 02:10:06 2013


         ---------------------------------------------------------
                                   SCF
            by Justin Turney, Rob Parrish, and Andy Simmonett
                              RHF Reference
                        8 Threads,  45000 MiB Core
         ---------------------------------------------------------

  ==> Geometry <==

    Molecular point group: c1
    Full point group: C2

    Geometry (in Angstrom), charge = 0, multiplicity = 1:

       Center              X                  Y                   Z       
    ------------   -----------------  -----------------  -----------------
           N          1.308248194000     0.827894935000     0.734453602703
           H          0.983159485000     1.374371316000     1.523184291703
           C          1.240329792000     1.445677281000    -0.520826332297
           O          0.851908442000     2.599225233000    -0.626148067297
           N          1.942770012000    -1.225060835000    -0.098243155297
           H          1.658632591000     0.978990153000    -2.612166896297
           C          1.957083951000    -0.709023761000    -1.364568735297
           H          2.228864062000    -1.402912570000    -2.145816650297
           C          1.645859429000     0.580085266000    -1.612658559297
           H          2.060801296000    -2.213373437000     0.056657788703
           C          1.577292111000    -0.497058509000     1.018546964703
           O          1.492463098000    -0.983668908000     2.129637711703
           N         -1.308248194000    -0.827894935000     0.734453602703
           H         -0.983159485000    -1.374371316000     1.523184291703
           C         -1.240329792000    -1.445677281000    -0.520826332297
           O         -0.851908442000    -2.599225233000    -0.626148067297
           N         -1.942770012000     1.225060835000    -0.098243155297
           H         -1.658632591000    -0.978990153000    -2.612166896297
           C         -1.957083951000     0.709023761000    -1.364568735297
           H         -2.228864062000     1.402912570000    -2.145816650297
           C         -1.645859429000    -0.580085266000    -1.612658559297
           H         -2.060801296000     2.213373437000     0.056657788703
           C         -1.577292111000     0.497058509000     1.018546964703
           O         -1.492463098000     0.983668908000     2.129637711703

  Running in c1 symmetry.

  Nuclear repulsion = 1175.060756918685229

  Charge       = 0
  Multiplicity = 1
  Electrons    = 116
  Nalpha       = 58
  Nbeta        = 58

  ==> Algorithm <==

  SCF Algorithm Type is DF.
  DIIS enabled.
  MOM disabled.
  Fractional occupation disabled.
  Guess Type is CORE.
  Energy threshold   = 1.00e-08
  Density threshold  = 1.00e-08
  Integral threshold = 0.00e+00

  ==> Primary Basis <==

  Basis Set: AUG-CC-PVTZ
    Number of shells: 296
    Number of basis function: 920
    Number of Cartesian functions: 1080
    Spherical Harmonics?: true
    Max angular momentum: 3

  ==> Pre-Iterations <==

   -------------------------------------------------------
    Irrep   Nso     Nmo     Nalpha   Nbeta   Ndocc  Nsocc
   -------------------------------------------------------
     A        920     920       0       0       0       0
   -------------------------------------------------------
    Total     920     920      58      58      58       0
   -------------------------------------------------------

 OEINTS: Wrapper to libmints.
   by Justin Turney

   Calculation information:
      Number of atoms:                  24
      Number of AO shells:             296
      Number of SO shells:             296
      Number of primitives:            568
      Number of atomic orbitals:      1080
      Number of basis functions:       920

      Number of irreps:                  1
      Number of functions per irrep: [ 920 ]

      Overlap, kinetic, potential, dipole, and quadrupole integrals
        stored in file 35.

  ==> Integral Setup <==

  ==> DFJK: Density-Fitted J/K Matrices <==

    J tasked:                  Yes
    K tasked:                  Yes
    wK tasked:                  No
    OpenMP threads:              8
    Integrals threads:           8
    Memory (MB):             32186
    Algorithm:                Core
    Integral Cache:           SAVE
    Schwarz Cutoff:          0E+00
    Fitting Condition:       1E-12

   => Auxiliary Basis Set <=

  Basis Set: aug-cc-pvtz-jkfit
    Number of shells: 592
    Number of basis function: 2032
    Number of Cartesian functions: 2536
    Spherical Harmonics?: true
    Max angular momentum: 4

  Minimum eigenvalue in the overlap matrix is 1.8801420809E-06.
  Using Symmetric Orthogonalization.
  SCF Guess: Core (One-Electron) Hamiltonian.

  Guess energy:  -666.12124680480088

  ==> Iterations <==

                        Total Energy        Delta E     RMS |[F,P]|

   @RHF iter   1:  -610.07734345379458   -6.10077e+02   2.37083e-02 
   @RHF iter   2:  -561.55207370050061    4.85253e+01   1.40620e-02 DIIS
   @RHF iter   3:  -585.21761586229718   -2.36655e+01   1.75538e-02 DIIS
   @RHF iter   4:  -788.00085652607913   -2.02783e+02   8.92289e-03 DIIS
   @RHF iter   5:  -792.14356821085335   -4.14271e+00   6.33558e-03 DIIS
   @RHF iter   6:  -817.53320859796486   -2.53896e+01   4.35700e-03 DIIS
   @RHF iter   7:  -824.59679331251641   -7.06358e+00   1.12979e-03 DIIS
   @RHF iter   8:  -825.13632848081011   -5.39535e-01   4.20267e-04 DIIS
   @RHF iter   9:  -825.21819141661786   -8.18629e-02   1.89350e-04 DIIS
   @RHF iter  10:  -825.23920475608065   -2.10133e-02   5.26092e-05 DIIS
   @RHF iter  11:  -825.24232863898237   -3.12388e-03   3.23651e-05 DIIS
   @RHF iter  12:  -825.24348121790763   -1.15258e-03   1.52355e-05 DIIS
   @RHF iter  13:  -825.24384763471721   -3.66417e-04   4.69902e-06 DIIS
   @RHF iter  14:  -825.24386624272370   -1.86080e-05   1.79671e-06 DIIS
   @RHF iter  15:  -825.24386807221595   -1.82949e-06   4.98406e-07 DIIS
   @RHF iter  16:  -825.24386823731516   -1.65099e-07   1.56408e-07 DIIS
   @RHF iter  17:  -825.24386826993532   -3.26202e-08   5.84942e-08 DIIS
   @RHF iter  18:  -825.24386827498051   -5.04519e-09   1.93927e-08 DIIS
   @RHF iter  19:  -825.24386827546255   -4.82032e-10   8.62808e-09 DIIS

  ==> Post-Iterations <==

	Orbital Energies (a.u.)
	-----------------------

	Doubly Occupied:                                                      

	   1A    -20.548183     2A    -20.548183     3A    -20.547883  
	   4A    -20.547882     5A    -15.642306     6A    -15.642305  
	   7A    -15.628942     8A    -15.628938     9A    -11.419855  
	  10A    -11.419854    11A    -11.386724    12A    -11.386723  
	  13A    -11.341295    14A    -11.341294    15A    -11.256227  
	  16A    -11.256226    17A     -1.442043    18A     -1.435737  
	  19A     -1.404573    20A     -1.403260    21A     -1.314729  
	  22A     -1.314684    23A     -1.249968    24A     -1.247270  
	  25A     -1.092042    26A     -1.088252    27A     -0.935560  
	  28A     -0.934642    29A     -0.904033    30A     -0.903027  
	  31A     -0.807698    32A     -0.806762    33A     -0.767871  
	  34A     -0.766538    35A     -0.715271    36A     -0.715200  
	  37A     -0.697169    38A     -0.682311    39A     -0.680643  
	  40A     -0.655155    41A     -0.655024    42A     -0.647618  
	  43A     -0.617837    44A     -0.617796    45A     -0.604932  
	  46A     -0.604170    47A     -0.590970    48A     -0.567675  
	  49A     -0.533821    50A     -0.515310    51A     -0.487027  
	  52A     -0.484773    53A     -0.456195    54A     -0.454641  
	  55A     -0.443710    56A     -0.440704    57A     -0.385509  
	  58A     -0.356976  

	Virtual:                                                              

	  59A      0.017307    60A      0.024079    61A      0.035454  
	  62A      0.036422    63A      0.046640    64A      0.048839  
	  65A      0.054517    66A      0.060631    67A      0.070246  
	  68A      0.070978    69A      0.074419    70A      0.082083  
	  71A      0.084914    72A      0.088321    73A      0.094985  
	  74A      0.097201    75A      0.100953    76A      0.103023  
	  77A      0.107036    78A      0.109171    79A      0.114512  
	  80A      0.118081    81A      0.125201    82A      0.129680  
	  83A      0.130428    84A      0.133037    85A      0.134796  
	  86A      0.137495    87A      0.140062    88A      0.141819  
	  89A      0.147569    90A      0.148605    91A      0.150356  
	  92A      0.150984    93A      0.160271    94A      0.163224  
	  95A      0.163313    96A      0.171240    97A      0.188169  
	  98A      0.190366    99A      0.191852   100A      0.198839  
	 101A      0.200907   102A      0.209908   103A      0.211128  
	 104A      0.220155   105A      0.220440   106A      0.221649  
	 107A      0.234780   108A      0.236528   109A      0.241395  
	 110A      0.242387   111A      0.249120   112A      0.250363  
	 113A      0.252823   114A      0.257100   115A      0.264641  
	 116A      0.265583   117A      0.273740   118A      0.273955  
	 119A      0.276549   120A      0.283080   121A      0.284827  
	 122A      0.291803   123A      0.292395   124A      0.294706  
	 125A      0.296504   126A      0.298150   127A      0.304172  
	 128A      0.311697   129A      0.313173   130A      0.323846  
	 131A      0.325882   132A      0.328677   133A      0.331401  
	 134A      0.333370   135A      0.337252   136A      0.342333  
	 137A      0.344813   138A      0.346854   139A      0.349271  
	 140A      0.352532   141A      0.362400   142A      0.363412  
	 143A      0.365794   144A      0.367726   145A      0.376628  
	 146A      0.382511   147A      0.383356   148A      0.388262  
	 149A      0.391723   150A      0.396419   151A      0.400500  
	 152A      0.406880   153A      0.409509   154A      0.410798  
	 155A      0.419792   156A      0.422569   157A      0.425530  
	 158A      0.427414   159A      0.439304   160A      0.440357  
	 161A      0.446661   162A      0.447138   163A      0.455235  
	 164A      0.458788   165A      0.462926   166A      0.470469  
	 167A      0.470536   168A      0.481433   169A      0.483762  
	 170A      0.484778   171A      0.488713   172A      0.491259  
	 173A      0.493434   174A      0.495477   175A      0.495544  
	 176A      0.499954   177A      0.507735   178A      0.511461  
	 179A      0.511897   180A      0.518214   181A      0.520262  
	 182A      0.522759   183A      0.526506   184A      0.527973  
	 185A      0.538815   186A      0.542660   187A      0.542710  
	 188A      0.545415   189A      0.554749   190A      0.560613  
	 191A      0.561385   192A      0.568305   193A      0.568512  
	 194A      0.571853   195A      0.583223   196A      0.588034  
	 197A      0.588053   198A      0.590788   199A      0.597326  
	 200A      0.605527   201A      0.617729   202A      0.621370  
	 203A      0.622691   204A      0.626342   205A      0.630226  
	 206A      0.635123   207A      0.637332   208A      0.649496  
	 209A      0.650263   210A      0.656652   211A      0.660751  
	 212A      0.674678   213A      0.676811   214A      0.681392  
	 215A      0.685915   216A      0.696933   217A      0.702687  
	 218A      0.707753   219A      0.713801   220A      0.716555  
	 221A      0.719534   222A      0.724109   223A      0.735299  
	 224A      0.737468   225A      0.742913   226A      0.747109  
	 227A      0.753034   228A      0.753237   229A      0.761913  
	 230A      0.766553   231A      0.769124   232A      0.777275  
	 233A      0.783506   234A      0.786395   235A      0.799317  
	 236A      0.802081   237A      0.802892   238A      0.809934  
	 239A      0.812878   240A      0.814416   241A      0.818020  
	 242A      0.823349   243A      0.823445   244A      0.830443  
	 245A      0.840984   246A      0.842270   247A      0.845357  
	 248A      0.857919   249A      0.862876   250A      0.872435  
	 251A      0.874755   252A      0.882616   253A      0.883540  
	 254A      0.885366   255A      0.890605   256A      0.904035  
	 257A      0.909740   258A      0.909887   259A      0.914498  
	 260A      0.922002   261A      0.924283   262A      0.935495  
	 263A      0.936897   264A      0.947201   265A      0.948232  
	 266A      0.953166   267A      0.961212   268A      0.964088  
	 269A      0.966979   270A      0.969457   271A      0.972452  
	 272A      0.986209   273A      0.987690   274A      0.988791  
	 275A      0.992855   276A      0.994432   277A      1.007422  
	 278A      1.009550   279A      1.011669   280A      1.014241  
	 281A      1.024778   282A      1.025864   283A      1.036574  
	 284A      1.044739   285A      1.050798   286A      1.053809  
	 287A      1.059538   288A      1.065757   289A      1.073173  
	 290A      1.082879   291A      1.083546   292A      1.092819  
	 293A      1.096428   294A      1.105454   295A      1.109629  
	 296A      1.112900   297A      1.115305   298A      1.125626  
	 299A      1.129658   300A      1.131117   301A      1.139302  
	 302A      1.145092   303A      1.147228   304A      1.147620  
	 305A      1.155750   306A      1.161903   307A      1.165349  
	 308A      1.169094   309A      1.176447   310A      1.177898  
	 311A      1.183223   312A      1.188646   313A      1.194367  
	 314A      1.197567   315A      1.197930   316A      1.204646  
	 317A      1.211278   318A      1.217206   319A      1.221434  
	 320A      1.223939   321A      1.232132   322A      1.236235  
	 323A      1.238916   324A      1.250212   325A      1.250308  
	 326A      1.259667   327A      1.265140   328A      1.268978  
	 329A      1.272462   330A      1.278008   331A      1.292912  
	 332A      1.293916   333A      1.303166   334A      1.309669  
	 335A      1.311966   336A      1.314496   337A      1.323757  
	 338A      1.332554   339A      1.337206   340A      1.340060  
	 341A      1.344753   342A      1.349723   343A      1.359685  
	 344A      1.364697   345A      1.365452   346A      1.372031  
	 347A      1.376971   348A      1.390613   349A      1.395520  
	 350A      1.400323   351A      1.401769   352A      1.410460  
	 353A      1.416964   354A      1.418995   355A      1.421392  
	 356A      1.425365   357A      1.428769   358A      1.434828  
	 359A      1.444163   360A      1.450569   361A      1.454433  
	 362A      1.463861   363A      1.468073   364A      1.478186  
	 365A      1.479742   366A      1.490560   367A      1.492526  
	 368A      1.493923   369A      1.499703   370A      1.504074  
	 371A      1.506982   372A      1.516488   373A      1.521624  
	 374A      1.533641   375A      1.538030   376A      1.546890  
	 377A      1.550501   378A      1.561358   379A      1.564842  
	 380A      1.572798   381A      1.577116   382A      1.588610  
	 383A      1.595981   384A      1.596459   385A      1.597637  
	 386A      1.609857   387A      1.617218   388A      1.626701  
	 389A      1.627711   390A      1.636582   391A      1.638682  
	 392A      1.647773   393A      1.651047   394A      1.668025  
	 395A      1.668229   396A      1.677452   397A      1.686317  
	 398A      1.697021   399A      1.701743   400A      1.702876  
	 401A      1.709752   402A      1.716394   403A      1.728616  
	 404A      1.728805   405A      1.744032   406A      1.747132  
	 407A      1.754024   408A      1.771178   409A      1.773930  
	 410A      1.774278   411A      1.779187   412A      1.795395  
	 413A      1.796699   414A      1.802459   415A      1.807088  
	 416A      1.816973   417A      1.819641   418A      1.833044  
	 419A      1.837514   420A      1.842275   421A      1.850204  
	 422A      1.852711   423A      1.869549   424A      1.884144  
	 425A      1.888326   426A      1.892839   427A      1.893799  
	 428A      1.905095   429A      1.913997   430A      1.919287  
	 431A      1.930786   432A      1.935926   433A      1.936247  
	 434A      1.952302   435A      1.955844   436A      1.974124  
	 437A      1.979851   438A      1.990963   439A      1.991529  
	 440A      2.003226   441A      2.012254   442A      2.017928  
	 443A      2.029194   444A      2.040514   445A      2.042290  
	 446A      2.053835   447A      2.059127   448A      2.066300  
	 449A      2.083166   450A      2.087677   451A      2.093793  
	 452A      2.104795   453A      2.108376   454A      2.112943  
	 455A      2.123939   456A      2.139118   457A      2.149971  
	 458A      2.152516   459A      2.162277   460A      2.167560  
	 461A      2.174788   462A      2.182377   463A      2.183584  
	 464A      2.187041   465A      2.194633   466A      2.212570  
	 467A      2.222353   468A      2.224457   469A      2.229214  
	 470A      2.242333   471A      2.246875   472A      2.252315  
	 473A      2.274510   474A      2.274864   475A      2.278374  
	 476A      2.286786   477A      2.297801   478A      2.299553  
	 479A      2.310305   480A      2.323745   481A      2.335672  
	 482A      2.336819   483A      2.342992   484A      2.352222  
	 485A      2.369290   486A      2.376814   487A      2.383877  
	 488A      2.392001   489A      2.410977   490A      2.416753  
	 491A      2.429240   492A      2.430994   493A      2.432416  
	 494A      2.455409   495A      2.461786   496A      2.469379  
	 497A      2.488545   498A      2.491129   499A      2.500008  
	 500A      2.502587   501A      2.513707   502A      2.521361  
	 503A      2.526454   504A      2.541665   505A      2.553255  
	 506A      2.555307   507A      2.556705   508A      2.576921  
	 509A      2.581125   510A      2.597456   511A      2.597894  
	 512A      2.615671   513A      2.617899   514A      2.623508  
	 515A      2.630238   516A      2.635884   517A      2.648528  
	 518A      2.651952   519A      2.660451   520A      2.661897  
	 521A      2.669478   522A      2.680543   523A      2.687185  
	 524A      2.697299   525A      2.700770   526A      2.712015  
	 527A      2.721769   528A      2.729632   529A      2.731205  
	 530A      2.733095   531A      2.736194   532A      2.737416  
	 533A      2.753955   534A      2.760229   535A      2.784800  
	 536A      2.789449   537A      2.798437   538A      2.811385  
	 539A      2.816054   540A      2.821290   541A      2.830134  
	 542A      2.842603   543A      2.866427   544A      2.866856  
	 545A      2.878413   546A      2.887100   547A      2.899462  
	 548A      2.900616   549A      2.913307   550A      2.921665  
	 551A      2.936247   552A      2.948106   553A      2.955629  
	 554A      2.956426   555A      2.989312   556A      2.992992  
	 557A      3.001717   558A      3.016226   559A      3.017642  
	 560A      3.021345   561A      3.030562   562A      3.037192  
	 563A      3.056283   564A      3.068217   565A      3.086852  
	 566A      3.089800   567A      3.104058   568A      3.108091  
	 569A      3.123456   570A      3.129109   571A      3.142502  
	 572A      3.150893   573A      3.178855   574A      3.196677  
	 575A      3.202701   576A      3.218893   577A      3.219836  
	 578A      3.265917   579A      3.270286   580A      3.288263  
	 581A      3.289362   582A      3.303668   583A      3.307033  
	 584A      3.329958   585A      3.342727   586A      3.353462  
	 587A      3.361186   588A      3.373435   589A      3.390200  
	 590A      3.392777   591A      3.400556   592A      3.409163  
	 593A      3.439806   594A      3.442210   595A      3.447236  
	 596A      3.457685   597A      3.481446   598A      3.482771  
	 599A      3.504952   600A      3.509262   601A      3.535072  
	 602A      3.545289   603A      3.546945   604A      3.562518  
	 605A      3.565479   606A      3.575203   607A      3.590103  
	 608A      3.603256   609A      3.628675   610A      3.635476  
	 611A      3.647354   612A      3.648185   613A      3.670262  
	 614A      3.682717   615A      3.693780   616A      3.698068  
	 617A      3.714078   618A      3.718666   619A      3.741476  
	 620A      3.751530   621A      3.760563   622A      3.764999  
	 623A      3.771963   624A      3.779215   625A      3.793953  
	 626A      3.805623   627A      3.809318   628A      3.827188  
	 629A      3.832350   630A      3.842846   631A      3.863117  
	 632A      3.869293   633A      3.874389   634A      3.889318  
	 635A      3.897409   636A      3.907263   637A      3.909710  
	 638A      3.922838   639A      3.932989   640A      3.937086  
	 641A      3.948018   642A      3.948133   643A      3.964496  
	 644A      3.979727   645A      3.987733   646A      3.997735  
	 647A      4.004222   648A      4.013563   649A      4.019298  
	 650A      4.021926   651A      4.036701   652A      4.044669  
	 653A      4.055146   654A      4.073427   655A      4.080337  
	 656A      4.100050   657A      4.107541   658A      4.119057  
	 659A      4.132890   660A      4.135313   661A      4.156371  
	 662A      4.157314   663A      4.173374   664A      4.174714  
	 665A      4.188764   666A      4.195279   667A      4.204601  
	 668A      4.224507   669A      4.233094   670A      4.242987  
	 671A      4.251051   672A      4.257114   673A      4.260755  
	 674A      4.270889   675A      4.276358   676A      4.297217  
	 677A      4.301041   678A      4.303849   679A      4.318603  
	 680A      4.341673   681A      4.353485   682A      4.369245  
	 683A      4.373442   684A      4.389969   685A      4.393418  
	 686A      4.403623   687A      4.404610   688A      4.417267  
	 689A      4.419428   690A      4.421222   691A      4.449279  
	 692A      4.452861   693A      4.456432   694A      4.467958  
	 695A      4.471324   696A      4.488907   697A      4.501338  
	 698A      4.523088   699A      4.530569   700A      4.539847  
	 701A      4.556692   702A      4.560598   703A      4.573435  
	 704A      4.579158   705A      4.609331   706A      4.624219  
	 707A      4.639777   708A      4.660373   709A      4.674377  
	 710A      4.680279   711A      4.693103   712A      4.713720  
	 713A      4.724559   714A      4.730880   715A      4.737417  
	 716A      4.744983   717A      4.756268   718A      4.762544  
	 719A      4.765818   720A      4.783348   721A      4.787983  
	 722A      4.801574   723A      4.802100   724A      4.830749  
	 725A      4.841811   726A      4.842923   727A      4.854725  
	 728A      4.854996   729A      4.887824   730A      4.896359  
	 731A      4.905147   732A      4.917174   733A      4.924782  
	 734A      4.931945   735A      4.945552   736A      4.962423  
	 737A      4.969952   738A      4.971997   739A      4.992026  
	 740A      5.021257   741A      5.041144   742A      5.059252  
	 743A      5.066220   744A      5.082357   745A      5.084304  
	 746A      5.089413   747A      5.107073   748A      5.133750  
	 749A      5.141537   750A      5.164218   751A      5.169140  
	 752A      5.170721   753A      5.177127   754A      5.187256  
	 755A      5.193363   756A      5.197876   757A      5.207322  
	 758A      5.238764   759A      5.242548   760A      5.259198  
	 761A      5.271772   762A      5.302419   763A      5.331169  
	 764A      5.335727   765A      5.349196   766A      5.358169  
	 767A      5.365873   768A      5.409822   769A      5.414486  
	 770A      5.420645   771A      5.445368   772A      5.447774  
	 773A      5.472584   774A      5.505502   775A      5.510051  
	 776A      5.521804   777A      5.527855   778A      5.552494  
	 779A      5.557645   780A      5.573287   781A      5.591453  
	 782A      5.597406   783A      5.622397   784A      5.634181  
	 785A      5.638526   786A      5.646566   787A      5.652587  
	 788A      5.663255   789A      5.701196   790A      5.705393  
	 791A      5.715588   792A      5.722191   793A      5.732654  
	 794A      5.793306   795A      5.801078   796A      5.807524  
	 797A      5.817575   798A      5.831313   799A      5.832237  
	 800A      5.847175   801A      5.866761   802A      5.869771  
	 803A      5.905686   804A      5.925104   805A      5.937133  
	 806A      5.955481   807A      5.978050   808A      5.980794  
	 809A      6.013555   810A      6.030386   811A      6.049092  
	 812A      6.049836   813A      6.096190   814A      6.112424  
	 815A      6.117976   816A      6.118137   817A      6.151721  
	 818A      6.160844   819A      6.170312   820A      6.196112  
	 821A      6.199240   822A      6.212446   823A      6.278674  
	 824A      6.292786   825A      6.293799   826A      6.314998  
	 827A      6.337229   828A      6.392302   829A      6.534460  
	 830A      6.550503   831A      6.582271   832A      6.590446  
	 833A      6.638341   834A      6.640785   835A      6.661896  
	 836A      6.664395   837A      6.745478   838A      6.751323  
	 839A      6.754012   840A      6.763447   841A      6.766625  
	 842A      6.786578   843A      6.794458   844A      6.810898  
	 845A      6.817240   846A      6.821837   847A      6.847201  
	 848A      6.852165   849A      6.883509   850A      6.886424  
	 851A      6.891833   852A      6.911712   853A      6.914966  
	 854A      6.923968   855A      6.982545   856A      6.991456  
	 857A      7.013401   858A      7.040974   859A      7.058414  
	 860A      7.076659   861A      7.091018   862A      7.100216  
	 863A      7.120917   864A      7.124351   865A      7.198065  
	 866A      7.232082   867A      7.233886   868A      7.241125  
	 869A      7.319146   870A      7.320218   871A      7.385510  
	 872A      7.400526   873A      7.448377   874A      7.459060  
	 875A      7.477130   876A      7.489360   877A      7.491345  
	 878A      7.494912   879A      7.512848   880A      7.520007  
	 881A      7.528442   882A      7.556376   883A      7.666373  
	 884A      7.673856   885A      7.747178   886A      7.757948  
	 887A      7.808701   888A      7.825255   889A      7.840165  
	 890A      7.840204   891A      7.866948   892A      7.867214  
	 893A      7.926350   894A      7.941107   895A      7.984716  
	 896A      7.989902   897A      7.996888   898A      8.017441  
	 899A      8.041090   900A      8.046820   901A      8.072567  
	 902A      8.073821   903A      8.126000   904A      8.139011  
	 905A     16.289336   906A     16.308970   907A     16.501645  
	 908A     16.602829   909A     16.798388   910A     16.962461  
	 911A     17.234713   912A     17.314475   913A     18.568209  
	 914A     18.632762   915A     20.008980   916A     20.027369  
	 917A     20.363639   918A     20.643212   919A     21.013118  
	 920A     21.222410  

	Final Occupation by Irrep:
	          A 
	DOCC [    58 ]

  Energy converged.

  @RHF Final Energy:  -825.24386827546255

   => Energetics <=

    Nuclear Repulsion Energy =           1175.0607569186852288
    One-Electron Energy =               -3462.6653522354963570
    Two-Electron Energy =                1462.3607270413499464
    DFT Exchange-Correlation Energy =       0.0000000000000000
    Empirical Dispersion Energy =           0.0000000000000000
    Total Energy =                       -825.2438682754614092



Properties will be evaluated at   0.000000,   0.000000,   0.000000 Bohr
  ==> Properties <==


Properties computed using the SCF density density matrix
  Nuclear Dipole Moment: (a.u.)
     X:     0.0000      Y:     0.0000      Z:    -5.9481

  Electronic Dipole Moment: (a.u.)
     X:    -0.0000      Y:    -0.0000      Z:     3.7059

  Dipole Moment: (a.u.)
     X:    -0.0000      Y:    -0.0000      Z:    -2.2422     Total:     2.2422

  Dipole Moment: (Debye)
     X:    -0.0000      Y:    -0.0000      Z:    -5.6991     Total:     5.6991


  Saving occupied orbitals to File 180.

  Saving SAPT 2-DIMER file.

*** tstop() called on node35.bme.utexas.edu at Thu Nov  7 02:17:08 2013
Module time:
	user time   =    2673.95 seconds =      44.57 minutes
	system time =      49.78 seconds =       0.83 minutes
	total time  =        422 seconds =       7.03 minutes
Total time:
	user time   =    2673.95 seconds =      44.57 minutes
	system time =      49.78 seconds =       0.83 minutes
	total time  =        422 seconds =       7.03 minutes

  //>>>>>>>>>>>>>>>>>>>>>>>>>>>>>>>>>>>//
  //            Monomer A HF           //
  //<<<<<<<<<<<<<<<<<<<<<<<<<<<<<<<<<<<//


  No DF_BASIS_SCF auxiliary basis selected, defaulting to aug-cc-pvtz-jkfit


*** tstart() called on node35.bme.utexas.edu
*** at Thu Nov  7 02:17:08 2013


         ---------------------------------------------------------
                                   SCF
            by Justin Turney, Rob Parrish, and Andy Simmonett
                              RHF Reference
                        8 Threads,  45000 MiB Core
         ---------------------------------------------------------

  ==> Geometry <==

    Molecular point group: c1
    Full point group: C1

    Geometry (in Angstrom), charge = 0, multiplicity = 1:

       Center              X                  Y                   Z       
    ------------   -----------------  -----------------  -----------------
           N          1.308248194000     0.827894935000     0.734453602703
           H          0.983159485000     1.374371316000     1.523184291703
           C          1.240329792000     1.445677281000    -0.520826332297
           O          0.851908442000     2.599225233000    -0.626148067297
           N          1.942770012000    -1.225060835000    -0.098243155297
           H          1.658632591000     0.978990153000    -2.612166896297
           C          1.957083951000    -0.709023761000    -1.364568735297
           H          2.228864062000    -1.402912570000    -2.145816650297
           C          1.645859429000     0.580085266000    -1.612658559297
           H          2.060801296000    -2.213373437000     0.056657788703
           C          1.577292111000    -0.497058509000     1.018546964703
           O          1.492463098000    -0.983668908000     2.129637711703
           N(Gh)     -1.308248194000    -0.827894935000     0.734453602703
           H(Gh)     -0.983159485000    -1.374371316000     1.523184291703
           C(Gh)     -1.240329792000    -1.445677281000    -0.520826332297
           O(Gh)     -0.851908442000    -2.599225233000    -0.626148067297
           N(Gh)     -1.942770012000     1.225060835000    -0.098243155297
           H(Gh)     -1.658632591000    -0.978990153000    -2.612166896297
           C(Gh)     -1.957083951000     0.709023761000    -1.364568735297
           H(Gh)     -2.228864062000     1.402912570000    -2.145816650297
           C(Gh)     -1.645859429000    -0.580085266000    -1.612658559297
           H(Gh)     -2.060801296000     2.213373437000     0.056657788703
           C(Gh)     -1.577292111000     0.497058509000     1.018546964703
           O(Gh)     -1.492463098000     0.983668908000     2.129637711703

  Running in c1 symmetry.

  Nuclear repulsion =  357.160273677226883

  Charge       = 0
  Multiplicity = 1
  Electrons    = 58
  Nalpha       = 29
  Nbeta        = 29

  ==> Algorithm <==

  SCF Algorithm Type is DF.
  DIIS enabled.
  MOM disabled.
  Fractional occupation disabled.
  Guess Type is CORE.
  Energy threshold   = 1.00e-08
  Density threshold  = 1.00e-08
  Integral threshold = 0.00e+00

  ==> Primary Basis <==

  Basis Set: AUG-CC-PVTZ
    Number of shells: 296
    Number of basis function: 920
    Number of Cartesian functions: 1080
    Spherical Harmonics?: true
    Max angular momentum: 3

  ==> Pre-Iterations <==

   -------------------------------------------------------
    Irrep   Nso     Nmo     Nalpha   Nbeta   Ndocc  Nsocc
   -------------------------------------------------------
     A        920     920       0       0       0       0
   -------------------------------------------------------
    Total     920     920      29      29      29       0
   -------------------------------------------------------

 OEINTS: Wrapper to libmints.
   by Justin Turney

   Calculation information:
      Number of atoms:                  24
      Number of AO shells:             296
      Number of SO shells:             296
      Number of primitives:            568
      Number of atomic orbitals:      1080
      Number of basis functions:       920

      Number of irreps:                  1
      Number of functions per irrep: [ 920 ]

      Overlap, kinetic, potential, dipole, and quadrupole integrals
        stored in file 35.

  ==> Integral Setup <==

  ==> DFJK: Density-Fitted J/K Matrices <==

    J tasked:                  Yes
    K tasked:                  Yes
    wK tasked:                  No
    OpenMP threads:              8
    Integrals threads:           8
    Memory (MB):             32186
    Algorithm:                Core
    Integral Cache:           LOAD
    Schwarz Cutoff:          0E+00
    Fitting Condition:       1E-12

   => Auxiliary Basis Set <=

  Basis Set: aug-cc-pvtz-jkfit
    Number of shells: 592
    Number of basis function: 2032
    Number of Cartesian functions: 2536
    Spherical Harmonics?: true
    Max angular momentum: 4

  Minimum eigenvalue in the overlap matrix is 1.8801420809E-06.
  Using Symmetric Orthogonalization.
  SCF Guess: Core (One-Electron) Hamiltonian.

  Guess energy:  -323.99656811793284

  ==> Iterations <==

                        Total Energy        Delta E     RMS |[F,P]|

   @RHF iter   1:  -319.75727395161709   -3.19757e+02   1.68405e-02 
   @RHF iter   2:  -286.99979229426219    3.27575e+01   1.02305e-02 DIIS
   @RHF iter   3:  -298.34371372613236   -1.13439e+01   1.21198e-02 DIIS
   @RHF iter   4:  -391.86391307569158   -9.35202e+01   5.83317e-03 DIIS
   @RHF iter   5:  -389.05890458240208    2.80501e+00   5.55157e-03 DIIS
   @RHF iter   6:  -409.88597174394465   -2.08271e+01   2.48827e-03 DIIS
   @RHF iter   7:  -412.41361347076850   -2.52764e+00   5.99707e-04 DIIS
   @RHF iter   8:  -412.58684567574448   -1.73232e-01   2.30718e-04 DIIS
   @RHF iter   9:  -412.61513093161500   -2.82853e-02   1.03690e-04 DIIS
   @RHF iter  10:  -412.62196078318937   -6.82985e-03   4.56637e-05 DIIS
   @RHF iter  11:  -412.62344942002835   -1.48864e-03   2.43913e-05 DIIS
   @RHF iter  12:  -412.62410491174649   -6.55492e-04   8.38067e-06 DIIS
   @RHF iter  13:  -412.62416520067370   -6.02889e-05   3.33466e-06 DIIS
   @RHF iter  14:  -412.62417003983899   -4.83917e-06   8.47325e-07 DIIS
   @RHF iter  15:  -412.62417045493271   -4.15094e-07   2.17116e-07 DIIS
   @RHF iter  16:  -412.62417048713689   -3.22042e-08   8.35282e-08 DIIS
   @RHF iter  17:  -412.62417049221256   -5.07566e-09   3.10365e-08 DIIS
   @RHF iter  18:  -412.62417049325563   -1.04308e-09   1.27041e-08 DIIS
   @RHF iter  19:  -412.62417049343594   -1.80307e-10   4.21970e-09 DIIS

  ==> Post-Iterations <==

	Orbital Energies (a.u.)
	-----------------------

	Doubly Occupied:                                                      

	   1A    -20.548326     2A    -20.541975     3A    -15.645762  
	   4A    -15.628797     5A    -11.419874     6A    -11.381517  
	   7A    -11.341401     8A    -11.256335     9A     -1.437353  
	  10A     -1.397251    11A     -1.315247    12A     -1.246997  
	  13A     -1.089226    14A     -0.935193    15A     -0.901953  
	  16A     -0.807874    17A     -0.766160    18A     -0.715434  
	  19A     -0.677995    20A     -0.670764    21A     -0.653245  
	  22A     -0.614787    23A     -0.602535    24A     -0.571108  
	  25A     -0.527098    26A     -0.484889    27A     -0.450023  
	  28A     -0.437612    29A     -0.369907  

	Virtual:                                                              

	  30A      0.012150    31A      0.026785    32A      0.031286  
	  33A      0.035641    34A      0.046077    35A      0.047561  
	  36A      0.051096    37A      0.061430    38A      0.066203  
	  39A      0.069989    40A      0.074175    41A      0.078681  
	  42A      0.083975    43A      0.086715    44A      0.090061  
	  45A      0.095987    46A      0.097517    47A      0.100281  
	  48A      0.103978    49A      0.108916    50A      0.110717  
	  51A      0.117633    52A      0.122384    53A      0.125214  
	  54A      0.128849    55A      0.131744    56A      0.136858  
	  57A      0.140770    58A      0.142871    59A      0.144372  
	  60A      0.147329    61A      0.148526    62A      0.151364  
	  63A      0.157833    64A      0.161986    65A      0.164268  
	  66A      0.173251    67A      0.176019    68A      0.186581  
	  69A      0.190257    70A      0.192288    71A      0.197089  
	  72A      0.199825    73A      0.205869    74A      0.208366  
	  75A      0.210265    76A      0.217107    77A      0.221028  
	  78A      0.224971    79A      0.231864    80A      0.237010  
	  81A      0.238333    82A      0.241366    83A      0.248658  
	  84A      0.251790    85A      0.257957    86A      0.258737  
	  87A      0.264451    88A      0.270330    89A      0.274841  
	  90A      0.275447    91A      0.278529    92A      0.282347  
	  93A      0.285663    94A      0.290436    95A      0.293613  
	  96A      0.300546    97A      0.302055    98A      0.304833  
	  99A      0.306461   100A      0.314347   101A      0.320889  
	 102A      0.325963   103A      0.326860   104A      0.332797  
	 105A      0.335341   106A      0.341690   107A      0.344258  
	 108A      0.351680   109A      0.353081   110A      0.358835  
	 111A      0.359063   112A      0.364099   113A      0.373177  
	 114A      0.373981   115A      0.376966   116A      0.379967  
	 117A      0.389774   118A      0.393210   119A      0.394282  
	 120A      0.402025   121A      0.404966   122A      0.408046  
	 123A      0.412852   124A      0.417218   125A      0.422762  
	 126A      0.427258   127A      0.431593   128A      0.436565  
	 129A      0.443329   130A      0.446573   131A      0.448521  
	 132A      0.455665   133A      0.460719   134A      0.463889  
	 135A      0.469258   136A      0.472539   137A      0.475328  
	 138A      0.478098   139A      0.481257   140A      0.487392  
	 141A      0.490448   142A      0.494856   143A      0.498894  
	 144A      0.504225   145A      0.505693   146A      0.513043  
	 147A      0.517971   148A      0.519224   149A      0.523265  
	 150A      0.525336   151A      0.528164   152A      0.534217  
	 153A      0.538957   154A      0.542104   155A      0.545482  
	 156A      0.552907   157A      0.556454   158A      0.558677  
	 159A      0.559657   160A      0.571139   161A      0.576199  
	 162A      0.579447   163A      0.585324   164A      0.586523  
	 165A      0.594464   166A      0.600151   167A      0.602201  
	 168A      0.606591   169A      0.615893   170A      0.621450  
	 171A      0.623752   172A      0.628243   173A      0.629083  
	 174A      0.636053   175A      0.645874   176A      0.647356  
	 177A      0.655906   178A      0.657420   179A      0.661605  
	 180A      0.670238   181A      0.680755   182A      0.684503  
	 183A      0.692255   184A      0.697882   185A      0.702278  
	 186A      0.707374   187A      0.713147   188A      0.722466  
	 189A      0.724983   190A      0.727747   191A      0.732148  
	 192A      0.738823   193A      0.746368   194A      0.751957  
	 195A      0.755527   196A      0.762560   197A      0.763300  
	 198A      0.766085   199A      0.782535   200A      0.787103  
	 201A      0.789416   202A      0.790769   203A      0.796431  
	 204A      0.805252   205A      0.807512   206A      0.814336  
	 207A      0.821658   208A      0.826624   209A      0.830859  
	 210A      0.832232   211A      0.845911   212A      0.850856  
	 213A      0.852882   214A      0.857986   215A      0.865481  
	 216A      0.867601   217A      0.881899   218A      0.884451  
	 219A      0.890796   220A      0.896044   221A      0.897680  
	 222A      0.905573   223A      0.915198   224A      0.915608  
	 225A      0.920509   226A      0.925929   227A      0.930423  
	 228A      0.934143   229A      0.939756   230A      0.944518  
	 231A      0.954220   232A      0.961252   233A      0.961641  
	 234A      0.964011   235A      0.968504   236A      0.978185  
	 237A      0.980701   238A      0.984976   239A      0.992848  
	 240A      0.998871   241A      1.005770   242A      1.008924  
	 243A      1.012195   244A      1.016556   245A      1.020326  
	 246A      1.024954   247A      1.031861   248A      1.039341  
	 249A      1.047413   250A      1.051355   251A      1.055603  
	 252A      1.061027   253A      1.071008   254A      1.072558  
	 255A      1.080944   256A      1.084900   257A      1.093806  
	 258A      1.096295   259A      1.101800   260A      1.106523  
	 261A      1.110246   262A      1.114543   263A      1.127547  
	 264A      1.129791   265A      1.131011   266A      1.135060  
	 267A      1.145179   268A      1.149726   269A      1.155791  
	 270A      1.161801   271A      1.166638   272A      1.168383  
	 273A      1.171935   274A      1.176062   275A      1.179281  
	 276A      1.185059   277A      1.191984   278A      1.194630  
	 279A      1.203672   280A      1.203832   281A      1.205538  
	 282A      1.214207   283A      1.218291   284A      1.221272  
	 285A      1.233973   286A      1.234635   287A      1.238939  
	 288A      1.244107   289A      1.255579   290A      1.257448  
	 291A      1.259871   292A      1.268050   293A      1.277915  
	 294A      1.282215   295A      1.287167   296A      1.294104  
	 297A      1.299277   298A      1.304804   299A      1.307715  
	 300A      1.317699   301A      1.318254   302A      1.323451  
	 303A      1.331398   304A      1.333387   305A      1.346709  
	 306A      1.357352   307A      1.363891   308A      1.366950  
	 309A      1.369886   310A      1.373604   311A      1.376403  
	 312A      1.386247   313A      1.391500   314A      1.400329  
	 315A      1.402924   316A      1.407253   317A      1.410499  
	 318A      1.415940   319A      1.424577   320A      1.426048  
	 321A      1.432605   322A      1.441506   323A      1.445585  
	 324A      1.455211   325A      1.457970   326A      1.458411  
	 327A      1.470991   328A      1.475474   329A      1.480763  
	 330A      1.491196   331A      1.496572   332A      1.508923  
	 333A      1.513088   334A      1.520721   335A      1.526445  
	 336A      1.533659   337A      1.539897   338A      1.544168  
	 339A      1.549063   340A      1.558813   341A      1.563390  
	 342A      1.570081   343A      1.575978   344A      1.578925  
	 345A      1.589651   346A      1.601281   347A      1.605084  
	 348A      1.611209   349A      1.617552   350A      1.620042  
	 351A      1.631893   352A      1.635596   353A      1.640271  
	 354A      1.645154   355A      1.656327   356A      1.659160  
	 357A      1.668673   358A      1.679443   359A      1.681741  
	 360A      1.682780   361A      1.690754   362A      1.702043  
	 363A      1.712710   364A      1.718576   365A      1.722947  
	 366A      1.724043   367A      1.735776   368A      1.742888  
	 369A      1.752520   370A      1.760903   371A      1.769297  
	 372A      1.776239   373A      1.781816   374A      1.795205  
	 375A      1.799301   376A      1.812669   377A      1.814752  
	 378A      1.820415   379A      1.834874   380A      1.838738  
	 381A      1.840503   382A      1.852096   383A      1.860999  
	 384A      1.866831   385A      1.871528   386A      1.876918  
	 387A      1.883726   388A      1.891891   389A      1.902729  
	 390A      1.911177   391A      1.914741   392A      1.921900  
	 393A      1.932119   394A      1.939507   395A      1.946521  
	 396A      1.953324   397A      1.957209   398A      1.969857  
	 399A      1.970813   400A      1.985973   401A      1.987441  
	 402A      1.999501   403A      2.009719   404A      2.018010  
	 405A      2.028441   406A      2.033420   407A      2.042198  
	 408A      2.050395   409A      2.054020   410A      2.058030  
	 411A      2.073676   412A      2.080440   413A      2.084506  
	 414A      2.096348   415A      2.104554   416A      2.110640  
	 417A      2.121521   418A      2.131252   419A      2.137825  
	 420A      2.140308   421A      2.149345   422A      2.159016  
	 423A      2.166622   424A      2.169867   425A      2.176636  
	 426A      2.191903   427A      2.196453   428A      2.204141  
	 429A      2.209263   430A      2.219435   431A      2.223353  
	 432A      2.227695   433A      2.237959   434A      2.243302  
	 435A      2.247747   436A      2.266461   437A      2.267558  
	 438A      2.279935   439A      2.287250   440A      2.296432  
	 441A      2.302326   442A      2.310288   443A      2.315278  
	 444A      2.332808   445A      2.341790   446A      2.347637  
	 447A      2.352108   448A      2.359431   449A      2.367620  
	 450A      2.380600   451A      2.388818   452A      2.397853  
	 453A      2.409530   454A      2.410685   455A      2.424734  
	 456A      2.437506   457A      2.449918   458A      2.453091  
	 459A      2.460723   460A      2.469182   461A      2.480895  
	 462A      2.496395   463A      2.501040   464A      2.508837  
	 465A      2.523500   466A      2.537940   467A      2.542440  
	 468A      2.555619   469A      2.559777   470A      2.562598  
	 471A      2.568967   472A      2.588080   473A      2.591698  
	 474A      2.599356   475A      2.603928   476A      2.612709  
	 477A      2.624634   478A      2.629118   479A      2.647623  
	 480A      2.649847   481A      2.657270   482A      2.667105  
	 483A      2.672380   484A      2.677996   485A      2.681708  
	 486A      2.688205   487A      2.698116   488A      2.710772  
	 489A      2.712219   490A      2.725863   491A      2.735007  
	 492A      2.741878   493A      2.746607   494A      2.757524  
	 495A      2.765438   496A      2.771474   497A      2.773823  
	 498A      2.783415   499A      2.785905   500A      2.796414  
	 501A      2.814369   502A      2.832819   503A      2.838911  
	 504A      2.843760   505A      2.857526   506A      2.862110  
	 507A      2.865158   508A      2.876645   509A      2.886473  
	 510A      2.892903   511A      2.897567   512A      2.905459  
	 513A      2.914222   514A      2.930404   515A      2.936201  
	 516A      2.951367   517A      2.956197   518A      2.965053  
	 519A      2.970882   520A      2.977236   521A      2.989075  
	 522A      3.001443   523A      3.016671   524A      3.023123  
	 525A      3.034271   526A      3.042525   527A      3.047931  
	 528A      3.062305   529A      3.063150   530A      3.078252  
	 531A      3.081201   532A      3.086102   533A      3.099337  
	 534A      3.113967   535A      3.129181   536A      3.130776  
	 537A      3.142424   538A      3.157731   539A      3.164184  
	 540A      3.179247   541A      3.196763   542A      3.203492  
	 543A      3.214114   544A      3.222952   545A      3.242902  
	 546A      3.253184   547A      3.256891   548A      3.270658  
	 549A      3.275945   550A      3.298764   551A      3.313692  
	 552A      3.327205   553A      3.332185   554A      3.341082  
	 555A      3.357051   556A      3.383187   557A      3.397828  
	 558A      3.402420   559A      3.408822   560A      3.421295  
	 561A      3.442038   562A      3.453839   563A      3.466943  
	 564A      3.482463   565A      3.500059   566A      3.510464  
	 567A      3.526216   568A      3.548297   569A      3.555114  
	 570A      3.568497   571A      3.574003   572A      3.598844  
	 573A      3.618501   574A      3.623707   575A      3.630697  
	 576A      3.656424   577A      3.671667   578A      3.676637  
	 579A      3.698402   580A      3.709129   581A      3.734435  
	 582A      3.743270   583A      3.757716   584A      3.762804  
	 585A      3.768046   586A      3.777134   587A      3.791383  
	 588A      3.802365   589A      3.812172   590A      3.819064  
	 591A      3.836089   592A      3.853983   593A      3.856622  
	 594A      3.871640   595A      3.881924   596A      3.893115  
	 597A      3.898283   598A      3.904921   599A      3.922916  
	 600A      3.928628   601A      3.946379   602A      3.962331  
	 603A      3.979921   604A      3.996289   605A      4.003295  
	 606A      4.013178   607A      4.029033   608A      4.053735  
	 609A      4.059538   610A      4.070495   611A      4.094333  
	 612A      4.097332   613A      4.124178   614A      4.135213  
	 615A      4.145525   616A      4.149996   617A      4.159963  
	 618A      4.187410   619A      4.194279   620A      4.201638  
	 621A      4.207620   622A      4.219793   623A      4.235086  
	 624A      4.244901   625A      4.252410   626A      4.260208  
	 627A      4.271980   628A      4.295811   629A      4.302351  
	 630A      4.320863   631A      4.338422   632A      4.354368  
	 633A      4.364778   634A      4.373677   635A      4.380689  
	 636A      4.384083   637A      4.391926   638A      4.402964  
	 639A      4.424497   640A      4.436934   641A      4.444770  
	 642A      4.452149   643A      4.459373   644A      4.470336  
	 645A      4.475817   646A      4.486498   647A      4.512043  
	 648A      4.524529   649A      4.529431   650A      4.538466  
	 651A      4.551734   652A      4.560626   653A      4.600562  
	 654A      4.611773   655A      4.621142   656A      4.649035  
	 657A      4.655060   658A      4.659596   659A      4.675716  
	 660A      4.699927   661A      4.718713   662A      4.724087  
	 663A      4.727580   664A      4.749144   665A      4.751069  
	 666A      4.773300   667A      4.779178   668A      4.790989  
	 669A      4.795746   670A      4.802604   671A      4.821995  
	 672A      4.838764   673A      4.844753   674A      4.858291  
	 675A      4.881327   676A      4.887834   677A      4.897673  
	 678A      4.899239   679A      4.916498   680A      4.926367  
	 681A      4.937738   682A      4.941198   683A      4.954463  
	 684A      4.971519   685A      4.974007   686A      4.987578  
	 687A      5.021024   688A      5.025991   689A      5.041671  
	 690A      5.055854   691A      5.064867   692A      5.069303  
	 693A      5.087445   694A      5.094024   695A      5.099902  
	 696A      5.120199   697A      5.134640   698A      5.151228  
	 699A      5.154083   700A      5.158831   701A      5.169285  
	 702A      5.183900   703A      5.195414   704A      5.209811  
	 705A      5.219453   706A      5.230740   707A      5.247541  
	 708A      5.258431   709A      5.271051   710A      5.280444  
	 711A      5.295787   712A      5.314757   713A      5.335476  
	 714A      5.346472   715A      5.355628   716A      5.373636  
	 717A      5.378413   718A      5.387306   719A      5.398362  
	 720A      5.421396   721A      5.424427   722A      5.434939  
	 723A      5.457015   724A      5.474872   725A      5.480044  
	 726A      5.508539   727A      5.515586   728A      5.535318  
	 729A      5.560268   730A      5.566495   731A      5.571527  
	 732A      5.579475   733A      5.610913   734A      5.617685  
	 735A      5.627205   736A      5.636181   737A      5.642295  
	 738A      5.653920   739A      5.669487   740A      5.671843  
	 741A      5.698785   742A      5.713996   743A      5.726657  
	 744A      5.751474   745A      5.771916   746A      5.791075  
	 747A      5.811006   748A      5.824931   749A      5.833105  
	 750A      5.849804   751A      5.862027   752A      5.888312  
	 753A      5.909516   754A      5.915524   755A      5.949734  
	 756A      5.963251   757A      5.969869   758A      5.981273  
	 759A      6.003060   760A      6.021484   761A      6.041979  
	 762A      6.052368   763A      6.093476   764A      6.107596  
	 765A      6.111876   766A      6.136011   767A      6.149641  
	 768A      6.168971   769A      6.198907   770A      6.200643  
	 771A      6.217067   772A      6.271645   773A      6.283787  
	 774A      6.293532   775A      6.311408   776A      6.359493  
	 777A      6.394006   778A      6.464236   779A      6.490750  
	 780A      6.510798   781A      6.544106   782A      6.583221  
	 783A      6.589940   784A      6.632003   785A      6.635643  
	 786A      6.653498   787A      6.667045   788A      6.673329  
	 789A      6.712143   790A      6.725184   791A      6.756058  
	 792A      6.774187   793A      6.795690   794A      6.799296  
	 795A      6.818865   796A      6.826340   797A      6.830597  
	 798A      6.846810   799A      6.867621   800A      6.874857  
	 801A      6.889727   802A      6.904324   803A      6.920767  
	 804A      6.954701   805A      6.981137   806A      6.988152  
	 807A      7.009700   808A      7.040454   809A      7.056976  
	 810A      7.090145   811A      7.114841   812A      7.173851  
	 813A      7.215108   814A      7.228870   815A      7.233852  
	 816A      7.250781   817A      7.312589   818A      7.326846  
	 819A      7.390721   820A      7.434670   821A      7.452236  
	 822A      7.471331   823A      7.482493   824A      7.494649  
	 825A      7.508680   826A      7.513829   827A      7.535854  
	 828A      7.610852   829A      7.628552   830A      7.642597  
	 831A      7.668957   832A      7.671398   833A      7.675056  
	 834A      7.701491   835A      7.714070   836A      7.736040  
	 837A      7.755501   838A      7.775889   839A      7.800211  
	 840A      7.823246   841A      7.833683   842A      7.851380  
	 843A      7.876300   844A      7.885874   845A      7.922177  
	 846A      7.933616   847A      7.944936   848A      7.966268  
	 849A      7.988771   850A      8.004293   851A      8.016214  
	 852A      8.026843   853A      8.041021   854A      8.060951  
	 855A      8.064717   856A      8.072540   857A      8.088577  
	 858A      8.131126   859A      8.215721   860A      8.264589  
	 861A      8.313109   862A      8.351185   863A      8.374010  
	 864A      8.454165   865A      8.607392   866A      8.712670  
	 867A      8.750133   868A      8.771179   869A      8.938502  
	 870A      9.065436   871A      9.129981   872A      9.249964  
	 873A      9.312599   874A      9.571592   875A      9.670711  
	 876A      9.736752   877A      9.970301   878A      9.997794  
	 879A     10.034338   880A     10.090069   881A     10.125288  
	 882A     10.316842   883A     10.324540   884A     10.360841  
	 885A     10.451287   886A     10.501734   887A     10.572538  
	 888A     10.598340   889A     11.049091   890A     11.295079  
	 891A     11.385821   892A     11.541389   893A     12.069687  
	 894A     12.119775   895A     12.132663   896A     12.197728  
	 897A     12.439934   898A     12.570482   899A     12.729854  
	 900A     12.920218   901A     13.455795   902A     13.708069  
	 903A     14.230476   904A     14.279401   905A     16.314026  
	 906A     16.637021   907A     16.831975   908A     17.270719  
	 909A     18.603612   910A     20.033756   911A     20.497430  
	 912A     21.106196   913A     52.437373   914A     52.541995  
	 915A     55.360122   916A     56.148588   917A     61.401493  
	 918A     62.076540   919A     69.846539   920A     70.584303  

	Final Occupation by Irrep:
	          A 
	DOCC [    29 ]

  Energy converged.

  @RHF Final Energy:  -412.62417049343594

   => Energetics <=

    Nuclear Repulsion Energy =            357.1602736772268827
    One-Electron Energy =               -1270.6956089746240650
    Two-Electron Energy =                 500.9111648039624924
    DFT Exchange-Correlation Energy =       0.0000000000000000
    Empirical Dispersion Energy =           0.0000000000000000
    Total Energy =                       -412.6241704934346899



Properties will be evaluated at   0.000000,   0.000000,   0.000000 Bohr
  ==> Properties <==


Properties computed using the SCF density density matrix
  Nuclear Dipole Moment: (a.u.)
     X:   164.3437      Y:    26.0772      Z:    -2.9740

  Electronic Dipole Moment: (a.u.)
     X:  -163.7753      Y:   -27.5688      Z:     1.8019

  Dipole Moment: (a.u.)
     X:     0.5684      Y:    -1.4916      Z:    -1.1721     Total:     1.9804

  Dipole Moment: (Debye)
     X:     1.4448      Y:    -3.7913      Z:    -2.9792     Total:     5.0336


  Saving occupied orbitals to File 180.

  Saving SAPT 2-MONOMER_A file.

*** tstop() called on node35.bme.utexas.edu at Thu Nov  7 02:22:19 2013
Module time:
	user time   =    2059.61 seconds =      34.33 minutes
	system time =      22.68 seconds =       0.38 minutes
	total time  =        311 seconds =       5.18 minutes
Total time:
	user time   =    4733.59 seconds =      78.89 minutes
	system time =      72.46 seconds =       1.21 minutes
	total time  =        733 seconds =      12.22 minutes

  //>>>>>>>>>>>>>>>>>>>>>>>>>>>>>>>>>>>//
  //            Monomer B HF           //
  //<<<<<<<<<<<<<<<<<<<<<<<<<<<<<<<<<<<//


  No DF_BASIS_SCF auxiliary basis selected, defaulting to aug-cc-pvtz-jkfit


*** tstart() called on node35.bme.utexas.edu
*** at Thu Nov  7 02:22:19 2013


         ---------------------------------------------------------
                                   SCF
            by Justin Turney, Rob Parrish, and Andy Simmonett
                              RHF Reference
                        8 Threads,  45000 MiB Core
         ---------------------------------------------------------

  ==> Geometry <==

    Molecular point group: c1
    Full point group: C1

    Geometry (in Angstrom), charge = 0, multiplicity = 1:

       Center              X                  Y                   Z       
    ------------   -----------------  -----------------  -----------------
           N(Gh)      1.308248194000     0.827894935000     0.734453602703
           H(Gh)      0.983159485000     1.374371316000     1.523184291703
           C(Gh)      1.240329792000     1.445677281000    -0.520826332297
           O(Gh)      0.851908442000     2.599225233000    -0.626148067297
           N(Gh)      1.942770012000    -1.225060835000    -0.098243155297
           H(Gh)      1.658632591000     0.978990153000    -2.612166896297
           C(Gh)      1.957083951000    -0.709023761000    -1.364568735297
           H(Gh)      2.228864062000    -1.402912570000    -2.145816650297
           C(Gh)      1.645859429000     0.580085266000    -1.612658559297
           H(Gh)      2.060801296000    -2.213373437000     0.056657788703
           C(Gh)      1.577292111000    -0.497058509000     1.018546964703
           O(Gh)      1.492463098000    -0.983668908000     2.129637711703
           N         -1.308248194000    -0.827894935000     0.734453602703
           H         -0.983159485000    -1.374371316000     1.523184291703
           C         -1.240329792000    -1.445677281000    -0.520826332297
           O         -0.851908442000    -2.599225233000    -0.626148067297
           N         -1.942770012000     1.225060835000    -0.098243155297
           H         -1.658632591000    -0.978990153000    -2.612166896297
           C         -1.957083951000     0.709023761000    -1.364568735297
           H         -2.228864062000     1.402912570000    -2.145816650297
           C         -1.645859429000    -0.580085266000    -1.612658559297
           H         -2.060801296000     2.213373437000     0.056657788703
           C         -1.577292111000     0.497058509000     1.018546964703
           O         -1.492463098000     0.983668908000     2.129637711703

  Running in c1 symmetry.

  Nuclear repulsion =  357.160273677226769

  Charge       = 0
  Multiplicity = 1
  Electrons    = 58
  Nalpha       = 29
  Nbeta        = 29

  ==> Algorithm <==

  SCF Algorithm Type is DF.
  DIIS enabled.
  MOM disabled.
  Fractional occupation disabled.
  Guess Type is CORE.
  Energy threshold   = 1.00e-08
  Density threshold  = 1.00e-08
  Integral threshold = 0.00e+00

  ==> Primary Basis <==

  Basis Set: AUG-CC-PVTZ
    Number of shells: 296
    Number of basis function: 920
    Number of Cartesian functions: 1080
    Spherical Harmonics?: true
    Max angular momentum: 3

  ==> Pre-Iterations <==

   -------------------------------------------------------
    Irrep   Nso     Nmo     Nalpha   Nbeta   Ndocc  Nsocc
   -------------------------------------------------------
     A        920     920       0       0       0       0
   -------------------------------------------------------
    Total     920     920      29      29      29       0
   -------------------------------------------------------

 OEINTS: Wrapper to libmints.
   by Justin Turney

   Calculation information:
      Number of atoms:                  24
      Number of AO shells:             296
      Number of SO shells:             296
      Number of primitives:            568
      Number of atomic orbitals:      1080
      Number of basis functions:       920

      Number of irreps:                  1
      Number of functions per irrep: [ 920 ]

      Overlap, kinetic, potential, dipole, and quadrupole integrals
        stored in file 35.

  ==> Integral Setup <==

  ==> DFJK: Density-Fitted J/K Matrices <==

    J tasked:                  Yes
    K tasked:                  Yes
    wK tasked:                  No
    OpenMP threads:              8
    Integrals threads:           8
    Memory (MB):             32186
    Algorithm:                Core
    Integral Cache:           LOAD
    Schwarz Cutoff:          0E+00
    Fitting Condition:       1E-12

   => Auxiliary Basis Set <=

  Basis Set: aug-cc-pvtz-jkfit
    Number of shells: 592
    Number of basis function: 2032
    Number of Cartesian functions: 2536
    Spherical Harmonics?: true
    Max angular momentum: 4

  Minimum eigenvalue in the overlap matrix is 1.8801420808E-06.
  Using Symmetric Orthogonalization.
  SCF Guess: Core (One-Electron) Hamiltonian.

  Guess energy:  -323.99656811793307

  ==> Iterations <==

                        Total Energy        Delta E     RMS |[F,P]|

   @RHF iter   1:  -319.75727395249169   -3.19757e+02   1.68405e-02 
   @RHF iter   2:  -286.99979196892809    3.27575e+01   1.02305e-02 DIIS
   @RHF iter   3:  -298.34371381438189   -1.13439e+01   1.21198e-02 DIIS
   @RHF iter   4:  -391.86391307502845   -9.35202e+01   5.83317e-03 DIIS
   @RHF iter   5:  -389.05890463403239    2.80501e+00   5.55157e-03 DIIS
   @RHF iter   6:  -409.88597173446510   -2.08271e+01   2.48827e-03 DIIS
   @RHF iter   7:  -412.41361346873293   -2.52764e+00   5.99707e-04 DIIS
   @RHF iter   8:  -412.58684567551529   -1.73232e-01   2.30718e-04 DIIS
   @RHF iter   9:  -412.61513093150609   -2.82853e-02   1.03690e-04 DIIS
   @RHF iter  10:  -412.62196078306988   -6.82985e-03   4.56637e-05 DIIS
   @RHF iter  11:  -412.62344941992490   -1.48864e-03   2.43913e-05 DIIS
   @RHF iter  12:  -412.62410491164997   -6.55492e-04   8.38067e-06 DIIS
   @RHF iter  13:  -412.62416520057889   -6.02889e-05   3.33466e-06 DIIS
   @RHF iter  14:  -412.62417003974269   -4.83916e-06   8.47325e-07 DIIS
   @RHF iter  15:  -412.62417045483426   -4.15092e-07   2.17116e-07 DIIS
   @RHF iter  16:  -412.62417048704174   -3.22075e-08   8.35282e-08 DIIS
   @RHF iter  17:  -412.62417049211558   -5.07384e-09   3.10365e-08 DIIS
   @RHF iter  18:  -412.62417049316059   -1.04501e-09   1.27041e-08 DIIS
   @RHF iter  19:  -412.62417049334033   -1.79739e-10   4.21970e-09 DIIS

  ==> Post-Iterations <==

	Orbital Energies (a.u.)
	-----------------------

	Doubly Occupied:                                                      

	   1A    -20.548326     2A    -20.541975     3A    -15.645762  
	   4A    -15.628797     5A    -11.419874     6A    -11.381517  
	   7A    -11.341401     8A    -11.256335     9A     -1.437353  
	  10A     -1.397251    11A     -1.315247    12A     -1.246997  
	  13A     -1.089226    14A     -0.935193    15A     -0.901953  
	  16A     -0.807874    17A     -0.766160    18A     -0.715434  
	  19A     -0.677995    20A     -0.670764    21A     -0.653245  
	  22A     -0.614787    23A     -0.602535    24A     -0.571108  
	  25A     -0.527098    26A     -0.484889    27A     -0.450023  
	  28A     -0.437612    29A     -0.369907  

	Virtual:                                                              

	  30A      0.012150    31A      0.026785    32A      0.031286  
	  33A      0.035641    34A      0.046077    35A      0.047561  
	  36A      0.051096    37A      0.061430    38A      0.066203  
	  39A      0.069989    40A      0.074175    41A      0.078681  
	  42A      0.083975    43A      0.086715    44A      0.090061  
	  45A      0.095987    46A      0.097517    47A      0.100281  
	  48A      0.103978    49A      0.108916    50A      0.110717  
	  51A      0.117633    52A      0.122384    53A      0.125214  
	  54A      0.128849    55A      0.131744    56A      0.136858  
	  57A      0.140770    58A      0.142871    59A      0.144372  
	  60A      0.147329    61A      0.148526    62A      0.151364  
	  63A      0.157833    64A      0.161986    65A      0.164268  
	  66A      0.173251    67A      0.176019    68A      0.186581  
	  69A      0.190257    70A      0.192288    71A      0.197089  
	  72A      0.199825    73A      0.205869    74A      0.208366  
	  75A      0.210265    76A      0.217107    77A      0.221028  
	  78A      0.224971    79A      0.231864    80A      0.237009  
	  81A      0.238333    82A      0.241366    83A      0.248658  
	  84A      0.251789    85A      0.257957    86A      0.258737  
	  87A      0.264451    88A      0.270329    89A      0.274841  
	  90A      0.275447    91A      0.278528    92A      0.282347  
	  93A      0.285663    94A      0.290436    95A      0.293613  
	  96A      0.300546    97A      0.302055    98A      0.304834  
	  99A      0.306461   100A      0.314347   101A      0.320889  
	 102A      0.325963   103A      0.326860   104A      0.332797  
	 105A      0.335341   106A      0.341690   107A      0.344258  
	 108A      0.351681   109A      0.353082   110A      0.358835  
	 111A      0.359063   112A      0.364099   113A      0.373177  
	 114A      0.373981   115A      0.376966   116A      0.379967  
	 117A      0.389774   118A      0.393210   119A      0.394282  
	 120A      0.402025   121A      0.404966   122A      0.408046  
	 123A      0.412851   124A      0.417218   125A      0.422762  
	 126A      0.427258   127A      0.431593   128A      0.436565  
	 129A      0.443329   130A      0.446573   131A      0.448521  
	 132A      0.455664   133A      0.460719   134A      0.463889  
	 135A      0.469258   136A      0.472539   137A      0.475328  
	 138A      0.478098   139A      0.481257   140A      0.487392  
	 141A      0.490448   142A      0.494856   143A      0.498895  
	 144A      0.504225   145A      0.505693   146A      0.513043  
	 147A      0.517971   148A      0.519224   149A      0.523265  
	 150A      0.525335   151A      0.528164   152A      0.534216  
	 153A      0.538957   154A      0.542104   155A      0.545482  
	 156A      0.552907   157A      0.556454   158A      0.558677  
	 159A      0.559657   160A      0.571139   161A      0.576199  
	 162A      0.579447   163A      0.585323   164A      0.586523  
	 165A      0.594464   166A      0.600151   167A      0.602201  
	 168A      0.606591   169A      0.615892   170A      0.621450  
	 171A      0.623751   172A      0.628243   173A      0.629083  
	 174A      0.636053   175A      0.645874   176A      0.647356  
	 177A      0.655906   178A      0.657420   179A      0.661605  
	 180A      0.670238   181A      0.680755   182A      0.684503  
	 183A      0.692255   184A      0.697882   185A      0.702278  
	 186A      0.707374   187A      0.713147   188A      0.722467  
	 189A      0.724983   190A      0.727747   191A      0.732148  
	 192A      0.738823   193A      0.746368   194A      0.751957  
	 195A      0.755527   196A      0.762560   197A      0.763300  
	 198A      0.766085   199A      0.782535   200A      0.787103  
	 201A      0.789416   202A      0.790769   203A      0.796431  
	 204A      0.805252   205A      0.807512   206A      0.814336  
	 207A      0.821658   208A      0.826624   209A      0.830859  
	 210A      0.832233   211A      0.845911   212A      0.850856  
	 213A      0.852882   214A      0.857986   215A      0.865481  
	 216A      0.867601   217A      0.881899   218A      0.884451  
	 219A      0.890796   220A      0.896044   221A      0.897680  
	 222A      0.905573   223A      0.915198   224A      0.915608  
	 225A      0.920509   226A      0.925929   227A      0.930423  
	 228A      0.934143   229A      0.939756   230A      0.944518  
	 231A      0.954220   232A      0.961252   233A      0.961641  
	 234A      0.964011   235A      0.968504   236A      0.978185  
	 237A      0.980701   238A      0.984976   239A      0.992848  
	 240A      0.998871   241A      1.005770   242A      1.008924  
	 243A      1.012195   244A      1.016556   245A      1.020326  
	 246A      1.024954   247A      1.031860   248A      1.039341  
	 249A      1.047413   250A      1.051355   251A      1.055603  
	 252A      1.061027   253A      1.071008   254A      1.072558  
	 255A      1.080944   256A      1.084900   257A      1.093806  
	 258A      1.096295   259A      1.101800   260A      1.106523  
	 261A      1.110246   262A      1.114543   263A      1.127547  
	 264A      1.129791   265A      1.131011   266A      1.135060  
	 267A      1.145179   268A      1.149726   269A      1.155791  
	 270A      1.161801   271A      1.166638   272A      1.168383  
	 273A      1.171935   274A      1.176062   275A      1.179281  
	 276A      1.185059   277A      1.191984   278A      1.194630  
	 279A      1.203672   280A      1.203832   281A      1.205538  
	 282A      1.214207   283A      1.218291   284A      1.221272  
	 285A      1.233973   286A      1.234634   287A      1.238939  
	 288A      1.244107   289A      1.255579   290A      1.257448  
	 291A      1.259871   292A      1.268050   293A      1.277915  
	 294A      1.282215   295A      1.287167   296A      1.294104  
	 297A      1.299277   298A      1.304804   299A      1.307715  
	 300A      1.317699   301A      1.318254   302A      1.323451  
	 303A      1.331398   304A      1.333387   305A      1.346709  
	 306A      1.357352   307A      1.363892   308A      1.366950  
	 309A      1.369886   310A      1.373604   311A      1.376402  
	 312A      1.386247   313A      1.391499   314A      1.400329  
	 315A      1.402924   316A      1.407253   317A      1.410499  
	 318A      1.415940   319A      1.424577   320A      1.426048  
	 321A      1.432605   322A      1.441506   323A      1.445585  
	 324A      1.455210   325A      1.457970   326A      1.458411  
	 327A      1.470991   328A      1.475474   329A      1.480763  
	 330A      1.491196   331A      1.496572   332A      1.508923  
	 333A      1.513088   334A      1.520721   335A      1.526445  
	 336A      1.533659   337A      1.539897   338A      1.544168  
	 339A      1.549063   340A      1.558813   341A      1.563390  
	 342A      1.570081   343A      1.575978   344A      1.578925  
	 345A      1.589651   346A      1.601281   347A      1.605084  
	 348A      1.611209   349A      1.617552   350A      1.620042  
	 351A      1.631893   352A      1.635596   353A      1.640271  
	 354A      1.645154   355A      1.656327   356A      1.659160  
	 357A      1.668673   358A      1.679443   359A      1.681741  
	 360A      1.682780   361A      1.690755   362A      1.702042  
	 363A      1.712710   364A      1.718576   365A      1.722947  
	 366A      1.724042   367A      1.735776   368A      1.742888  
	 369A      1.752521   370A      1.760903   371A      1.769297  
	 372A      1.776239   373A      1.781817   374A      1.795206  
	 375A      1.799301   376A      1.812669   377A      1.814752  
	 378A      1.820415   379A      1.834874   380A      1.838738  
	 381A      1.840503   382A      1.852096   383A      1.860999  
	 384A      1.866831   385A      1.871528   386A      1.876918  
	 387A      1.883726   388A      1.891891   389A      1.902729  
	 390A      1.911177   391A      1.914742   392A      1.921900  
	 393A      1.932119   394A      1.939507   395A      1.946521  
	 396A      1.953324   397A      1.957209   398A      1.969857  
	 399A      1.970813   400A      1.985973   401A      1.987441  
	 402A      1.999501   403A      2.009719   404A      2.018010  
	 405A      2.028441   406A      2.033419   407A      2.042198  
	 408A      2.050394   409A      2.054020   410A      2.058030  
	 411A      2.073675   412A      2.080440   413A      2.084506  
	 414A      2.096348   415A      2.104554   416A      2.110640  
	 417A      2.121521   418A      2.131252   419A      2.137825  
	 420A      2.140308   421A      2.149345   422A      2.159016  
	 423A      2.166622   424A      2.169867   425A      2.176636  
	 426A      2.191903   427A      2.196453   428A      2.204141  
	 429A      2.209263   430A      2.219435   431A      2.223353  
	 432A      2.227695   433A      2.237959   434A      2.243302  
	 435A      2.247747   436A      2.266461   437A      2.267558  
	 438A      2.279935   439A      2.287250   440A      2.296432  
	 441A      2.302326   442A      2.310288   443A      2.315278  
	 444A      2.332808   445A      2.341790   446A      2.347637  
	 447A      2.352108   448A      2.359431   449A      2.367620  
	 450A      2.380600   451A      2.388818   452A      2.397853  
	 453A      2.409530   454A      2.410685   455A      2.424734  
	 456A      2.437506   457A      2.449918   458A      2.453091  
	 459A      2.460723   460A      2.469182   461A      2.480895  
	 462A      2.496395   463A      2.501040   464A      2.508837  
	 465A      2.523500   466A      2.537940   467A      2.542440  
	 468A      2.555619   469A      2.559777   470A      2.562598  
	 471A      2.568967   472A      2.588080   473A      2.591698  
	 474A      2.599356   475A      2.603927   476A      2.612709  
	 477A      2.624634   478A      2.629118   479A      2.647623  
	 480A      2.649847   481A      2.657270   482A      2.667105  
	 483A      2.672379   484A      2.677996   485A      2.681708  
	 486A      2.688205   487A      2.698116   488A      2.710772  
	 489A      2.712219   490A      2.725863   491A      2.735007  
	 492A      2.741878   493A      2.746607   494A      2.757524  
	 495A      2.765438   496A      2.771474   497A      2.773823  
	 498A      2.783415   499A      2.785905   500A      2.796414  
	 501A      2.814369   502A      2.832819   503A      2.838911  
	 504A      2.843760   505A      2.857526   506A      2.862110  
	 507A      2.865158   508A      2.876645   509A      2.886473  
	 510A      2.892903   511A      2.897567   512A      2.905459  
	 513A      2.914222   514A      2.930404   515A      2.936201  
	 516A      2.951367   517A      2.956197   518A      2.965053  
	 519A      2.970882   520A      2.977236   521A      2.989075  
	 522A      3.001443   523A      3.016671   524A      3.023123  
	 525A      3.034271   526A      3.042525   527A      3.047931  
	 528A      3.062305   529A      3.063150   530A      3.078252  
	 531A      3.081201   532A      3.086102   533A      3.099337  
	 534A      3.113967   535A      3.129181   536A      3.130776  
	 537A      3.142424   538A      3.157731   539A      3.164184  
	 540A      3.179247   541A      3.196763   542A      3.203492  
	 543A      3.214114   544A      3.222952   545A      3.242902  
	 546A      3.253184   547A      3.256891   548A      3.270658  
	 549A      3.275945   550A      3.298764   551A      3.313692  
	 552A      3.327205   553A      3.332185   554A      3.341082  
	 555A      3.357051   556A      3.383187   557A      3.397828  
	 558A      3.402420   559A      3.408822   560A      3.421295  
	 561A      3.442038   562A      3.453839   563A      3.466943  
	 564A      3.482463   565A      3.500059   566A      3.510464  
	 567A      3.526216   568A      3.548297   569A      3.555114  
	 570A      3.568497   571A      3.574003   572A      3.598844  
	 573A      3.618501   574A      3.623707   575A      3.630697  
	 576A      3.656424   577A      3.671667   578A      3.676637  
	 579A      3.698402   580A      3.709129   581A      3.734434  
	 582A      3.743270   583A      3.757716   584A      3.762804  
	 585A      3.768046   586A      3.777134   587A      3.791383  
	 588A      3.802365   589A      3.812172   590A      3.819064  
	 591A      3.836089   592A      3.853983   593A      3.856622  
	 594A      3.871639   595A      3.881924   596A      3.893115  
	 597A      3.898283   598A      3.904921   599A      3.922916  
	 600A      3.928628   601A      3.946379   602A      3.962331  
	 603A      3.979921   604A      3.996289   605A      4.003295  
	 606A      4.013178   607A      4.029033   608A      4.053735  
	 609A      4.059538   610A      4.070495   611A      4.094333  
	 612A      4.097332   613A      4.124178   614A      4.135212  
	 615A      4.145525   616A      4.149996   617A      4.159963  
	 618A      4.187410   619A      4.194279   620A      4.201638  
	 621A      4.207620   622A      4.219793   623A      4.235086  
	 624A      4.244901   625A      4.252410   626A      4.260208  
	 627A      4.271980   628A      4.295811   629A      4.302351  
	 630A      4.320863   631A      4.338422   632A      4.354368  
	 633A      4.364778   634A      4.373677   635A      4.380689  
	 636A      4.384083   637A      4.391926   638A      4.402964  
	 639A      4.424497   640A      4.436934   641A      4.444770  
	 642A      4.452149   643A      4.459373   644A      4.470336  
	 645A      4.475817   646A      4.486498   647A      4.512043  
	 648A      4.524529   649A      4.529431   650A      4.538466  
	 651A      4.551734   652A      4.560626   653A      4.600562  
	 654A      4.611773   655A      4.621142   656A      4.649035  
	 657A      4.655060   658A      4.659596   659A      4.675716  
	 660A      4.699927   661A      4.718713   662A      4.724087  
	 663A      4.727580   664A      4.749144   665A      4.751068  
	 666A      4.773300   667A      4.779178   668A      4.790989  
	 669A      4.795746   670A      4.802604   671A      4.821995  
	 672A      4.838764   673A      4.844752   674A      4.858291  
	 675A      4.881327   676A      4.887834   677A      4.897673  
	 678A      4.899239   679A      4.916498   680A      4.926367  
	 681A      4.937738   682A      4.941198   683A      4.954463  
	 684A      4.971519   685A      4.974007   686A      4.987578  
	 687A      5.021024   688A      5.025991   689A      5.041671  
	 690A      5.055854   691A      5.064867   692A      5.069303  
	 693A      5.087445   694A      5.094024   695A      5.099902  
	 696A      5.120199   697A      5.134640   698A      5.151228  
	 699A      5.154083   700A      5.158831   701A      5.169285  
	 702A      5.183900   703A      5.195414   704A      5.209811  
	 705A      5.219453   706A      5.230740   707A      5.247541  
	 708A      5.258431   709A      5.271051   710A      5.280444  
	 711A      5.295787   712A      5.314757   713A      5.335476  
	 714A      5.346472   715A      5.355628   716A      5.373636  
	 717A      5.378413   718A      5.387306   719A      5.398362  
	 720A      5.421396   721A      5.424427   722A      5.434939  
	 723A      5.457015   724A      5.474872   725A      5.480044  
	 726A      5.508539   727A      5.515586   728A      5.535318  
	 729A      5.560268   730A      5.566495   731A      5.571527  
	 732A      5.579475   733A      5.610913   734A      5.617685  
	 735A      5.627205   736A      5.636181   737A      5.642295  
	 738A      5.653920   739A      5.669487   740A      5.671843  
	 741A      5.698785   742A      5.713996   743A      5.726657  
	 744A      5.751474   745A      5.771916   746A      5.791075  
	 747A      5.811006   748A      5.824931   749A      5.833105  
	 750A      5.849804   751A      5.862027   752A      5.888313  
	 753A      5.909516   754A      5.915524   755A      5.949734  
	 756A      5.963251   757A      5.969869   758A      5.981273  
	 759A      6.003060   760A      6.021484   761A      6.041979  
	 762A      6.052368   763A      6.093476   764A      6.107596  
	 765A      6.111875   766A      6.136011   767A      6.149641  
	 768A      6.168971   769A      6.198907   770A      6.200643  
	 771A      6.217067   772A      6.271645   773A      6.283787  
	 774A      6.293532   775A      6.311408   776A      6.359493  
	 777A      6.394006   778A      6.464236   779A      6.490750  
	 780A      6.510798   781A      6.544106   782A      6.583221  
	 783A      6.589940   784A      6.632003   785A      6.635643  
	 786A      6.653498   787A      6.667045   788A      6.673329  
	 789A      6.712143   790A      6.725184   791A      6.756058  
	 792A      6.774187   793A      6.795690   794A      6.799297  
	 795A      6.818865   796A      6.826340   797A      6.830597  
	 798A      6.846810   799A      6.867621   800A      6.874857  
	 801A      6.889727   802A      6.904324   803A      6.920767  
	 804A      6.954701   805A      6.981137   806A      6.988152  
	 807A      7.009700   808A      7.040454   809A      7.056976  
	 810A      7.090145   811A      7.114841   812A      7.173851  
	 813A      7.215108   814A      7.228870   815A      7.233852  
	 816A      7.250781   817A      7.312589   818A      7.326847  
	 819A      7.390721   820A      7.434670   821A      7.452236  
	 822A      7.471331   823A      7.482493   824A      7.494649  
	 825A      7.508680   826A      7.513829   827A      7.535854  
	 828A      7.610852   829A      7.628552   830A      7.642597  
	 831A      7.668957   832A      7.671398   833A      7.675056  
	 834A      7.701491   835A      7.714070   836A      7.736040  
	 837A      7.755501   838A      7.775889   839A      7.800211  
	 840A      7.823246   841A      7.833683   842A      7.851380  
	 843A      7.876300   844A      7.885874   845A      7.922177  
	 846A      7.933616   847A      7.944936   848A      7.966268  
	 849A      7.988771   850A      8.004293   851A      8.016214  
	 852A      8.026843   853A      8.041021   854A      8.060951  
	 855A      8.064717   856A      8.072540   857A      8.088577  
	 858A      8.131126   859A      8.215721   860A      8.264589  
	 861A      8.313109   862A      8.351185   863A      8.374010  
	 864A      8.454165   865A      8.607392   866A      8.712670  
	 867A      8.750133   868A      8.771179   869A      8.938502  
	 870A      9.065436   871A      9.129981   872A      9.249964  
	 873A      9.312599   874A      9.571592   875A      9.670711  
	 876A      9.736752   877A      9.970301   878A      9.997794  
	 879A     10.034337   880A     10.090069   881A     10.125288  
	 882A     10.316842   883A     10.324540   884A     10.360841  
	 885A     10.451287   886A     10.501734   887A     10.572538  
	 888A     10.598340   889A     11.049091   890A     11.295079  
	 891A     11.385821   892A     11.541389   893A     12.069687  
	 894A     12.119775   895A     12.132663   896A     12.197728  
	 897A     12.439934   898A     12.570482   899A     12.729854  
	 900A     12.920218   901A     13.455795   902A     13.708069  
	 903A     14.230476   904A     14.279401   905A     16.314026  
	 906A     16.637021   907A     16.831975   908A     17.270719  
	 909A     18.603612   910A     20.033756   911A     20.497430  
	 912A     21.106196   913A     52.437373   914A     52.541995  
	 915A     55.360122   916A     56.148588   917A     61.401493  
	 918A     62.076540   919A     69.846539   920A     70.584303  

	Final Occupation by Irrep:
	          A 
	DOCC [    29 ]

  Energy converged.

  @RHF Final Energy:  -412.62417049334033

   => Energetics <=

    Nuclear Repulsion Energy =            357.1602736772267690
    One-Electron Energy =               -1270.6956089751233776
    Two-Electron Energy =                 500.9111648045571314
    DFT Exchange-Correlation Energy =       0.0000000000000000
    Empirical Dispersion Energy =           0.0000000000000000
    Total Energy =                       -412.6241704933394772



Properties will be evaluated at   0.000000,   0.000000,   0.000000 Bohr
  ==> Properties <==


Properties computed using the SCF density density matrix
  Nuclear Dipole Moment: (a.u.)
     X:  -164.3437      Y:   -26.0772      Z:    -2.9740

  Electronic Dipole Moment: (a.u.)
     X:   163.7753      Y:    27.5688      Z:     1.8019

  Dipole Moment: (a.u.)
     X:    -0.5684      Y:     1.4916      Z:    -1.1721     Total:     1.9804

  Dipole Moment: (Debye)
     X:    -1.4448      Y:     3.7913      Z:    -2.9792     Total:     5.0336


  Saving occupied orbitals to File 180.

  Saving SAPT 2-MONOMER_B file.

*** tstop() called on node35.bme.utexas.edu at Thu Nov  7 02:27:24 2013
Module time:
	user time   =    2039.96 seconds =      34.00 minutes
	system time =      28.83 seconds =       0.48 minutes
	total time  =        305 seconds =       5.08 minutes
Total time:
	user time   =    6773.58 seconds =     112.89 minutes
	system time =     101.30 seconds =       1.69 minutes
	total time  =       1038 seconds =      17.30 minutes
  No DF_BASIS_SAPT auxiliary basis selected, defaulting to aug-cc-pvtz-ri

  //>>>>>>>>>>>>>>>>>>>>>>>>>>>>>>>>>>>//
  //               SAPT2+              //
  //<<<<<<<<<<<<<<<<<<<<<<<<<<<<<<<<<<<//


*** tstart() called on node35.bme.utexas.edu
*** at Thu Nov  7 02:27:24 2013

        SAPT2+  
    Ed Hohenstein
     6 June 2009

      Orbital Information
  --------------------------
    NSO        =       920
    NMO        =       920
    NRI        =      2064
    NOCC A     =        29
    NOCC B     =        29
    FOCC A     =         8
    FOCC B     =         8
    NVIR A     =       891
    NVIR B     =       891

    Estimated memory usage: 29132.3 MB

    Elst10,r            =    -0.019183389372 H
    Exch10 (S^2)        =     0.027412781888 H
    Exch10              =     0.027481533222 H
    Ind20,r (A<-B)      =    -0.006065920992 H
    Ind20,r (B<-A)      =    -0.006065920984 H
    Ind20,r             =    -0.012131841976 H
    Exch-Ind20,r (A<-B) =     0.004855767806 H
    Exch-Ind20,r (B<-A) =     0.004855767798 H
    Exch-Ind20,r        =     0.009711535604 H
    Disp20              =    -0.028006237359 H
    Exch-Disp20         =     0.003311675448 H
    Elst12,r            =     0.000045301045 H
    Exch11              =     0.000540133342 H
    Exch12              =     0.001703391842 H
    Ind22               =    -0.000722493406 H
    Disp21              =     0.007126276511 H
    Disp22 (SDQ)        =    -0.000993608148 H

    (i =   1 of  21)      44438 seconds
    (i =   2 of  21)      87291 seconds
    (i =   3 of  21)     130559 seconds
    (i =   4 of  21)     173833 seconds
    (i =   5 of  21)     217092 seconds
    (i =   6 of  21)     260154 seconds
    (i =   7 of  21)     303339 seconds
    (i =   8 of  21)     346577 seconds
    (i =   9 of  21)     390201 seconds
    (i =  10 of  21)     433652 seconds
    (i =  11 of  21)     478399 seconds
    (i =  12 of  21)     522316 seconds
    (i =  13 of  21)     565930 seconds
    (i =  14 of  21)     609933 seconds
    (i =  15 of  21)     653252 seconds
    (i =  16 of  21)     696819 seconds
    (i =  17 of  21)     739969 seconds
    (i =  18 of  21)     783299 seconds
    (i =  19 of  21)     825144 seconds
    (i =  20 of  21)     866803 seconds
    (i =  21 of  21)     911065 seconds

    Disp220 (T)         =    -0.003123039257 H

    (i =   1 of  21)      56058 seconds
    (i =   2 of  21)     123910 seconds
    (i =   3 of  21)     195056 seconds
    (i =   4 of  21)     260509 seconds
    (i =   5 of  21)     329915 seconds
    (i =   6 of  21)     384417 seconds
    (i =   7 of  21)     438495 seconds
    (i =   8 of  21)     492507 seconds
    (i =   9 of  21)     545790 seconds
    (i =  10 of  21)     606848 seconds
    (i =  11 of  21)     670107 seconds
    (i =  12 of  21)     717528 seconds
    (i =  13 of  21)     753784 seconds
    (i =  14 of  21)     780747 seconds
    (i =  15 of  21)     808897 seconds
    (i =  16 of  21)     837292 seconds
    (i =  17 of  21)     866450 seconds
    (i =  18 of  21)     895245 seconds
    (i =  19 of  21)     922415 seconds
    (i =  20 of  21)     951157 seconds
    (i =  21 of  21)     979170 seconds

    Disp202 (T)         =    -0.003123039258 H

    Disp22 (T)          =    -0.006246078515 H

    SAPT Results  
  -----------------------------------------------------------------------
    Electrostatics         -19.13808833 mH     -12.00933224 kcal mol^-1
      Elst10,r             -19.18338937 mH     -12.03775907 kcal mol^-1
      Elst12,r               0.04530104 mH       0.02842684 kcal mol^-1

    Exchange                29.72505841 mH      18.65275654 kcal mol^-1
      Exch10                27.48153322 mH      17.24492317 kcal mol^-1
      Exch10(S^2)           27.41278189 mH      17.20178106 kcal mol^-1
      Exch11(S^2)            0.54013334 mH       0.33893880 kcal mol^-1
      Exch12(S^2)            1.70339184 mH       1.06889456 kcal mol^-1

    Induction               -3.96957020 mH      -2.49094301 kcal mol^-1
      Ind20,r              -12.13184198 mH      -7.61284609 kcal mol^-1
      Ind22                 -0.72249341 mH      -0.45337148 kcal mol^-1
      Exch-Ind20,r           9.71153560 mH       6.09408085 kcal mol^-1
      Exch-Ind22             0.57835574 mH       0.36292372 kcal mol^-1
      delta HF,r (2)        -1.40512616 mH      -0.88173002 kcal mol^-1

    Dispersion             -24.80797206 mH     -15.56723815 kcal mol^-1
      Disp20               -28.00623736 mH     -17.57418000 kcal mol^-1
      Disp21                 7.12627651 mH       4.47180621 kcal mol^-1
      Disp22 (SDQ)          -0.99360815 mH      -0.62349855 kcal mol^-1
      Disp22 (T)            -6.24607852 mH      -3.91947361 kcal mol^-1
      Exch-Disp20            3.31167545 mH       2.07810780 kcal mol^-1

    Total HF                 4.47271131 mH       2.80666884 kcal mol^-1
    Total SAPT0            -20.22185060 mH     -12.68940336 kcal mol^-1
    Total SAPT2            -18.07716203 mH     -11.34359091 kcal mol^-1
    Total SAPT2+           -18.19057219 mH     -11.41475686 kcal mol^-1

*** tstop() called on node35.bme.utexas.edu at Sat Nov 30 17:39:20 2013
Module time:
	user time   = 4269324.75 seconds =   71155.41 minutes
	system time = 6015896.47 seconds =  100264.94 minutes
	total time  =    2041916 seconds =   34031.93 minutes
Total time:
	user time   = 4276098.34 seconds =   71268.31 minutes
	system time = 6015997.77 seconds =  100266.63 minutes
	total time  =    2042954 seconds =   34049.23 minutes

*** PSI4 exiting successfully. Buy a developer a beer!
