    -----------------------------------------------------------------------
          PSI4: An Open-Source Ab Initio Electronic Structure Package
                              PSI 4.0.0-beta5+ Driver

               Git: Rev {master} 9e91a950ecfbbc1aef4f6938f61ae7ae8c17c46b

    J. M. Turney, A. C. Simmonett, R. M. Parrish, E. G. Hohenstein,
    F. A. Evangelista, J. T. Fermann, B. J. Mintz, L. A. Burns, J. J. Wilke,
    M. L. Abrams, N. J. Russ, M. L. Leininger, C. L. Janssen, E. T. Seidl,
    W. D. Allen, H. F. Schaefer, R. A. King, E. F. Valeev, C. D. Sherrill,
    and T. D. Crawford, WIREs Comput. Mol. Sci. 2, 556-565 (2012)
    (doi: 10.1002/wcms.93)

                         Additional Contributions by
    A. E. DePrince, M. Saitow, U. Bozkaya, A. Yu. Sokolov
    -----------------------------------------------------------------------

    Process ID:  12320
    PSI4DATADIR: /home/qwang/software/psi4_git/install_psi4/share/psi

    Using LocalCommunicator (Number of processes = 1)

    Memory level set to 256.000 MB

  ==> Input File <==

--------------------------------------------------------------------------
#psi4
#
memory 48 gb

molecule Uracil_Uracil {
0 1
    N     1.376901114     0.839747467     0.734624939
    H     1.051812405     1.386223848     1.523355628
    C     1.308982712     1.457529813    -0.520654996
    O     0.920561362     2.611077765    -0.625976731
    N     2.011422932    -1.213208303    -0.098071819
    H     1.727285511     0.990842685    -2.611995560
    C     2.025736871    -0.697171229    -1.364397399
    H     2.297516982    -1.391060038    -2.145645314
    C     1.714512349     0.591937798    -1.612487223
    H     2.129454216    -2.201520905     0.056829125
    C     1.645945031    -0.485205977     1.018718301
    O     1.561116018    -0.971816376     2.129809048
--
0 1
    N    -0.824405179    -0.744362097     0.734624939
    H    -0.499316470    -1.290838478     1.523355628
    C    -0.756486777    -1.362144443    -0.520654996
    O    -0.368065427    -2.515692395    -0.625976731
    N    -1.458926997     1.308593673    -0.098071819
    H    -1.174789576    -0.895457315    -2.611995560
    C    -1.473240936     0.792556599    -1.364397399
    H    -1.745021047     1.486445408    -2.145645314
    C    -1.162016414    -0.496552428    -1.612487223
    H    -1.576958281     2.296906275     0.056829125
    C    -1.093449096     0.580591347     1.018718301
    O    -1.008620083     1.067201746     2.129809048
units angstrom
no_reorient  #important for SAPT in psi4, default
symmetry c1  #important for SAPT in psi4, default
}

set {
basis aug-cc-pVTZ
scf_type DF
freeze_core True
}
energy('sapt2+')
--------------------------------------------------------------------------

  Memory set to  48.000 GiB by Python script.

  //>>>>>>>>>>>>>>>>>>>>>>>>>>>>>>>>>>>//
  //              Dimer HF             //
  //<<<<<<<<<<<<<<<<<<<<<<<<<<<<<<<<<<<//


  No DF_BASIS_SCF auxiliary basis selected, defaulting to aug-cc-pvtz-jkfit


*** tstart() called on node36.bme.utexas.edu
*** at Tue May 20 11:29:59 2014


         ---------------------------------------------------------
                                   SCF
            by Justin Turney, Rob Parrish, and Andy Simmonett
                              RHF Reference
                        8 Threads,  48000 MiB Core
         ---------------------------------------------------------

  ==> Geometry <==

    Molecular point group: c1
    Full point group: C2

    Geometry (in Angstrom), charge = 0, multiplicity = 1:

       Center              X                  Y                   Z       
    ------------   -----------------  -----------------  -----------------
           N          1.100653146500     0.792054782000     0.734453602703
           H          0.775564437500     1.338531163000     1.523184291703
           C          1.032734744500     1.409837128000    -0.520826332297
           O          0.644313394500     2.563385080000    -0.626148067297
           N          1.735174964500    -1.260900988000    -0.098243155297
           H          1.451037543500     0.943150000000    -2.612166896297
           C          1.749488903500    -0.744863914000    -1.364568735297
           H          2.021269014500    -1.438752723000    -2.145816650297
           C          1.438264381500     0.544245113000    -1.612658559297
           H          1.853206248500    -2.249213590000     0.056657788703
           C          1.369697063500    -0.532898662000     1.018546964703
           O          1.284868050500    -1.019509061000     2.129637711703
           N         -1.100653146500    -0.792054782000     0.734453602703
           H         -0.775564437500    -1.338531163000     1.523184291703
           C         -1.032734744500    -1.409837128000    -0.520826332297
           O         -0.644313394500    -2.563385080000    -0.626148067297
           N         -1.735174964500     1.260900988000    -0.098243155297
           H         -1.451037543500    -0.943150000000    -2.612166896297
           C         -1.749488903500     0.744863914000    -1.364568735297
           H         -2.021269014500     1.438752723000    -2.145816650297
           C         -1.438264381500    -0.544245113000    -1.612658559297
           H         -1.853206248500     2.249213590000     0.056657788703
           C         -1.369697063500     0.532898662000     1.018546964703
           O         -1.284868050500     1.019509061000     2.129637711703

  Running in c1 symmetry.


	Rotational constants (cm^-1):
	A =    0.02380    B =    0.02192   C =    0.02110

	Rotational constants (MHz):
	A =  713.51356    B =  657.08341   C =  632.55540
  Nuclear repulsion = 1220.825509842183919

  Charge       = 0
  Multiplicity = 1
  Electrons    = 116
  Nalpha       = 58
  Nbeta        = 58

  ==> Algorithm <==

  SCF Algorithm Type is DF.
  DIIS enabled.
  MOM disabled.
  Fractional occupation disabled.
  Guess Type is CORE.
  Energy threshold   = 1.00e-08
  Density threshold  = 1.00e-08
  Integral threshold = 0.00e+00

  ==> Primary Basis <==

  Basis Set: AUG-CC-PVTZ
    Number of shells: 296
    Number of basis function: 920
    Number of Cartesian functions: 1080
    Spherical Harmonics?: true
    Max angular momentum: 3

  ==> Pre-Iterations <==

   -------------------------------------------------------
    Irrep   Nso     Nmo     Nalpha   Nbeta   Ndocc  Nsocc
   -------------------------------------------------------
     A        920     920       0       0       0       0
   -------------------------------------------------------
    Total     920     920      58      58      58       0
   -------------------------------------------------------

 OEINTS: Wrapper to libmints.
   by Justin Turney

   Calculation information:
      Number of atoms:                  24
      Number of AO shells:             296
      Number of SO shells:             296
      Number of primitives:            568
      Number of atomic orbitals:      1080
      Number of basis functions:       920

      Number of irreps:                  1
      Number of functions per irrep: [ 920 ]

      Overlap, kinetic, potential, dipole, and quadrupole integrals
        stored in file 35.

  ==> Integral Setup <==

  ==> DFJK: Density-Fitted J/K Matrices <==

    J tasked:                  Yes
    K tasked:                  Yes
    wK tasked:                  No
    OpenMP threads:              8
    Integrals threads:           8
    Memory (MB):             34332
    Algorithm:                Core
    Integral Cache:           SAVE
    Schwarz Cutoff:          1E-12
    Fitting Condition:       1E-12

   => Auxiliary Basis Set <=

  Basis Set: aug-cc-pvtz-jkfit
    Number of shells: 592
    Number of basis function: 2032
    Number of Cartesian functions: 2536
    Spherical Harmonics?: true
    Max angular momentum: 4

  Minimum eigenvalue in the overlap matrix is 1.5712768686E-06.
  Using Symmetric Orthogonalization.
  SCF Guess: Core (One-Electron) Hamiltonian.

  ==> Iterations <==

                           Total Energy        Delta E     RMS |[F,P]|

   @DF-RHF iter   1:  -581.52911990520533   -5.81529e+02   2.42969e-02 
   @DF-RHF iter   2:  -551.55999955748325    2.99691e+01   1.49849e-02 DIIS
   @DF-RHF iter   3:  -574.99648925198903   -2.34365e+01   1.80955e-02 DIIS
   @DF-RHF iter   4:  -771.98192360479106   -1.96985e+02   1.01435e-02 DIIS
   @DF-RHF iter   5:  -772.67518443586937   -6.93261e-01   8.63549e-03 DIIS
   @DF-RHF iter   6:  -823.54730394507237   -5.08721e+01   2.12816e-03 DIIS
   @DF-RHF iter   7:  -824.80474345264906   -1.25744e+00   1.13700e-03 DIIS
   @DF-RHF iter   8:  -825.17529280160875   -3.70549e-01   2.58908e-04 DIIS
   @DF-RHF iter   9:  -825.19992198672912   -2.46292e-02   7.76893e-05 DIIS
   @DF-RHF iter  10:  -825.20349396059032   -3.57197e-03   2.78219e-05 DIIS
   @DF-RHF iter  11:  -825.20396715553443   -4.73195e-04   9.01384e-06 DIIS
   @DF-RHF iter  12:  -825.20405911149896   -9.19560e-05   5.17323e-06 DIIS
   @DF-RHF iter  13:  -825.20408517021997   -2.60587e-05   2.64759e-06 DIIS
   @DF-RHF iter  14:  -825.20409346343149   -8.29321e-06   7.82479e-07 DIIS
   @DF-RHF iter  15:  -825.20409414158985   -6.78158e-07   2.65740e-07 DIIS
   @DF-RHF iter  16:  -825.20409422510124   -8.35114e-08   1.14124e-07 DIIS
   @DF-RHF iter  17:  -825.20409423810156   -1.30003e-08   3.98097e-08 DIIS
   @DF-RHF iter  18:  -825.20409424020249   -2.10093e-09   1.99673e-08 DIIS
   @DF-RHF iter  19:  -825.20409424062859   -4.26098e-10   6.82769e-09 DIIS

  ==> Post-Iterations <==

	Orbital Energies (a.u.)
	-----------------------

	Doubly Occupied:                                                      

	   1A    -20.548937     2A    -20.548937     3A    -20.547701  
	   4A    -20.547700     5A    -15.639808     6A    -15.639808  
	   7A    -15.625587     8A    -15.625577     9A    -11.421032  
	  10A    -11.421031    11A    -11.388325    12A    -11.388324  
	  13A    -11.339481    14A    -11.339479    15A    -11.256752  
	  16A    -11.256749    17A     -1.450998    18A     -1.433184  
	  19A     -1.409336    20A     -1.405623    21A     -1.315572  
	  22A     -1.315512    23A     -1.253975    24A     -1.246637  
	  25A     -1.096543    26A     -1.086196    27A     -0.937973  
	  28A     -0.934493    29A     -0.906225    30A     -0.903696  
	  31A     -0.809686    32A     -0.807040    33A     -0.770076  
	  34A     -0.766110    35A     -0.724637    36A     -0.717567  
	  37A     -0.711875    38A     -0.686218    39A     -0.681208  
	  40A     -0.657258    41A     -0.655077    42A     -0.634869  
	  43A     -0.619039    44A     -0.617508    45A     -0.606865  
	  46A     -0.605069    47A     -0.601633    48A     -0.573256  
	  49A     -0.526730    50A     -0.509556    51A     -0.489715  
	  52A     -0.484065    53A     -0.458836    54A     -0.456154  
	  55A     -0.447094    56A     -0.437335    57A     -0.398091  
	  58A     -0.346163  

	Virtual:                                                              

	  59A      0.017235    60A      0.024895    61A      0.035823  
	  62A      0.036220    63A      0.047123    64A      0.049286  
	  65A      0.054769    66A      0.061455    67A      0.065008  
	  68A      0.071253    69A      0.074230    70A      0.082704  
	  71A      0.086679    72A      0.089459    73A      0.095073  
	  74A      0.098034    75A      0.100555    76A      0.104852  
	  77A      0.106799    78A      0.109333    79A      0.114782  
	  80A      0.118985    81A      0.126005    82A      0.129836  
	  83A      0.131442    84A      0.132796    85A      0.135130  
	  86A      0.139515    87A      0.139826    88A      0.143389  
	  89A      0.144720    90A      0.149230    91A      0.149555  
	  92A      0.152049    93A      0.162113    94A      0.164616  
	  95A      0.165280    96A      0.173458    97A      0.189757  
	  98A      0.191899    99A      0.193407   100A      0.202241  
	 101A      0.204429   102A      0.213903   103A      0.215147  
	 104A      0.221929   105A      0.222904   106A      0.227155  
	 107A      0.236148   108A      0.240093   109A      0.243377  
	 110A      0.243885   111A      0.251912   112A      0.253583  
	 113A      0.254818   114A      0.260980   115A      0.266231  
	 116A      0.266828   117A      0.273260   118A      0.278379  
	 119A      0.282918   120A      0.283976   121A      0.286161  
	 122A      0.291653   123A      0.292630   124A      0.295908  
	 125A      0.296292   126A      0.306915   127A      0.312536  
	 128A      0.312800   129A      0.316858   130A      0.324045  
	 131A      0.329204   132A      0.332537   133A      0.333768  
	 134A      0.338041   135A      0.338067   136A      0.341391  
	 137A      0.350561   138A      0.355062   139A      0.355635  
	 140A      0.361781   141A      0.366729   142A      0.368715  
	 143A      0.371215   144A      0.372558   145A      0.379934  
	 146A      0.385438   147A      0.391135   148A      0.399497  
	 149A      0.400520   150A      0.402262   151A      0.403522  
	 152A      0.412239   153A      0.416505   154A      0.418028  
	 155A      0.428124   156A      0.433524   157A      0.434689  
	 158A      0.443721   159A      0.446556   160A      0.447861  
	 161A      0.452079   162A      0.455622   163A      0.460874  
	 164A      0.470890   165A      0.471817   166A      0.473654  
	 167A      0.477742   168A      0.486012   169A      0.486780  
	 170A      0.490875   171A      0.492614   172A      0.499465  
	 173A      0.501184   174A      0.503727   175A      0.507250  
	 176A      0.514654   177A      0.514860   178A      0.521646  
	 179A      0.523958   180A      0.523994   181A      0.530633  
	 182A      0.530764   183A      0.535249   184A      0.537431  
	 185A      0.539201   186A      0.551719   187A      0.553561  
	 188A      0.556911   189A      0.568541   190A      0.571519  
	 191A      0.574063   192A      0.575996   193A      0.583781  
	 194A      0.586319   195A      0.588297   196A      0.593733  
	 197A      0.598913   198A      0.604211   199A      0.605815  
	 200A      0.614820   201A      0.617325   202A      0.629552  
	 203A      0.630272   204A      0.633169   205A      0.636059  
	 206A      0.647230   207A      0.650518   208A      0.654147  
	 209A      0.657261   210A      0.658200   211A      0.667341  
	 212A      0.681374   213A      0.689094   214A      0.689136  
	 215A      0.696100   216A      0.700742   217A      0.716939  
	 218A      0.717635   219A      0.719757   220A      0.723015  
	 221A      0.730280   222A      0.735527   223A      0.737249  
	 224A      0.747059   225A      0.749551   226A      0.753629  
	 227A      0.758871   228A      0.764127   229A      0.767607  
	 230A      0.771016   231A      0.779360   232A      0.787480  
	 233A      0.795627   234A      0.803484   235A      0.807019  
	 236A      0.814301   237A      0.814669   238A      0.820807  
	 239A      0.825990   240A      0.827626   241A      0.831484  
	 242A      0.837582   243A      0.838355   244A      0.844686  
	 245A      0.854058   246A      0.854801   247A      0.863371  
	 248A      0.872371   249A      0.880692   250A      0.883129  
	 251A      0.886314   252A      0.895297   253A      0.899469  
	 254A      0.901398   255A      0.902056   256A      0.908387  
	 257A      0.922074   258A      0.934171   259A      0.935242  
	 260A      0.937033   261A      0.941795   262A      0.952183  
	 263A      0.954424   264A      0.959945   265A      0.964488  
	 266A      0.966184   267A      0.966844   268A      0.972270  
	 269A      0.978859   270A      0.981790   271A      0.992583  
	 272A      0.993486   273A      0.998110   274A      1.001436  
	 275A      1.008269   276A      1.013602   277A      1.019547  
	 278A      1.030100   279A      1.030390   280A      1.042031  
	 281A      1.042854   282A      1.045290   283A      1.048726  
	 284A      1.057422   285A      1.062209   286A      1.069321  
	 287A      1.081496   288A      1.085061   289A      1.095772  
	 290A      1.100442   291A      1.106877   292A      1.111827  
	 293A      1.112819   294A      1.115363   295A      1.118235  
	 296A      1.125452   297A      1.137233   298A      1.140635  
	 299A      1.152284   300A      1.153053   301A      1.155051  
	 302A      1.160631   303A      1.163245   304A      1.173807  
	 305A      1.175669   306A      1.187801   307A      1.189156  
	 308A      1.194732   309A      1.198902   310A      1.203461  
	 311A      1.205652   312A      1.210365   313A      1.212084  
	 314A      1.216822   315A      1.222594   316A      1.228336  
	 317A      1.233907   318A      1.240199   319A      1.241304  
	 320A      1.247977   321A      1.258653   322A      1.259765  
	 323A      1.263620   324A      1.268837   325A      1.281192  
	 326A      1.289852   327A      1.290022   328A      1.297867  
	 329A      1.304559   330A      1.307441   331A      1.310025  
	 332A      1.323138   333A      1.325221   334A      1.330017  
	 335A      1.336341   336A      1.341825   337A      1.347663  
	 338A      1.357788   339A      1.366818   340A      1.368352  
	 341A      1.368543   342A      1.382178   343A      1.382402  
	 344A      1.388342   345A      1.396710   346A      1.405927  
	 347A      1.409243   348A      1.416751   349A      1.421578  
	 350A      1.422323   351A      1.429445   352A      1.436341  
	 353A      1.438657   354A      1.450544   355A      1.453267  
	 356A      1.462454   357A      1.464292   358A      1.476819  
	 359A      1.477379   360A      1.482651   361A      1.490040  
	 362A      1.494143   363A      1.502765   364A      1.507391  
	 365A      1.513417   366A      1.514355   367A      1.529118  
	 368A      1.533483   369A      1.538810   370A      1.544918  
	 371A      1.551686   372A      1.563203   373A      1.565838  
	 374A      1.567883   375A      1.575897   376A      1.577983  
	 377A      1.579972   378A      1.585992   379A      1.598723  
	 380A      1.607559   381A      1.607941   382A      1.618532  
	 383A      1.620077   384A      1.626790   385A      1.629223  
	 386A      1.632203   387A      1.635372   388A      1.659815  
	 389A      1.662290   390A      1.669964   391A      1.679469  
	 392A      1.679816   393A      1.698960   394A      1.702885  
	 395A      1.703781   396A      1.716451   397A      1.719403  
	 398A      1.730825   399A      1.736869   400A      1.748444  
	 401A      1.755400   402A      1.759817   403A      1.764060  
	 404A      1.773012   405A      1.786118   406A      1.796635  
	 407A      1.798903   408A      1.803059   409A      1.804252  
	 410A      1.809152   411A      1.809978   412A      1.826520  
	 413A      1.828802   414A      1.840645   415A      1.846983  
	 416A      1.853771   417A      1.861465   418A      1.864264  
	 419A      1.869058   420A      1.889504   421A      1.891421  
	 422A      1.901817   423A      1.911328   424A      1.914248  
	 425A      1.924980   426A      1.926357   427A      1.943233  
	 428A      1.948012   429A      1.954999   430A      1.962971  
	 431A      1.971938   432A      1.983819   433A      1.986906  
	 434A      1.994125   435A      1.998281   436A      2.007411  
	 437A      2.020763   438A      2.024936   439A      2.033452  
	 440A      2.043173   441A      2.053772   442A      2.054508  
	 443A      2.061816   444A      2.064398   445A      2.064655  
	 446A      2.080553   447A      2.086910   448A      2.099586  
	 449A      2.103236   450A      2.114273   451A      2.131720  
	 452A      2.133995   453A      2.139509   454A      2.152354  
	 455A      2.153066   456A      2.155988   457A      2.166645  
	 458A      2.175886   459A      2.183332   460A      2.194070  
	 461A      2.198764   462A      2.204027   463A      2.217128  
	 464A      2.227988   465A      2.233739   466A      2.234045  
	 467A      2.241369   468A      2.253568   469A      2.278960  
	 470A      2.284286   471A      2.289952   472A      2.300289  
	 473A      2.302845   474A      2.310149   475A      2.312979  
	 476A      2.317554   477A      2.334916   478A      2.345219  
	 479A      2.345599   480A      2.361531   481A      2.366924  
	 482A      2.385023   483A      2.391726   484A      2.398078  
	 485A      2.408123   486A      2.413304   487A      2.430016  
	 488A      2.440409   489A      2.448644   490A      2.449167  
	 491A      2.455135   492A      2.457546   493A      2.497763  
	 494A      2.497798   495A      2.512338   496A      2.514532  
	 497A      2.530666   498A      2.540001   499A      2.546039  
	 500A      2.546659   501A      2.560885   502A      2.567733  
	 503A      2.573568   504A      2.574790   505A      2.588144  
	 506A      2.590930   507A      2.606903   508A      2.607789  
	 509A      2.618529   510A      2.619213   511A      2.633565  
	 512A      2.640129   513A      2.644945   514A      2.648958  
	 515A      2.658184   516A      2.677017   517A      2.677964  
	 518A      2.691651   519A      2.700705   520A      2.708050  
	 521A      2.713742   522A      2.728218   523A      2.728918  
	 524A      2.739271   525A      2.741693   526A      2.758110  
	 527A      2.769131   528A      2.774427   529A      2.782382  
	 530A      2.786714   531A      2.795082   532A      2.796544  
	 533A      2.812640   534A      2.820840   535A      2.830996  
	 536A      2.842960   537A      2.851710   538A      2.872437  
	 539A      2.876135   540A      2.882583   541A      2.888475  
	 542A      2.892315   543A      2.908993   544A      2.916860  
	 545A      2.921489   546A      2.929750   547A      2.931367  
	 548A      2.948244   549A      2.972427   550A      2.979247  
	 551A      2.992230   552A      3.007965   553A      3.020172  
	 554A      3.021492   555A      3.032365   556A      3.033104  
	 557A      3.046119   558A      3.051626   559A      3.060769  
	 560A      3.065015   561A      3.066922   562A      3.106270  
	 563A      3.113707   564A      3.130959   565A      3.131347  
	 566A      3.142180   567A      3.146882   568A      3.150598  
	 569A      3.172039   570A      3.174995   571A      3.210035  
	 572A      3.215915   573A      3.223826   574A      3.224868  
	 575A      3.264042   576A      3.276101   577A      3.283012  
	 578A      3.292462   579A      3.306993   580A      3.322542  
	 581A      3.325132   582A      3.340395   583A      3.359234  
	 584A      3.372995   585A      3.373279   586A      3.400994  
	 587A      3.412670   588A      3.422739   589A      3.435320  
	 590A      3.449946   591A      3.464246   592A      3.474257  
	 593A      3.498958   594A      3.501420   595A      3.503400  
	 596A      3.519492   597A      3.534982   598A      3.545389  
	 599A      3.549405   600A      3.568737   601A      3.581917  
	 602A      3.589633   603A      3.600569   604A      3.605024  
	 605A      3.608969   606A      3.611975   607A      3.645974  
	 608A      3.650006   609A      3.673983   610A      3.690719  
	 611A      3.697616   612A      3.707017   613A      3.712562  
	 614A      3.719220   615A      3.734471   616A      3.746594  
	 617A      3.759545   618A      3.776407   619A      3.797402  
	 620A      3.817404   621A      3.817618   622A      3.829383  
	 623A      3.831348   624A      3.843773   625A      3.853806  
	 626A      3.866517   627A      3.870713   628A      3.872003  
	 629A      3.882612   630A      3.908986   631A      3.918708  
	 632A      3.925888   633A      3.931232   634A      3.935340  
	 635A      3.939855   636A      3.947978   637A      3.950020  
	 638A      3.960887   639A      3.969149   640A      3.979935  
	 641A      3.995786   642A      4.008729   643A      4.022306  
	 644A      4.028077   645A      4.045137   646A      4.048106  
	 647A      4.073329   648A      4.078305   649A      4.085782  
	 650A      4.091017   651A      4.104475   652A      4.105346  
	 653A      4.125961   654A      4.152489   655A      4.153818  
	 656A      4.164116   657A      4.166238   658A      4.177492  
	 659A      4.182147   660A      4.185940   661A      4.203687  
	 662A      4.203901   663A      4.208759   664A      4.215402  
	 665A      4.227285   666A      4.253966   667A      4.254174  
	 668A      4.280167   669A      4.283337   670A      4.285079  
	 671A      4.290777   672A      4.297221   673A      4.303646  
	 674A      4.330193   675A      4.337082   676A      4.340892  
	 677A      4.347897   678A      4.365123   679A      4.380583  
	 680A      4.383034   681A      4.393114   682A      4.404517  
	 683A      4.425043   684A      4.432503   685A      4.442755  
	 686A      4.449819   687A      4.462242   688A      4.466254  
	 689A      4.472145   690A      4.482054   691A      4.482291  
	 692A      4.509251   693A      4.514262   694A      4.521686  
	 695A      4.536181   696A      4.558127   697A      4.566404  
	 698A      4.576483   699A      4.600462   700A      4.603403  
	 701A      4.605310   702A      4.609973   703A      4.636556  
	 704A      4.652362   705A      4.666900   706A      4.690333  
	 707A      4.697579   708A      4.707909   709A      4.735517  
	 710A      4.742527   711A      4.749845   712A      4.753787  
	 713A      4.755671   714A      4.775757   715A      4.788667  
	 716A      4.789317   717A      4.805258   718A      4.808253  
	 719A      4.817615   720A      4.833052   721A      4.838660  
	 722A      4.857262   723A      4.868269   724A      4.875491  
	 725A      4.887200   726A      4.887748   727A      4.902883  
	 728A      4.932654   729A      4.933613   730A      4.944702  
	 731A      4.952445   732A      4.976742   733A      4.980663  
	 734A      4.984690   735A      5.001293   736A      5.008697  
	 737A      5.024066   738A      5.038310   739A      5.039121  
	 740A      5.074361   741A      5.108404   742A      5.109118  
	 743A      5.119737   744A      5.121665   745A      5.140074  
	 746A      5.143719   747A      5.163845   748A      5.177360  
	 749A      5.199125   750A      5.207720   751A      5.219829  
	 752A      5.225125   753A      5.238831   754A      5.243155  
	 755A      5.251716   756A      5.263050   757A      5.266530  
	 758A      5.289058   759A      5.300919   760A      5.301629  
	 761A      5.345815   762A      5.349784   763A      5.370987  
	 764A      5.404534   765A      5.416574   766A      5.421668  
	 767A      5.435686   768A      5.442604   769A      5.476650  
	 770A      5.477438   771A      5.483633   772A      5.497095  
	 773A      5.538161   774A      5.546570   775A      5.558643  
	 776A      5.570563   777A      5.585216   778A      5.598631  
	 779A      5.620985   780A      5.635673   781A      5.643384  
	 782A      5.657546   783A      5.662107   784A      5.669659  
	 785A      5.686445   786A      5.700699   787A      5.714011  
	 788A      5.738023   789A      5.762813   790A      5.767658  
	 791A      5.769824   792A      5.800125   793A      5.825095  
	 794A      5.827796   795A      5.830298   796A      5.850794  
	 797A      5.855872   798A      5.873071   799A      5.875808  
	 800A      5.913043   801A      5.933975   802A      5.936417  
	 803A      5.965142   804A      5.973775   805A      6.010457  
	 806A      6.013306   807A      6.041432   808A      6.044599  
	 809A      6.070767   810A      6.070875   811A      6.110716  
	 812A      6.117185   813A      6.141638   814A      6.153910  
	 815A      6.173094   816A      6.202334   817A      6.206001  
	 818A      6.215709   819A      6.230919   820A      6.246673  
	 821A      6.272621   822A      6.305321   823A      6.319168  
	 824A      6.319171   825A      6.351081   826A      6.390894  
	 827A      6.438021   828A      6.446205   829A      6.589241  
	 830A      6.590534   831A      6.617868   832A      6.621144  
	 833A      6.671704   834A      6.683439   835A      6.700680  
	 836A      6.726822   837A      6.766530   838A      6.798047  
	 839A      6.802315   840A      6.814111   841A      6.818574  
	 842A      6.849017   843A      6.853686   844A      6.867815  
	 845A      6.871019   846A      6.888475   847A      6.890147  
	 848A      6.908730   849A      6.915921   850A      6.926721  
	 851A      6.956789   852A      6.962474   853A      6.983337  
	 854A      6.987421   855A      7.037353   856A      7.041211  
	 857A      7.063832   858A      7.079986   859A      7.112759  
	 860A      7.114497   861A      7.126789   862A      7.131900  
	 863A      7.149005   864A      7.162496   865A      7.207765  
	 866A      7.265785   867A      7.281228   868A      7.299480  
	 869A      7.347704   870A      7.362223   871A      7.429327  
	 872A      7.438310   873A      7.482256   874A      7.500302  
	 875A      7.505839   876A      7.541103   877A      7.546386  
	 878A      7.559208   879A      7.568648   880A      7.590700  
	 881A      7.619289   882A      7.667401   883A      7.676787  
	 884A      7.692996   885A      7.782483   886A      7.812963  
	 887A      7.849087   888A      7.855877   889A      7.884073  
	 890A      7.898089   891A      7.920754   892A      7.940114  
	 893A      7.962795   894A      7.977496   895A      8.008260  
	 896A      8.028225   897A      8.032465   898A      8.060409  
	 899A      8.080674   900A      8.083550   901A      8.090714  
	 902A      8.111573   903A      8.155546   904A      8.163914  
	 905A     16.462732   906A     16.745088   907A     16.789889  
	 908A     17.109237   909A     17.320006   910A     17.426087  
	 911A     17.485062   912A     17.571963   913A     18.799771  
	 914A     18.883148   915A     20.278070   916A     20.461814  
	 917A     20.852815   918A     21.379974   919A     21.466736  
	 920A     21.588901  

	Final Occupation by Irrep:
	          A 
	DOCC [    58 ]

  Energy converged.

  @DF-RHF Final Energy:  -825.20409424062859

   => Energetics <=

    Nuclear Repulsion Energy =           1220.8255098421839193
    One-Electron Energy =               -3553.9993779045234987
    Two-Electron Energy =                1507.9697738217096230
    DFT Exchange-Correlation Energy =       0.0000000000000000
    Empirical Dispersion Energy =           0.0000000000000000
    Total Energy =                       -825.2040942406297290



Properties will be evaluated at   0.000000,   0.000000,   0.000000 Bohr
  ==> Properties <==


Properties computed using the SCF density density matrix
  Nuclear Dipole Moment: (a.u.)
     X:     0.0000      Y:     0.0000      Z:    -5.9481

  Electronic Dipole Moment: (a.u.)
     X:    -0.0000      Y:    -0.0000      Z:     3.6850

  Dipole Moment: (a.u.)
     X:    -0.0000      Y:    -0.0000      Z:    -2.2630     Total:     2.2630

  Dipole Moment: (Debye)
     X:    -0.0000      Y:    -0.0000      Z:    -5.7520     Total:     5.7520


  Saving occupied orbitals to File 180.

  Saving SAPT 2-DIMER file.

*** tstop() called on node36.bme.utexas.edu at Tue May 20 11:34:00 2014
Module time:
	user time   =    1698.62 seconds =      28.31 minutes
	system time =      19.73 seconds =       0.33 minutes
	total time  =        241 seconds =       4.02 minutes
Total time:
	user time   =    1698.62 seconds =      28.31 minutes
	system time =      19.73 seconds =       0.33 minutes
	total time  =        241 seconds =       4.02 minutes

  //>>>>>>>>>>>>>>>>>>>>>>>>>>>>>>>>>>>//
  //            Monomer A HF           //
  //<<<<<<<<<<<<<<<<<<<<<<<<<<<<<<<<<<<//


  No DF_BASIS_SCF auxiliary basis selected, defaulting to aug-cc-pvtz-jkfit


*** tstart() called on node36.bme.utexas.edu
*** at Tue May 20 11:34:00 2014


         ---------------------------------------------------------
                                   SCF
            by Justin Turney, Rob Parrish, and Andy Simmonett
                              RHF Reference
                        8 Threads,  48000 MiB Core
         ---------------------------------------------------------

  ==> Geometry <==

    Molecular point group: c1
    Full point group: C1

    Geometry (in Angstrom), charge = 0, multiplicity = 1:

       Center              X                  Y                   Z       
    ------------   -----------------  -----------------  -----------------
           N          1.100653146500     0.792054782000     0.734453602703
           H          0.775564437500     1.338531163000     1.523184291703
           C          1.032734744500     1.409837128000    -0.520826332297
           O          0.644313394500     2.563385080000    -0.626148067297
           N          1.735174964500    -1.260900988000    -0.098243155297
           H          1.451037543500     0.943150000000    -2.612166896297
           C          1.749488903500    -0.744863914000    -1.364568735297
           H          2.021269014500    -1.438752723000    -2.145816650297
           C          1.438264381500     0.544245113000    -1.612658559297
           H          1.853206248500    -2.249213590000     0.056657788703
           C          1.369697063500    -0.532898662000     1.018546964703
           O          1.284868050500    -1.019509061000     2.129637711703
           N(Gh)     -1.100653146500    -0.792054782000     0.734453602703
           H(Gh)     -0.775564437500    -1.338531163000     1.523184291703
           C(Gh)     -1.032734744500    -1.409837128000    -0.520826332297
           O(Gh)     -0.644313394500    -2.563385080000    -0.626148067297
           N(Gh)     -1.735174964500     1.260900988000    -0.098243155297
           H(Gh)     -1.451037543500    -0.943150000000    -2.612166896297
           C(Gh)     -1.749488903500     0.744863914000    -1.364568735297
           H(Gh)     -2.021269014500     1.438752723000    -2.145816650297
           C(Gh)     -1.438264381500    -0.544245113000    -1.612658559297
           H(Gh)     -1.853206248500     2.249213590000     0.056657788703
           C(Gh)     -1.369697063500     0.532898662000     1.018546964703
           O(Gh)     -1.284868050500     1.019509061000     2.129637711703

  Running in c1 symmetry.


	Rotational constants (cm^-1):
	A =    0.02380    B =    0.02192   C =    0.02110

	Rotational constants (MHz):
	A =  713.51356    B =  657.08341   C =  632.55540
  Nuclear repulsion =  357.160273677226826

  Charge       = 0
  Multiplicity = 1
  Electrons    = 58
  Nalpha       = 29
  Nbeta        = 29

  ==> Algorithm <==

  SCF Algorithm Type is DF.
  DIIS enabled.
  MOM disabled.
  Fractional occupation disabled.
  Guess Type is CORE.
  Energy threshold   = 1.00e-08
  Density threshold  = 1.00e-08
  Integral threshold = 0.00e+00

  ==> Primary Basis <==

  Basis Set: AUG-CC-PVTZ
    Number of shells: 296
    Number of basis function: 920
    Number of Cartesian functions: 1080
    Spherical Harmonics?: true
    Max angular momentum: 3

  ==> Pre-Iterations <==

   -------------------------------------------------------
    Irrep   Nso     Nmo     Nalpha   Nbeta   Ndocc  Nsocc
   -------------------------------------------------------
     A        920     920       0       0       0       0
   -------------------------------------------------------
    Total     920     920      29      29      29       0
   -------------------------------------------------------

 OEINTS: Wrapper to libmints.
   by Justin Turney

   Calculation information:
      Number of atoms:                  24
      Number of AO shells:             296
      Number of SO shells:             296
      Number of primitives:            568
      Number of atomic orbitals:      1080
      Number of basis functions:       920

      Number of irreps:                  1
      Number of functions per irrep: [ 920 ]

      Overlap, kinetic, potential, dipole, and quadrupole integrals
        stored in file 35.

  ==> Integral Setup <==

  ==> DFJK: Density-Fitted J/K Matrices <==

    J tasked:                  Yes
    K tasked:                  Yes
    wK tasked:                  No
    OpenMP threads:              8
    Integrals threads:           8
    Memory (MB):             34332
    Algorithm:                Core
    Integral Cache:           LOAD
    Schwarz Cutoff:          1E-12
    Fitting Condition:       1E-12

   => Auxiliary Basis Set <=

  Basis Set: aug-cc-pvtz-jkfit
    Number of shells: 592
    Number of basis function: 2032
    Number of Cartesian functions: 2536
    Spherical Harmonics?: true
    Max angular momentum: 4

  Minimum eigenvalue in the overlap matrix is 1.5712768686E-06.
  Using Symmetric Orthogonalization.
  SCF Guess: Core (One-Electron) Hamiltonian.

  ==> Iterations <==

                           Total Energy        Delta E     RMS |[F,P]|

   @DF-RHF iter   1:  -319.64462209961147   -3.19645e+02   1.69094e-02 
   @DF-RHF iter   2:  -286.94400990767366    3.27006e+01   1.02339e-02 DIIS
   @DF-RHF iter   3:  -298.08546633338568   -1.11415e+01   1.21416e-02 DIIS
   @DF-RHF iter   4:  -391.81161094354121   -9.37261e+01   5.84426e-03 DIIS
   @DF-RHF iter   5:  -389.00821965189556    2.80339e+00   5.56633e-03 DIIS
   @DF-RHF iter   6:  -409.84751104077799   -2.08393e+01   2.50515e-03 DIIS
   @DF-RHF iter   7:  -412.41493236636137   -2.56742e+00   6.00595e-04 DIIS
   @DF-RHF iter   8:  -412.58665749873109   -1.71725e-01   2.34542e-04 DIIS
   @DF-RHF iter   9:  -412.61525813109921   -2.86006e-02   1.04279e-04 DIIS
   @DF-RHF iter  10:  -412.62217535284054   -6.91722e-03   4.52968e-05 DIIS
   @DF-RHF iter  11:  -412.62364336338709   -1.46801e-03   2.41977e-05 DIIS
   @DF-RHF iter  12:  -412.62428546411996   -6.42101e-04   8.36921e-06 DIIS
   @DF-RHF iter  13:  -412.62434607602989   -6.06119e-05   3.35772e-06 DIIS
   @DF-RHF iter  14:  -412.62435098634734   -4.91032e-06   8.38991e-07 DIIS
   @DF-RHF iter  15:  -412.62435140186284   -4.15516e-07   2.16789e-07 DIIS
   @DF-RHF iter  16:  -412.62435143425449   -3.23917e-08   8.34781e-08 DIIS
   @DF-RHF iter  17:  -412.62435143942542   -5.17093e-09   3.08144e-08 DIIS
   @DF-RHF iter  18:  -412.62435144047157   -1.04615e-09   1.26129e-08 DIIS
   @DF-RHF iter  19:  -412.62435144064995   -1.78375e-10   4.19197e-09 DIIS

  ==> Post-Iterations <==

	Orbital Energies (a.u.)
	-----------------------

	Doubly Occupied:                                                      

	   1A    -20.548301     2A    -20.541957     3A    -15.645752  
	   4A    -15.628783     5A    -11.419872     6A    -11.381510  
	   7A    -11.341399     8A    -11.256333     9A     -1.437343  
	  10A     -1.397238    11A     -1.315236    12A     -1.246988  
	  13A     -1.089219    14A     -0.935183    15A     -0.901941  
	  16A     -0.807865    17A     -0.766149    18A     -0.715424  
	  19A     -0.677986    20A     -0.670762    21A     -0.653233  
	  22A     -0.614776    23A     -0.602525    24A     -0.571105  
	  25A     -0.527094    26A     -0.484880    27A     -0.450013  
	  28A     -0.437611    29A     -0.369906  

	Virtual:                                                              

	  30A      0.012223    31A      0.027592    32A      0.031364  
	  33A      0.035800    34A      0.046772    35A      0.047913  
	  36A      0.051717    37A      0.061631    38A      0.066028  
	  39A      0.070795    40A      0.075625    41A      0.078724  
	  42A      0.085005    43A      0.087692    44A      0.090823  
	  45A      0.096533    46A      0.097509    47A      0.101526  
	  48A      0.103586    49A      0.110477    50A      0.112876  
	  51A      0.118871    52A      0.123262    53A      0.126004  
	  54A      0.129761    55A      0.131723    56A      0.137412  
	  57A      0.141123    58A      0.144489    59A      0.145761  
	  60A      0.148479    61A      0.149623    62A      0.153293  
	  63A      0.159071    64A      0.163254    65A      0.165308  
	  66A      0.174471    67A      0.177822    68A      0.186859  
	  69A      0.192955    70A      0.198801    71A      0.200064  
	  72A      0.204440    73A      0.207724    74A      0.209806  
	  75A      0.215092    76A      0.221993    77A      0.225443  
	  78A      0.227138    79A      0.233319    80A      0.238414  
	  81A      0.240215    82A      0.243865    83A      0.250828  
	  84A      0.253646    85A      0.259314    86A      0.261486  
	  87A      0.267079    88A      0.271908    89A      0.273470  
	  90A      0.278686    91A      0.279182    92A      0.283773  
	  93A      0.287539    94A      0.292657    95A      0.296031  
	  96A      0.303940    97A      0.305276    98A      0.307945  
	  99A      0.311164   100A      0.320967   101A      0.322680  
	 102A      0.329979   103A      0.330243   104A      0.335495  
	 105A      0.338161   106A      0.346678   107A      0.348022  
	 108A      0.355349   109A      0.356947   110A      0.363206  
	 111A      0.363935   112A      0.367637   113A      0.376755  
	 114A      0.378318   115A      0.381061   116A      0.386408  
	 117A      0.397555   118A      0.399236   119A      0.403603  
	 120A      0.407198   121A      0.408924   122A      0.413572  
	 123A      0.418394   124A      0.423293   125A      0.432325  
	 126A      0.435069   127A      0.437360   128A      0.443710  
	 129A      0.448922   130A      0.453649   131A      0.458221  
	 132A      0.462479   133A      0.466449   134A      0.469908  
	 135A      0.473351   136A      0.477837   137A      0.480924  
	 138A      0.486914   139A      0.490621   140A      0.493446  
	 141A      0.497708   142A      0.503308   143A      0.508233  
	 144A      0.513102   145A      0.514350   146A      0.520210  
	 147A      0.523618   148A      0.528036   149A      0.533370  
	 150A      0.536513   151A      0.538466   152A      0.542532  
	 153A      0.549248   154A      0.553156   155A      0.556459  
	 156A      0.558938   157A      0.566509   158A      0.568285  
	 159A      0.570282   160A      0.579329   161A      0.583717  
	 162A      0.589658   163A      0.593033   164A      0.596821  
	 165A      0.599927   166A      0.605211   167A      0.613178  
	 168A      0.615778   169A      0.627560   170A      0.630574  
	 171A      0.633231   172A      0.635944   173A      0.638301  
	 174A      0.648677   175A      0.649320   176A      0.656884  
	 177A      0.664199   178A      0.669146   179A      0.671557  
	 180A      0.682172   181A      0.690449   182A      0.695576  
	 183A      0.701352   184A      0.704019   185A      0.707507  
	 186A      0.717284   187A      0.722379   188A      0.726275  
	 189A      0.733254   190A      0.738216   191A      0.741284  
	 192A      0.750154   193A      0.759565   194A      0.761116  
	 195A      0.766215   196A      0.773917   197A      0.780956  
	 198A      0.784761   199A      0.790649   200A      0.798215  
	 201A      0.802067   202A      0.809369   203A      0.810670  
	 204A      0.815041   205A      0.821092   206A      0.826773  
	 207A      0.831927   208A      0.838981   209A      0.845735  
	 210A      0.853343   211A      0.859868   212A      0.864215  
	 213A      0.869985   214A      0.871735   215A      0.876895  
	 216A      0.888916   217A      0.894396   218A      0.900495  
	 219A      0.906390   220A      0.910372   221A      0.915435  
	 222A      0.921573   223A      0.926713   224A      0.930132  
	 225A      0.933386   226A      0.945268   227A      0.947149  
	 228A      0.951475   229A      0.953716   230A      0.959196  
	 231A      0.965898   232A      0.969723   233A      0.977194  
	 234A      0.981225   235A      0.985545   236A      0.988959  
	 237A      0.996321   238A      0.998633   239A      1.006938  
	 240A      1.012729   241A      1.021401   242A      1.023646  
	 243A      1.033289   244A      1.036997   245A      1.040060  
	 246A      1.044685   247A      1.051343   248A      1.058655  
	 249A      1.065229   250A      1.070794   251A      1.078658  
	 252A      1.081363   253A      1.090381   254A      1.094491  
	 255A      1.103235   256A      1.106299   257A      1.112172  
	 258A      1.112383   259A      1.119134   260A      1.127860  
	 261A      1.132367   262A      1.134419   263A      1.138611  
	 264A      1.143545   265A      1.148553   266A      1.158438  
	 267A      1.164153   268A      1.164865   269A      1.176789  
	 270A      1.179674   271A      1.182033   272A      1.185868  
	 273A      1.187742   274A      1.195137   275A      1.200497  
	 276A      1.206799   277A      1.216423   278A      1.217398  
	 279A      1.226046   280A      1.228113   281A      1.231086  
	 282A      1.238785   283A      1.241931   284A      1.243887  
	 285A      1.257166   286A      1.264427   287A      1.266255  
	 288A      1.275260   289A      1.277898   290A      1.283590  
	 291A      1.285936   292A      1.293885   293A      1.297422  
	 294A      1.306289   295A      1.311131   296A      1.312506  
	 297A      1.318502   298A      1.328915   299A      1.331459  
	 300A      1.338955   301A      1.352465   302A      1.357369  
	 303A      1.365811   304A      1.366313   305A      1.371679  
	 306A      1.384326   307A      1.390222   308A      1.391938  
	 309A      1.397475   310A      1.406080   311A      1.406256  
	 312A      1.409011   313A      1.414908   314A      1.424137  
	 315A      1.430072   316A      1.430993   317A      1.441894  
	 318A      1.443022   319A      1.446980   320A      1.461308  
	 321A      1.471397   322A      1.475952   323A      1.477861  
	 324A      1.488683   325A      1.496042   326A      1.497243  
	 327A      1.510214   328A      1.512217   329A      1.517951  
	 330A      1.523855   331A      1.536685   332A      1.537115  
	 333A      1.541934   334A      1.545226   335A      1.559892  
	 336A      1.565859   337A      1.574232   338A      1.580320  
	 339A      1.587275   340A      1.594769   341A      1.596988  
	 342A      1.600348   343A      1.605679   344A      1.612408  
	 345A      1.618345   346A      1.624591   347A      1.639586  
	 348A      1.641964   349A      1.648301   350A      1.657036  
	 351A      1.664732   352A      1.675170   353A      1.680233  
	 354A      1.681465   355A      1.692000   356A      1.696575  
	 357A      1.708938   358A      1.716374   359A      1.726925  
	 360A      1.730814   361A      1.735859   362A      1.744913  
	 363A      1.751928   364A      1.753787   365A      1.762497  
	 366A      1.768860   367A      1.782816   368A      1.787333  
	 369A      1.788692   370A      1.800987   371A      1.806028  
	 372A      1.811430   373A      1.820169   374A      1.828916  
	 375A      1.831901   376A      1.847569   377A      1.852383  
	 378A      1.859800   379A      1.864669   380A      1.871711  
	 381A      1.879196   382A      1.886688   383A      1.893652  
	 384A      1.901457   385A      1.904576   386A      1.916483  
	 387A      1.918668   388A      1.928694   389A      1.934503  
	 390A      1.943202   391A      1.954831   392A      1.960467  
	 393A      1.975344   394A      1.980060   395A      1.989221  
	 396A      1.996439   397A      2.006479   398A      2.018497  
	 399A      2.022739   400A      2.023163   401A      2.034207  
	 402A      2.044973   403A      2.045877   404A      2.057205  
	 405A      2.060820   406A      2.062687   407A      2.079254  
	 408A      2.087229   409A      2.092916   410A      2.097505  
	 411A      2.098590   412A      2.112490   413A      2.119588  
	 414A      2.130680   415A      2.140220   416A      2.147704  
	 417A      2.150998   418A      2.153813   419A      2.170511  
	 420A      2.177542   421A      2.187937   422A      2.193458  
	 423A      2.197157   424A      2.200800   425A      2.215892  
	 426A      2.227429   427A      2.232021   428A      2.237042  
	 429A      2.250422   430A      2.253417   431A      2.261904  
	 432A      2.269788   433A      2.282254   434A      2.285392  
	 435A      2.291589   436A      2.305977   437A      2.319087  
	 438A      2.329115   439A      2.335578   440A      2.343101  
	 441A      2.351078   442A      2.355196   443A      2.360143  
	 444A      2.368816   445A      2.373866   446A      2.384984  
	 447A      2.387599   448A      2.402937   449A      2.409195  
	 450A      2.417340   451A      2.429854   452A      2.433432  
	 453A      2.444712   454A      2.463833   455A      2.483196  
	 456A      2.486888   457A      2.489888   458A      2.503296  
	 459A      2.515896   460A      2.519318   461A      2.534800  
	 462A      2.535770   463A      2.549787   464A      2.556288  
	 465A      2.557953   466A      2.569725   467A      2.576170  
	 468A      2.590220   469A      2.601341   470A      2.602193  
	 471A      2.617152   472A      2.621281   473A      2.622621  
	 474A      2.643353   475A      2.658844   476A      2.665211  
	 477A      2.669786   478A      2.673234   479A      2.679870  
	 480A      2.689849   481A      2.695716   482A      2.702036  
	 483A      2.705070   484A      2.715703   485A      2.722719  
	 486A      2.734144   487A      2.739552   488A      2.750919  
	 489A      2.766805   490A      2.767949   491A      2.775310  
	 492A      2.791789   493A      2.800409   494A      2.803352  
	 495A      2.814689   496A      2.815248   497A      2.829566  
	 498A      2.830515   499A      2.835606   500A      2.847644  
	 501A      2.856639   502A      2.870544   503A      2.885397  
	 504A      2.887796   505A      2.895245   506A      2.904520  
	 507A      2.913423   508A      2.919244   509A      2.930072  
	 510A      2.935090   511A      2.940734   512A      2.969468  
	 513A      2.976658   514A      2.984507   515A      2.990008  
	 516A      3.002243   517A      3.006192   518A      3.019905  
	 519A      3.022914   520A      3.037956   521A      3.041445  
	 522A      3.055155   523A      3.066884   524A      3.072527  
	 525A      3.091519   526A      3.094277   527A      3.103424  
	 528A      3.113448   529A      3.122035   530A      3.130271  
	 531A      3.137717   532A      3.146327   533A      3.169245  
	 534A      3.179895   535A      3.182699   536A      3.189659  
	 537A      3.203711   538A      3.209292   539A      3.227789  
	 540A      3.239431   541A      3.252359   542A      3.271963  
	 543A      3.276105   544A      3.287777   545A      3.299194  
	 546A      3.308121   547A      3.312754   548A      3.320448  
	 549A      3.341665   550A      3.347027   551A      3.368814  
	 552A      3.372245   553A      3.399159   554A      3.402169  
	 555A      3.408522   556A      3.417850   557A      3.435620  
	 558A      3.438128   559A      3.476490   560A      3.479374  
	 561A      3.483532   562A      3.505776   563A      3.529584  
	 564A      3.537281   565A      3.550276   566A      3.578303  
	 567A      3.589558   568A      3.594136   569A      3.616537  
	 570A      3.620532   571A      3.627517   572A      3.640047  
	 573A      3.661662   574A      3.676305   575A      3.690981  
	 576A      3.713145   577A      3.724118   578A      3.746678  
	 579A      3.747202   580A      3.766640   581A      3.778041  
	 582A      3.784292   583A      3.803183   584A      3.810603  
	 585A      3.818512   586A      3.832626   587A      3.841187  
	 588A      3.853884   589A      3.867399   590A      3.879110  
	 591A      3.891219   592A      3.911881   593A      3.914561  
	 594A      3.936596   595A      3.945146   596A      3.951094  
	 597A      3.960975   598A      3.969308   599A      3.976702  
	 600A      3.996028   601A      4.005178   602A      4.031530  
	 603A      4.035969   604A      4.040755   605A      4.053640  
	 606A      4.056068   607A      4.075231   608A      4.088267  
	 609A      4.110490   610A      4.123985   611A      4.137592  
	 612A      4.142153   613A      4.151284   614A      4.161603  
	 615A      4.190437   616A      4.207950   617A      4.211174  
	 618A      4.226889   619A      4.237785   620A      4.238423  
	 621A      4.246440   622A      4.269887   623A      4.271761  
	 624A      4.294155   625A      4.310234   626A      4.312657  
	 627A      4.333184   628A      4.337936   629A      4.346804  
	 630A      4.365611   631A      4.375804   632A      4.396993  
	 633A      4.406744   634A      4.414812   635A      4.431688  
	 636A      4.439383   637A      4.447480   638A      4.458286  
	 639A      4.465716   640A      4.474514   641A      4.493902  
	 642A      4.499136   643A      4.505709   644A      4.527052  
	 645A      4.540646   646A      4.558876   647A      4.569930  
	 648A      4.585126   649A      4.590701   650A      4.605440  
	 651A      4.610493   652A      4.621838   653A      4.651760  
	 654A      4.661073   655A      4.665826   656A      4.693274  
	 657A      4.707194   658A      4.723231   659A      4.742001  
	 660A      4.752158   661A      4.755513   662A      4.769151  
	 663A      4.775903   664A      4.800168   665A      4.801844  
	 666A      4.828321   667A      4.835369   668A      4.842686  
	 669A      4.847909   670A      4.851079   671A      4.872829  
	 672A      4.898906   673A      4.911711   674A      4.914439  
	 675A      4.930265   676A      4.944383   677A      4.958259  
	 678A      4.963148   679A      4.971927   680A      4.975817  
	 681A      4.988196   682A      5.010228   683A      5.013494  
	 684A      5.029353   685A      5.035637   686A      5.053903  
	 687A      5.067744   688A      5.078391   689A      5.086486  
	 690A      5.108071   691A      5.114705   692A      5.126019  
	 693A      5.139950   694A      5.146504   695A      5.165845  
	 696A      5.174088   697A      5.181278   698A      5.190006  
	 699A      5.204470   700A      5.210784   701A      5.224546  
	 702A      5.246169   703A      5.250802   704A      5.255692  
	 705A      5.274365   706A      5.285728   707A      5.294213  
	 708A      5.316487   709A      5.333325   710A      5.344420  
	 711A      5.356849   712A      5.371969   713A      5.391186  
	 714A      5.411068   715A      5.421074   716A      5.428530  
	 717A      5.437686   718A      5.446868   719A      5.457151  
	 720A      5.473262   721A      5.480531   722A      5.505314  
	 723A      5.509375   724A      5.524249   725A      5.537089  
	 726A      5.554437   727A      5.568371   728A      5.580632  
	 729A      5.608415   730A      5.613056   731A      5.642219  
	 732A      5.650020   733A      5.663529   734A      5.672628  
	 735A      5.683850   736A      5.691008   737A      5.698873  
	 738A      5.715390   739A      5.738608   740A      5.753845  
	 741A      5.773055   742A      5.803091   743A      5.816414  
	 744A      5.824935   745A      5.836745   746A      5.847708  
	 747A      5.854390   748A      5.869295   749A      5.872974  
	 750A      5.907832   751A      5.928290   752A      5.941802  
	 753A      5.952445   754A      5.970322   755A      5.996254  
	 756A      6.000419   757A      6.008538   758A      6.031919  
	 759A      6.054041   760A      6.059139   761A      6.069421  
	 762A      6.092906   763A      6.146345   764A      6.155606  
	 765A      6.167485   766A      6.187022   767A      6.204709  
	 768A      6.220905   769A      6.241592   770A      6.253551  
	 771A      6.264143   772A      6.298398   773A      6.313120  
	 774A      6.350918   775A      6.374220   776A      6.415162  
	 777A      6.448733   778A      6.502976   779A      6.555766  
	 780A      6.568527   781A      6.581121   782A      6.613557  
	 783A      6.615882   784A      6.669536   785A      6.677283  
	 786A      6.680895   787A      6.702771   788A      6.736953  
	 789A      6.780673   790A      6.802822   791A      6.806772  
	 792A      6.827694   793A      6.842247   794A      6.856200  
	 795A      6.858521   796A      6.884856   797A      6.898181  
	 798A      6.899032   799A      6.915541   800A      6.942431  
	 801A      6.947291   802A      6.965245   803A      6.981738  
	 804A      7.001033   805A      7.025287   806A      7.044742  
	 807A      7.063107   808A      7.083496   809A      7.114810  
	 810A      7.143519   811A      7.151932   812A      7.209717  
	 813A      7.252141   814A      7.276192   815A      7.331709  
	 816A      7.342860   817A      7.352417   818A      7.374699  
	 819A      7.413008   820A      7.455965   821A      7.501045  
	 822A      7.504295   823A      7.518299   824A      7.543858  
	 825A      7.553300   826A      7.599131   827A      7.617969  
	 828A      7.647755   829A      7.687924   830A      7.694059  
	 831A      7.703026   832A      7.739329   833A      7.750007  
	 834A      7.770060   835A      7.779782   836A      7.805162  
	 837A      7.815441   838A      7.824569   839A      7.863929  
	 840A      7.883425   841A      7.910219   842A      7.926505  
	 843A      7.933194   844A      7.957198   845A      7.983565  
	 846A      7.997677   847A      8.012278   848A      8.019123  
	 849A      8.035637   850A      8.047580   851A      8.052866  
	 852A      8.071853   853A      8.091981   854A      8.102256  
	 855A      8.114663   856A      8.138038   857A      8.150938  
	 858A      8.164515   859A      8.300791   860A      8.312384  
	 861A      8.383295   862A      8.400559   863A      8.457921  
	 864A      8.478475   865A      8.630869   866A      8.769822  
	 867A      8.792423   868A      8.821598   869A      8.968061  
	 870A      9.087758   871A      9.158196   872A      9.271292  
	 873A      9.335549   874A      9.688948   875A      9.793619  
	 876A      9.875821   877A     10.038269   878A     10.063112  
	 879A     10.079872   880A     10.148820   881A     10.237510  
	 882A     10.364226   883A     10.401347   884A     10.411352  
	 885A     10.482224   886A     10.533477   887A     10.608195  
	 888A     10.665668   889A     11.091686   890A     11.344965  
	 891A     11.452186   892A     11.605178   893A     12.106883  
	 894A     12.187990   895A     12.233226   896A     12.343083  
	 897A     12.649945   898A     12.654090   899A     12.781736  
	 900A     12.953047   901A     13.563055   902A     13.817844  
	 903A     14.261462   904A     14.338302   905A     16.696063  
	 906A     17.110858   907A     17.257981   908A     17.563561  
	 909A     18.869795   910A     20.379559   911A     21.069471  
	 912A     21.478175   913A     52.905443   914A     53.149700  
	 915A     56.010987   916A     56.960405   917A     62.574327  
	 918A     63.279536   919A     70.704099   920A     71.203643  

	Final Occupation by Irrep:
	          A 
	DOCC [    29 ]

  Energy converged.

  @DF-RHF Final Energy:  -412.62435144064995

   => Energetics <=

    Nuclear Repulsion Energy =            357.1602736772268258
    One-Electron Energy =               -1270.6964804013643970
    Two-Electron Energy =                 500.9118552834871139
    DFT Exchange-Correlation Energy =       0.0000000000000000
    Empirical Dispersion Energy =           0.0000000000000000
    Total Energy =                       -412.6243514406505142



Properties will be evaluated at   0.000000,   0.000000,   0.000000 Bohr
  ==> Properties <==


Properties computed using the SCF density density matrix
  Nuclear Dipole Moment: (a.u.)
     X:   141.5904      Y:    22.1489      Z:    -2.9740

  Electronic Dipole Moment: (a.u.)
     X:  -141.0221      Y:   -23.6405      Z:     1.8021

  Dipole Moment: (a.u.)
     X:     0.5684      Y:    -1.4915      Z:    -1.1719     Total:     1.9802

  Dipole Moment: (Debye)
     X:     1.4446      Y:    -3.7911      Z:    -2.9788     Total:     5.0332


  Saving occupied orbitals to File 180.

  Saving SAPT 2-MONOMER_A file.

*** tstop() called on node36.bme.utexas.edu at Tue May 20 11:36:32 2014
Module time:
	user time   =    1108.57 seconds =      18.48 minutes
	system time =       9.73 seconds =       0.16 minutes
	total time  =        152 seconds =       2.53 minutes
Total time:
	user time   =    2807.20 seconds =      46.79 minutes
	system time =      29.46 seconds =       0.49 minutes
	total time  =        393 seconds =       6.55 minutes

  //>>>>>>>>>>>>>>>>>>>>>>>>>>>>>>>>>>>//
  //            Monomer B HF           //
  //<<<<<<<<<<<<<<<<<<<<<<<<<<<<<<<<<<<//


  No DF_BASIS_SCF auxiliary basis selected, defaulting to aug-cc-pvtz-jkfit


*** tstart() called on node36.bme.utexas.edu
*** at Tue May 20 11:36:32 2014


         ---------------------------------------------------------
                                   SCF
            by Justin Turney, Rob Parrish, and Andy Simmonett
                              RHF Reference
                        8 Threads,  48000 MiB Core
         ---------------------------------------------------------

  ==> Geometry <==

    Molecular point group: c1
    Full point group: C1

    Geometry (in Angstrom), charge = 0, multiplicity = 1:

       Center              X                  Y                   Z       
    ------------   -----------------  -----------------  -----------------
           N(Gh)      1.100653146500     0.792054782000     0.734453602703
           H(Gh)      0.775564437500     1.338531163000     1.523184291703
           C(Gh)      1.032734744500     1.409837128000    -0.520826332297
           O(Gh)      0.644313394500     2.563385080000    -0.626148067297
           N(Gh)      1.735174964500    -1.260900988000    -0.098243155297
           H(Gh)      1.451037543500     0.943150000000    -2.612166896297
           C(Gh)      1.749488903500    -0.744863914000    -1.364568735297
           H(Gh)      2.021269014500    -1.438752723000    -2.145816650297
           C(Gh)      1.438264381500     0.544245113000    -1.612658559297
           H(Gh)      1.853206248500    -2.249213590000     0.056657788703
           C(Gh)      1.369697063500    -0.532898662000     1.018546964703
           O(Gh)      1.284868050500    -1.019509061000     2.129637711703
           N         -1.100653146500    -0.792054782000     0.734453602703
           H         -0.775564437500    -1.338531163000     1.523184291703
           C         -1.032734744500    -1.409837128000    -0.520826332297
           O         -0.644313394500    -2.563385080000    -0.626148067297
           N         -1.735174964500     1.260900988000    -0.098243155297
           H         -1.451037543500    -0.943150000000    -2.612166896297
           C         -1.749488903500     0.744863914000    -1.364568735297
           H         -2.021269014500     1.438752723000    -2.145816650297
           C         -1.438264381500    -0.544245113000    -1.612658559297
           H         -1.853206248500     2.249213590000     0.056657788703
           C         -1.369697063500     0.532898662000     1.018546964703
           O         -1.284868050500     1.019509061000     2.129637711703

  Running in c1 symmetry.


	Rotational constants (cm^-1):
	A =    0.02380    B =    0.02192   C =    0.02110

	Rotational constants (MHz):
	A =  713.51356    B =  657.08341   C =  632.55540
  Nuclear repulsion =  357.160273677226826

  Charge       = 0
  Multiplicity = 1
  Electrons    = 58
  Nalpha       = 29
  Nbeta        = 29

  ==> Algorithm <==

  SCF Algorithm Type is DF.
  DIIS enabled.
  MOM disabled.
  Fractional occupation disabled.
  Guess Type is CORE.
  Energy threshold   = 1.00e-08
  Density threshold  = 1.00e-08
  Integral threshold = 0.00e+00

  ==> Primary Basis <==

  Basis Set: AUG-CC-PVTZ
    Number of shells: 296
    Number of basis function: 920
    Number of Cartesian functions: 1080
    Spherical Harmonics?: true
    Max angular momentum: 3

  ==> Pre-Iterations <==

   -------------------------------------------------------
    Irrep   Nso     Nmo     Nalpha   Nbeta   Ndocc  Nsocc
   -------------------------------------------------------
     A        920     920       0       0       0       0
   -------------------------------------------------------
    Total     920     920      29      29      29       0
   -------------------------------------------------------

 OEINTS: Wrapper to libmints.
   by Justin Turney

   Calculation information:
      Number of atoms:                  24
      Number of AO shells:             296
      Number of SO shells:             296
      Number of primitives:            568
      Number of atomic orbitals:      1080
      Number of basis functions:       920

      Number of irreps:                  1
      Number of functions per irrep: [ 920 ]

      Overlap, kinetic, potential, dipole, and quadrupole integrals
        stored in file 35.

  ==> Integral Setup <==

  ==> DFJK: Density-Fitted J/K Matrices <==

    J tasked:                  Yes
    K tasked:                  Yes
    wK tasked:                  No
    OpenMP threads:              8
    Integrals threads:           8
    Memory (MB):             34332
    Algorithm:                Core
    Integral Cache:           LOAD
    Schwarz Cutoff:          1E-12
    Fitting Condition:       1E-12

   => Auxiliary Basis Set <=

  Basis Set: aug-cc-pvtz-jkfit
    Number of shells: 592
    Number of basis function: 2032
    Number of Cartesian functions: 2536
    Spherical Harmonics?: true
    Max angular momentum: 4

  Minimum eigenvalue in the overlap matrix is 1.5712768683E-06.
  Using Symmetric Orthogonalization.
  SCF Guess: Core (One-Electron) Hamiltonian.

  ==> Iterations <==

                           Total Energy        Delta E     RMS |[F,P]|

   @DF-RHF iter   1:  -319.64462209571121   -3.19645e+02   1.69094e-02 
   @DF-RHF iter   2:  -286.94400949222614    3.27006e+01   1.02339e-02 DIIS
   @DF-RHF iter   3:  -298.08546629937024   -1.11415e+01   1.21416e-02 DIIS
   @DF-RHF iter   4:  -391.81161096292584   -9.37261e+01   5.84426e-03 DIIS
   @DF-RHF iter   5:  -389.00821953917392    2.80339e+00   5.56633e-03 DIIS
   @DF-RHF iter   6:  -409.84751106999983   -2.08393e+01   2.50515e-03 DIIS
   @DF-RHF iter   7:  -412.41493236970581   -2.56742e+00   6.00595e-04 DIIS
   @DF-RHF iter   8:  -412.58665749737560   -1.71725e-01   2.34542e-04 DIIS
   @DF-RHF iter   9:  -412.61525812902011   -2.86006e-02   1.04279e-04 DIIS
   @DF-RHF iter  10:  -412.62217535058704   -6.91722e-03   4.52968e-05 DIIS
   @DF-RHF iter  11:  -412.62364336110585   -1.46801e-03   2.41977e-05 DIIS
   @DF-RHF iter  12:  -412.62428546180894   -6.42101e-04   8.36921e-06 DIIS
   @DF-RHF iter  13:  -412.62434607371773   -6.06119e-05   3.35772e-06 DIIS
   @DF-RHF iter  14:  -412.62435098403040   -4.91031e-06   8.38991e-07 DIIS
   @DF-RHF iter  15:  -412.62435139954817   -4.15518e-07   2.16789e-07 DIIS
   @DF-RHF iter  16:  -412.62435143194233   -3.23942e-08   8.34781e-08 DIIS
   @DF-RHF iter  17:  -412.62435143711122   -5.16889e-09   3.08144e-08 DIIS
   @DF-RHF iter  18:  -412.62435143815941   -1.04819e-09   1.26129e-08 DIIS
   @DF-RHF iter  19:  -412.62435143833380   -1.74396e-10   4.19197e-09 DIIS

  ==> Post-Iterations <==

	Orbital Energies (a.u.)
	-----------------------

	Doubly Occupied:                                                      

	   1A    -20.548301     2A    -20.541957     3A    -15.645752  
	   4A    -15.628783     5A    -11.419872     6A    -11.381510  
	   7A    -11.341399     8A    -11.256333     9A     -1.437343  
	  10A     -1.397238    11A     -1.315236    12A     -1.246988  
	  13A     -1.089219    14A     -0.935183    15A     -0.901941  
	  16A     -0.807865    17A     -0.766149    18A     -0.715424  
	  19A     -0.677986    20A     -0.670762    21A     -0.653233  
	  22A     -0.614776    23A     -0.602525    24A     -0.571105  
	  25A     -0.527094    26A     -0.484880    27A     -0.450013  
	  28A     -0.437611    29A     -0.369906  

	Virtual:                                                              

	  30A      0.012223    31A      0.027592    32A      0.031364  
	  33A      0.035800    34A      0.046772    35A      0.047913  
	  36A      0.051717    37A      0.061631    38A      0.066028  
	  39A      0.070795    40A      0.075625    41A      0.078724  
	  42A      0.085005    43A      0.087692    44A      0.090823  
	  45A      0.096533    46A      0.097509    47A      0.101526  
	  48A      0.103585    49A      0.110477    50A      0.112876  
	  51A      0.118871    52A      0.123261    53A      0.126005  
	  54A      0.129761    55A      0.131723    56A      0.137412  
	  57A      0.141124    58A      0.144489    59A      0.145761  
	  60A      0.148479    61A      0.149623    62A      0.153293  
	  63A      0.159071    64A      0.163254    65A      0.165308  
	  66A      0.174471    67A      0.177822    68A      0.186859  
	  69A      0.192955    70A      0.198801    71A      0.200064  
	  72A      0.204440    73A      0.207724    74A      0.209806  
	  75A      0.215092    76A      0.221993    77A      0.225443  
	  78A      0.227139    79A      0.233319    80A      0.238414  
	  81A      0.240215    82A      0.243865    83A      0.250828  
	  84A      0.253646    85A      0.259313    86A      0.261486  
	  87A      0.267079    88A      0.271907    89A      0.273470  
	  90A      0.278686    91A      0.279183    92A      0.283773  
	  93A      0.287539    94A      0.292657    95A      0.296031  
	  96A      0.303940    97A      0.305276    98A      0.307944  
	  99A      0.311164   100A      0.320966   101A      0.322680  
	 102A      0.329979   103A      0.330243   104A      0.335495  
	 105A      0.338161   106A      0.346679   107A      0.348021  
	 108A      0.355349   109A      0.356947   110A      0.363206  
	 111A      0.363935   112A      0.367638   113A      0.376755  
	 114A      0.378318   115A      0.381062   116A      0.386408  
	 117A      0.397556   118A      0.399236   119A      0.403604  
	 120A      0.407199   121A      0.408924   122A      0.413572  
	 123A      0.418394   124A      0.423293   125A      0.432325  
	 126A      0.435069   127A      0.437360   128A      0.443710  
	 129A      0.448922   130A      0.453649   131A      0.458221  
	 132A      0.462479   133A      0.466449   134A      0.469908  
	 135A      0.473351   136A      0.477837   137A      0.480923  
	 138A      0.486914   139A      0.490621   140A      0.493446  
	 141A      0.497708   142A      0.503308   143A      0.508233  
	 144A      0.513101   145A      0.514350   146A      0.520210  
	 147A      0.523618   148A      0.528036   149A      0.533369  
	 150A      0.536513   151A      0.538466   152A      0.542532  
	 153A      0.549248   154A      0.553156   155A      0.556458  
	 156A      0.558938   157A      0.566509   158A      0.568285  
	 159A      0.570282   160A      0.579329   161A      0.583716  
	 162A      0.589658   163A      0.593033   164A      0.596821  
	 165A      0.599927   166A      0.605211   167A      0.613178  
	 168A      0.615778   169A      0.627560   170A      0.630574  
	 171A      0.633231   172A      0.635944   173A      0.638301  
	 174A      0.648676   175A      0.649320   176A      0.656885  
	 177A      0.664199   178A      0.669146   179A      0.671557  
	 180A      0.682172   181A      0.690449   182A      0.695576  
	 183A      0.701352   184A      0.704019   185A      0.707506  
	 186A      0.717284   187A      0.722379   188A      0.726275  
	 189A      0.733254   190A      0.738216   191A      0.741284  
	 192A      0.750154   193A      0.759564   194A      0.761116  
	 195A      0.766215   196A      0.773917   197A      0.780957  
	 198A      0.784761   199A      0.790649   200A      0.798215  
	 201A      0.802067   202A      0.809369   203A      0.810670  
	 204A      0.815042   205A      0.821092   206A      0.826773  
	 207A      0.831927   208A      0.838981   209A      0.845736  
	 210A      0.853343   211A      0.859868   212A      0.864215  
	 213A      0.869985   214A      0.871735   215A      0.876895  
	 216A      0.888916   217A      0.894396   218A      0.900495  
	 219A      0.906390   220A      0.910372   221A      0.915435  
	 222A      0.921573   223A      0.926713   224A      0.930132  
	 225A      0.933386   226A      0.945268   227A      0.947149  
	 228A      0.951475   229A      0.953716   230A      0.959196  
	 231A      0.965898   232A      0.969723   233A      0.977194  
	 234A      0.981225   235A      0.985545   236A      0.988959  
	 237A      0.996321   238A      0.998632   239A      1.006938  
	 240A      1.012729   241A      1.021401   242A      1.023646  
	 243A      1.033289   244A      1.036997   245A      1.040060  
	 246A      1.044685   247A      1.051343   248A      1.058655  
	 249A      1.065229   250A      1.070794   251A      1.078658  
	 252A      1.081363   253A      1.090381   254A      1.094490  
	 255A      1.103235   256A      1.106298   257A      1.112172  
	 258A      1.112383   259A      1.119133   260A      1.127859  
	 261A      1.132367   262A      1.134419   263A      1.138611  
	 264A      1.143545   265A      1.148553   266A      1.158438  
	 267A      1.164154   268A      1.164865   269A      1.176789  
	 270A      1.179674   271A      1.182033   272A      1.185868  
	 273A      1.187742   274A      1.195137   275A      1.200497  
	 276A      1.206799   277A      1.216423   278A      1.217397  
	 279A      1.226047   280A      1.228112   281A      1.231086  
	 282A      1.238785   283A      1.241931   284A      1.243888  
	 285A      1.257166   286A      1.264427   287A      1.266255  
	 288A      1.275260   289A      1.277898   290A      1.283590  
	 291A      1.285936   292A      1.293885   293A      1.297422  
	 294A      1.306289   295A      1.311131   296A      1.312506  
	 297A      1.318502   298A      1.328915   299A      1.331460  
	 300A      1.338955   301A      1.352465   302A      1.357369  
	 303A      1.365810   304A      1.366313   305A      1.371679  
	 306A      1.384326   307A      1.390222   308A      1.391938  
	 309A      1.397475   310A      1.406080   311A      1.406257  
	 312A      1.409011   313A      1.414908   314A      1.424137  
	 315A      1.430072   316A      1.430992   317A      1.441894  
	 318A      1.443022   319A      1.446980   320A      1.461308  
	 321A      1.471397   322A      1.475951   323A      1.477861  
	 324A      1.488683   325A      1.496042   326A      1.497243  
	 327A      1.510213   328A      1.512217   329A      1.517951  
	 330A      1.523856   331A      1.536685   332A      1.537115  
	 333A      1.541934   334A      1.545226   335A      1.559892  
	 336A      1.565860   337A      1.574232   338A      1.580320  
	 339A      1.587275   340A      1.594769   341A      1.596988  
	 342A      1.600348   343A      1.605679   344A      1.612408  
	 345A      1.618345   346A      1.624591   347A      1.639586  
	 348A      1.641964   349A      1.648301   350A      1.657036  
	 351A      1.664732   352A      1.675170   353A      1.680233  
	 354A      1.681465   355A      1.692000   356A      1.696575  
	 357A      1.708938   358A      1.716374   359A      1.726925  
	 360A      1.730814   361A      1.735859   362A      1.744913  
	 363A      1.751928   364A      1.753787   365A      1.762497  
	 366A      1.768860   367A      1.782816   368A      1.787333  
	 369A      1.788692   370A      1.800987   371A      1.806028  
	 372A      1.811430   373A      1.820169   374A      1.828916  
	 375A      1.831901   376A      1.847569   377A      1.852383  
	 378A      1.859800   379A      1.864669   380A      1.871711  
	 381A      1.879197   382A      1.886688   383A      1.893652  
	 384A      1.901457   385A      1.904576   386A      1.916483  
	 387A      1.918668   388A      1.928694   389A      1.934503  
	 390A      1.943202   391A      1.954831   392A      1.960467  
	 393A      1.975344   394A      1.980060   395A      1.989221  
	 396A      1.996439   397A      2.006479   398A      2.018497  
	 399A      2.022739   400A      2.023163   401A      2.034207  
	 402A      2.044974   403A      2.045877   404A      2.057205  
	 405A      2.060820   406A      2.062686   407A      2.079255  
	 408A      2.087229   409A      2.092916   410A      2.097505  
	 411A      2.098590   412A      2.112490   413A      2.119588  
	 414A      2.130680   415A      2.140220   416A      2.147704  
	 417A      2.150997   418A      2.153813   419A      2.170511  
	 420A      2.177542   421A      2.187937   422A      2.193458  
	 423A      2.197157   424A      2.200800   425A      2.215892  
	 426A      2.227429   427A      2.232021   428A      2.237042  
	 429A      2.250421   430A      2.253417   431A      2.261904  
	 432A      2.269788   433A      2.282254   434A      2.285392  
	 435A      2.291589   436A      2.305977   437A      2.319087  
	 438A      2.329115   439A      2.335578   440A      2.343101  
	 441A      2.351078   442A      2.355196   443A      2.360143  
	 444A      2.368816   445A      2.373866   446A      2.384984  
	 447A      2.387599   448A      2.402937   449A      2.409195  
	 450A      2.417340   451A      2.429854   452A      2.433433  
	 453A      2.444712   454A      2.463833   455A      2.483196  
	 456A      2.486888   457A      2.489888   458A      2.503296  
	 459A      2.515896   460A      2.519318   461A      2.534800  
	 462A      2.535770   463A      2.549786   464A      2.556288  
	 465A      2.557953   466A      2.569725   467A      2.576170  
	 468A      2.590220   469A      2.601341   470A      2.602193  
	 471A      2.617152   472A      2.621281   473A      2.622621  
	 474A      2.643353   475A      2.658844   476A      2.665211  
	 477A      2.669785   478A      2.673234   479A      2.679870  
	 480A      2.689849   481A      2.695716   482A      2.702036  
	 483A      2.705070   484A      2.715703   485A      2.722719  
	 486A      2.734144   487A      2.739552   488A      2.750919  
	 489A      2.766805   490A      2.767949   491A      2.775310  
	 492A      2.791789   493A      2.800409   494A      2.803352  
	 495A      2.814690   496A      2.815248   497A      2.829566  
	 498A      2.830515   499A      2.835606   500A      2.847644  
	 501A      2.856639   502A      2.870544   503A      2.885397  
	 504A      2.887796   505A      2.895245   506A      2.904520  
	 507A      2.913423   508A      2.919244   509A      2.930072  
	 510A      2.935090   511A      2.940734   512A      2.969468  
	 513A      2.976658   514A      2.984507   515A      2.990008  
	 516A      3.002243   517A      3.006192   518A      3.019905  
	 519A      3.022914   520A      3.037956   521A      3.041445  
	 522A      3.055155   523A      3.066884   524A      3.072527  
	 525A      3.091519   526A      3.094277   527A      3.103424  
	 528A      3.113448   529A      3.122035   530A      3.130271  
	 531A      3.137717   532A      3.146327   533A      3.169245  
	 534A      3.179895   535A      3.182699   536A      3.189659  
	 537A      3.203712   538A      3.209292   539A      3.227789  
	 540A      3.239431   541A      3.252359   542A      3.271963  
	 543A      3.276105   544A      3.287777   545A      3.299194  
	 546A      3.308121   547A      3.312754   548A      3.320448  
	 549A      3.341665   550A      3.347027   551A      3.368814  
	 552A      3.372245   553A      3.399159   554A      3.402169  
	 555A      3.408522   556A      3.417850   557A      3.435621  
	 558A      3.438128   559A      3.476490   560A      3.479374  
	 561A      3.483532   562A      3.505775   563A      3.529584  
	 564A      3.537281   565A      3.550276   566A      3.578303  
	 567A      3.589558   568A      3.594136   569A      3.616537  
	 570A      3.620532   571A      3.627517   572A      3.640047  
	 573A      3.661662   574A      3.676305   575A      3.690981  
	 576A      3.713145   577A      3.724118   578A      3.746678  
	 579A      3.747202   580A      3.766640   581A      3.778041  
	 582A      3.784292   583A      3.803183   584A      3.810603  
	 585A      3.818512   586A      3.832626   587A      3.841187  
	 588A      3.853884   589A      3.867399   590A      3.879110  
	 591A      3.891219   592A      3.911881   593A      3.914561  
	 594A      3.936596   595A      3.945146   596A      3.951094  
	 597A      3.960975   598A      3.969308   599A      3.976702  
	 600A      3.996029   601A      4.005178   602A      4.031530  
	 603A      4.035969   604A      4.040755   605A      4.053640  
	 606A      4.056068   607A      4.075231   608A      4.088267  
	 609A      4.110490   610A      4.123985   611A      4.137592  
	 612A      4.142153   613A      4.151284   614A      4.161603  
	 615A      4.190437   616A      4.207950   617A      4.211174  
	 618A      4.226889   619A      4.237785   620A      4.238423  
	 621A      4.246440   622A      4.269887   623A      4.271762  
	 624A      4.294155   625A      4.310234   626A      4.312656  
	 627A      4.333184   628A      4.337936   629A      4.346804  
	 630A      4.365611   631A      4.375804   632A      4.396993  
	 633A      4.406744   634A      4.414812   635A      4.431688  
	 636A      4.439383   637A      4.447480   638A      4.458286  
	 639A      4.465716   640A      4.474514   641A      4.493902  
	 642A      4.499136   643A      4.505709   644A      4.527052  
	 645A      4.540646   646A      4.558876   647A      4.569930  
	 648A      4.585126   649A      4.590701   650A      4.605440  
	 651A      4.610493   652A      4.621838   653A      4.651760  
	 654A      4.661073   655A      4.665826   656A      4.693274  
	 657A      4.707193   658A      4.723231   659A      4.742001  
	 660A      4.752159   661A      4.755513   662A      4.769151  
	 663A      4.775903   664A      4.800168   665A      4.801844  
	 666A      4.828321   667A      4.835370   668A      4.842686  
	 669A      4.847909   670A      4.851079   671A      4.872829  
	 672A      4.898906   673A      4.911711   674A      4.914439  
	 675A      4.930265   676A      4.944383   677A      4.958259  
	 678A      4.963148   679A      4.971927   680A      4.975817  
	 681A      4.988196   682A      5.010228   683A      5.013494  
	 684A      5.029353   685A      5.035637   686A      5.053903  
	 687A      5.067744   688A      5.078391   689A      5.086486  
	 690A      5.108072   691A      5.114705   692A      5.126019  
	 693A      5.139950   694A      5.146504   695A      5.165845  
	 696A      5.174088   697A      5.181278   698A      5.190006  
	 699A      5.204470   700A      5.210784   701A      5.224546  
	 702A      5.246169   703A      5.250802   704A      5.255692  
	 705A      5.274365   706A      5.285728   707A      5.294213  
	 708A      5.316487   709A      5.333325   710A      5.344420  
	 711A      5.356849   712A      5.371969   713A      5.391187  
	 714A      5.411068   715A      5.421074   716A      5.428530  
	 717A      5.437686   718A      5.446868   719A      5.457151  
	 720A      5.473262   721A      5.480531   722A      5.505314  
	 723A      5.509375   724A      5.524249   725A      5.537089  
	 726A      5.554437   727A      5.568371   728A      5.580632  
	 729A      5.608415   730A      5.613056   731A      5.642219  
	 732A      5.650020   733A      5.663529   734A      5.672628  
	 735A      5.683850   736A      5.691008   737A      5.698873  
	 738A      5.715390   739A      5.738608   740A      5.753845  
	 741A      5.773055   742A      5.803091   743A      5.816414  
	 744A      5.824935   745A      5.836745   746A      5.847708  
	 747A      5.854390   748A      5.869295   749A      5.872974  
	 750A      5.907832   751A      5.928290   752A      5.941801  
	 753A      5.952445   754A      5.970322   755A      5.996254  
	 756A      6.000419   757A      6.008538   758A      6.031919  
	 759A      6.054041   760A      6.059139   761A      6.069421  
	 762A      6.092906   763A      6.146345   764A      6.155606  
	 765A      6.167485   766A      6.187022   767A      6.204709  
	 768A      6.220905   769A      6.241592   770A      6.253551  
	 771A      6.264143   772A      6.298398   773A      6.313120  
	 774A      6.350918   775A      6.374220   776A      6.415162  
	 777A      6.448733   778A      6.502976   779A      6.555766  
	 780A      6.568527   781A      6.581121   782A      6.613557  
	 783A      6.615882   784A      6.669536   785A      6.677283  
	 786A      6.680895   787A      6.702771   788A      6.736953  
	 789A      6.780673   790A      6.802822   791A      6.806772  
	 792A      6.827694   793A      6.842247   794A      6.856200  
	 795A      6.858521   796A      6.884856   797A      6.898181  
	 798A      6.899032   799A      6.915541   800A      6.942431  
	 801A      6.947291   802A      6.965245   803A      6.981738  
	 804A      7.001033   805A      7.025287   806A      7.044742  
	 807A      7.063107   808A      7.083496   809A      7.114810  
	 810A      7.143519   811A      7.151932   812A      7.209717  
	 813A      7.252141   814A      7.276192   815A      7.331709  
	 816A      7.342860   817A      7.352417   818A      7.374699  
	 819A      7.413008   820A      7.455965   821A      7.501045  
	 822A      7.504295   823A      7.518299   824A      7.543858  
	 825A      7.553300   826A      7.599131   827A      7.617969  
	 828A      7.647755   829A      7.687924   830A      7.694059  
	 831A      7.703026   832A      7.739329   833A      7.750007  
	 834A      7.770060   835A      7.779782   836A      7.805162  
	 837A      7.815441   838A      7.824569   839A      7.863929  
	 840A      7.883425   841A      7.910219   842A      7.926505  
	 843A      7.933194   844A      7.957198   845A      7.983565  
	 846A      7.997677   847A      8.012278   848A      8.019123  
	 849A      8.035637   850A      8.047580   851A      8.052866  
	 852A      8.071853   853A      8.091981   854A      8.102256  
	 855A      8.114663   856A      8.138038   857A      8.150938  
	 858A      8.164515   859A      8.300791   860A      8.312384  
	 861A      8.383295   862A      8.400559   863A      8.457921  
	 864A      8.478475   865A      8.630869   866A      8.769822  
	 867A      8.792423   868A      8.821598   869A      8.968061  
	 870A      9.087758   871A      9.158196   872A      9.271292  
	 873A      9.335549   874A      9.688948   875A      9.793619  
	 876A      9.875822   877A     10.038269   878A     10.063112  
	 879A     10.079872   880A     10.148820   881A     10.237510  
	 882A     10.364226   883A     10.401347   884A     10.411352  
	 885A     10.482224   886A     10.533477   887A     10.608195  
	 888A     10.665668   889A     11.091686   890A     11.344965  
	 891A     11.452186   892A     11.605178   893A     12.106883  
	 894A     12.187990   895A     12.233226   896A     12.343083  
	 897A     12.649945   898A     12.654090   899A     12.781736  
	 900A     12.953047   901A     13.563055   902A     13.817844  
	 903A     14.261462   904A     14.338302   905A     16.696063  
	 906A     17.110858   907A     17.257981   908A     17.563561  
	 909A     18.869795   910A     20.379559   911A     21.069471  
	 912A     21.478175   913A     52.905443   914A     53.149700  
	 915A     56.010987   916A     56.960405   917A     62.574327  
	 918A     63.279536   919A     70.704099   920A     71.203643  

	Final Occupation by Irrep:
	          A 
	DOCC [    29 ]

  Energy converged.

  @DF-RHF Final Energy:  -412.62435143833380

   => Energetics <=

    Nuclear Repulsion Energy =            357.1602736772268258
    One-Electron Energy =               -1270.6964804011647630
    Two-Electron Energy =                 500.9118552856028828
    DFT Exchange-Correlation Energy =       0.0000000000000000
    Empirical Dispersion Energy =           0.0000000000000000
    Total Energy =                       -412.6243514383351112



Properties will be evaluated at   0.000000,   0.000000,   0.000000 Bohr
  ==> Properties <==


Properties computed using the SCF density density matrix
  Nuclear Dipole Moment: (a.u.)
     X:  -141.5904      Y:   -22.1489      Z:    -2.9740

  Electronic Dipole Moment: (a.u.)
     X:   141.0221      Y:    23.6405      Z:     1.8021

  Dipole Moment: (a.u.)
     X:    -0.5684      Y:     1.4915      Z:    -1.1719     Total:     1.9802

  Dipole Moment: (Debye)
     X:    -1.4446      Y:     3.7911      Z:    -2.9788     Total:     5.0332


  Saving occupied orbitals to File 180.

  Saving SAPT 2-MONOMER_B file.

*** tstop() called on node36.bme.utexas.edu at Tue May 20 11:39:02 2014
Module time:
	user time   =    1099.48 seconds =      18.32 minutes
	system time =       9.94 seconds =       0.17 minutes
	total time  =        150 seconds =       2.50 minutes
Total time:
	user time   =    3906.83 seconds =      65.11 minutes
	system time =      39.41 seconds =       0.66 minutes
	total time  =        543 seconds =       9.05 minutes
  No DF_BASIS_SAPT auxiliary basis selected, defaulting to aug-cc-pvtz-ri

  //>>>>>>>>>>>>>>>>>>>>>>>>>>>>>>>>>>>//
  //               SAPT2+              //
  //<<<<<<<<<<<<<<<<<<<<<<<<<<<<<<<<<<<//


*** tstart() called on node36.bme.utexas.edu
*** at Tue May 20 11:39:02 2014

        SAPT2+  
    Ed Hohenstein
     6 June 2009

      Orbital Information
  --------------------------
    NSO        =       920
    NMO        =       920
    NRI        =      2064
    NOCC A     =        29
    NOCC B     =        29
    FOCC A     =         8
    FOCC B     =         8
    NVIR A     =       891
    NVIR B     =       891

    Estimated memory usage: 29132.3 MB

    Natural Orbital Cutoff:   1.000E-06
    Disp(T3) Truncation:             No
    CCD (vv|vv) Truncation:          No
    MBPT T2 Truncation:              No

    Elst10,r            =    -0.055060933011 H
    Exch10 (S^2)        =     0.110508422318 H
    Exch10              =     0.111705884981 H
    Ind20,r (A<-B)      =    -0.027482261969 H
    Ind20,r (B<-A)      =    -0.027482261970 H
    Ind20,r             =    -0.054964523939 H
    Exch-Ind20,r (A<-B) =     0.023871671731 H
    Exch-Ind20,r (B<-A) =     0.023871671732 H
    Exch-Ind20,r        =     0.047743343463 H
    Disp20              =    -0.060482220385 H
    Exch-Disp20         =     0.010943084646 H
    Elst12,r            =    -0.002276016258 H
    Exch11              =     0.001865793586 H
    Exch12              =     0.003743303128 H
    Ind22               =    -0.003847838314 H
    Disp21              =     0.015178891578 H
    Disp22 (SDQ)        =    -0.002124642645 H

    (i =   1 of  21)      22945 seconds
    (i =   2 of  21)      46642 seconds
    (i =   3 of  21)      69853 seconds
    (i =   4 of  21)      93377 seconds
    (i =   5 of  21)     116790 seconds
    (i =   6 of  21)     141211 seconds
    (i =   7 of  21)     165870 seconds
    (i =   8 of  21)     190505 seconds
    (i =   9 of  21)     215157 seconds
    (i =  10 of  21)     239140 seconds
    (i =  11 of  21)     263084 seconds
    (i =  12 of  21)     287042 seconds
    (i =  13 of  21)     310995 seconds
    (i =  14 of  21)     334950 seconds
    (i =  15 of  21)     358900 seconds
    (i =  16 of  21)     382854 seconds
    (i =  17 of  21)     406804 seconds
    (i =  18 of  21)     430961 seconds
    (i =  19 of  21)     455426 seconds
    (i =  20 of  21)     479926 seconds
    (i =  21 of  21)     504414 seconds

    Disp220 (T)         =    -0.006295843498 H

    (i =   1 of  21)      22625 seconds
    (i =   2 of  21)      45316 seconds
    (i =   3 of  21)      68267 seconds
    (i =   4 of  21)      91945 seconds
    (i =   5 of  21)     114763 seconds
    (i =   6 of  21)     137638 seconds
    (i =   7 of  21)     160515 seconds
    (i =   8 of  21)     183376 seconds
    (i =   9 of  21)     206187 seconds
    (i =  10 of  21)     236017 seconds
    (i =  11 of  21)     277740 seconds
    (i =  12 of  21)     303432 seconds
    (i =  13 of  21)     329134 seconds
    (i =  14 of  21)     355758 seconds
    (i =  15 of  21)     382146 seconds
    (i =  16 of  21)     408185 seconds
    (i =  17 of  21)     434312 seconds
    (i =  18 of  21)     460667 seconds
    (i =  19 of  21)     486560 seconds
    (i =  20 of  21)     512429 seconds
    (i =  21 of  21)     538127 seconds

    Disp202 (T)         =    -0.006295843498 H

    Disp22 (T)          =    -0.012591686996 H

    SAPT Results  
  -----------------------------------------------------------------------
    Electrostatics         -57.33694927 mH     -35.97948037 kcal mol^-1
      Elst10,r             -55.06093301 mH     -34.55125854 kcal mol^-1
      Elst12,r              -2.27601626 mH      -1.42822182 kcal mol^-1

    Exchange               117.31498169 mH      73.61626551 kcal mol^-1
      Exch10               111.70588498 mH      70.09650403 kcal mol^-1
      Exch10(S^2)          110.50842232 mH      69.34508483 kcal mol^-1
      Exch11(S^2)            1.86579359 mH       1.17080320 kcal mol^-1
      Exch12(S^2)            3.74330313 mH       2.34895827 kcal mol^-1

    Induction              -12.54183850 mH      -7.87012281 kcal mol^-1
      Ind20,r              -54.96452394 mH     -34.49076093 kcal mol^-1
      Ind22                 -3.84783831 mH      -2.41455510 kcal mol^-1
      Exch-Ind20,r          47.74334346 mH      29.95940158 kcal mol^-1
      Exch-Ind22             3.34231342 mH       2.09733343 kcal mol^-1
      delta HF,r (2)        -4.81513314 mH      -3.02154179 kcal mol^-1

    Dispersion             -49.07657380 mH     -30.79601629 kcal mol^-1
      Disp20               -60.48222038 mH     -37.95316787 kcal mol^-1
      Disp21                15.17889158 mH       9.52489866 kcal mol^-1
      Disp22 (SDQ)          -2.12464265 mH      -1.33323344 kcal mol^-1
      Disp22 (T)           -12.59168700 mH      -7.90140321 kcal mol^-1
      Exch-Disp20           10.94308465 mH       6.86688957 kcal mol^-1

    Total HF                44.60863836 mH      27.99234435 kcal mol^-1
    Total SAPT0             -4.93049738 mH      -3.09393395 kcal mol^-1
    Total SAPT2             -2.10294182 mH      -1.31961597 kcal mol^-1
    Total SAPT2+            -1.64037988 mH      -1.02935396 kcal mol^-1

*** tstop() called on node36.bme.utexas.edu at Mon Jun  2 06:48:14 2014
Module time:
	user time   = 4204605.59 seconds =   70076.76 minutes
	system time = 2797144.99 seconds =   46619.08 minutes
	total time  =    1105752 seconds =   18429.20 minutes
Total time:
	user time   = 4208512.44 seconds =   70141.87 minutes
	system time = 2797184.40 seconds =   46619.74 minutes
	total time  =    1106295 seconds =   18438.25 minutes

*** PSI4 exiting successfully. Buy a developer a beer!
