    -----------------------------------------------------------------------
          PSI4: An Open-Source Ab Initio Electronic Structure Package
                              PSI 4.0.0-beta4 Driver

    J. M. Turney, A. C. Simmonett, R. M. Parrish, E. G. Hohenstein,
    F. A. Evangelista, J. T. Fermann, B. J. Mintz, L. A. Burns, J. J. Wilke,
    M. L. Abrams, N. J. Russ, M. L. Leininger, C. L. Janssen, E. T. Seidl,
    W. D. Allen, H. F. Schaefer, R. A. King, E. F. Valeev, C. D. Sherrill,
    and T. D. Crawford, WIREs Comput. Mol. Sci., (2011) (doi: 10.1002/wcms.93)

                         Additional Contributions by
    A. E. DePrince, M. Saitow, U. Bozkaya, A. Yu. Sokolov
    -----------------------------------------------------------------------

    Process ID:  53623
    PSI4DATADIR: /home/xzhu216/psi4/psi4-install/share/psi

    Using LocalCommunicator (Number of processes = 1)

    Memory level set to 256.000 MB

  ==> Input File <==

--------------------------------------------------------------------------
#psi4
#
memory 40 gb

molecule Uracil_Uracil {
0 1
    N     1.376901114     0.839747467     0.734624939
    H     1.051812405     1.386223848     1.523355628
    C     1.308982712     1.457529813    -0.520654996
    O     0.920561362     2.611077765    -0.625976731
    N     2.011422932    -1.213208303    -0.098071819
    H     1.727285511     0.990842685    -2.611995560
    C     2.025736871    -0.697171229    -1.364397399
    H     2.297516982    -1.391060038    -2.145645314
    C     1.714512349     0.591937798    -1.612487223
    H     2.129454216    -2.201520905     0.056829125
    C     1.645945031    -0.485205977     1.018718301
    O     1.561116018    -0.971816376     2.129809048
--
0 1
    N    -0.544079414    -0.695965403     0.734624939
    H    -0.218990705    -1.242441784     1.523355628
    C    -0.476161012    -1.313747749    -0.520654996
    O    -0.087739662    -2.467295701    -0.625976731
    N    -1.178601232     1.356990367    -0.098071819
    H    -0.894463811    -0.847060621    -2.611995560
    C    -1.192915171     0.840953293    -1.364397399
    H    -1.464695282     1.534842102    -2.145645314
    C    -0.881690649    -0.448155734    -1.612487223
    H    -1.296632516     2.345302969     0.056829125
    C    -0.813123331     0.628988041     1.018718301
    O    -0.728294318     1.115598440     2.129809048

units angstrom
no_reorient  #important for SAPT in psi4, default
symmetry c1  #important for SAPT in psi4, default
}

set {
basis aug-cc-pVTZ
scf_type DF
freeze_core True
}
energy('sapt2+')
--------------------------------------------------------------------------

  Memory set to  40.000 GiB by Python script.

  //>>>>>>>>>>>>>>>>>>>>>>>>>>>>>>>>>>>//
  //              Dimer HF             //
  //<<<<<<<<<<<<<<<<<<<<<<<<<<<<<<<<<<<//


  No DF_BASIS_SCF auxiliary basis selected, defaulting to aug-cc-pvtz-jkfit


*** tstart() called on genome.bme.utexas.edu
*** at Tue Apr  8 17:02:14 2014


         ---------------------------------------------------------
                                   SCF
            by Justin Turney, Rob Parrish, and Andy Simmonett
                              RHF Reference
                        8 Threads,  40000 MiB Core
         ---------------------------------------------------------

  ==> Geometry <==

    Molecular point group: c1
    Full point group: C2

    Geometry (in Angstrom), charge = 0, multiplicity = 1:

       Center              X                  Y                   Z       
    ------------   -----------------  -----------------  -----------------
           N          0.960490264000     0.767856435000     0.734453602703
           H          0.635401555000     1.314332816000     1.523184291703
           C          0.892571862000     1.385638781000    -0.520826332297
           O          0.504150512000     2.539186733000    -0.626148067297
           N          1.595012082000    -1.285099335000    -0.098243155297
           H          1.310874661000     0.918951653000    -2.612166896297
           C          1.609326021000    -0.769062261000    -1.364568735297
           H          1.881106132000    -1.462951070000    -2.145816650297
           C          1.298101499000     0.520046766000    -1.612658559297
           H          1.713043366000    -2.273411937000     0.056657788703
           C          1.229534181000    -0.557097009000     1.018546964703
           O          1.144705168000    -1.043707408000     2.129637711703
           N         -0.960490264000    -0.767856435000     0.734453602703
           H         -0.635401555000    -1.314332816000     1.523184291703
           C         -0.892571862000    -1.385638781000    -0.520826332297
           O         -0.504150512000    -2.539186733000    -0.626148067297
           N         -1.595012082000     1.285099335000    -0.098243155297
           H         -1.310874661000    -0.918951653000    -2.612166896297
           C         -1.609326021000     0.769062261000    -1.364568735297
           H         -1.881106132000     1.462951070000    -2.145816650297
           C         -1.298101499000    -0.520046766000    -1.612658559297
           H         -1.713043366000     2.273411937000     0.056657788703
           C         -1.229534181000     0.557097009000     1.018546964703
           O         -1.144705168000     1.043707408000     2.129637711703

  Running in c1 symmetry.

  Nuclear repulsion = 1256.317187911951123

  Charge       = 0
  Multiplicity = 1
  Electrons    = 116
  Nalpha       = 58
  Nbeta        = 58

  ==> Algorithm <==

  SCF Algorithm Type is DF.
  DIIS enabled.
  MOM disabled.
  Fractional occupation disabled.
  Guess Type is CORE.
  Energy threshold   = 1.00e-08
  Density threshold  = 1.00e-08
  Integral threshold = 0.00e+00

  ==> Primary Basis <==

  Basis Set: AUG-CC-PVTZ
    Number of shells: 296
    Number of basis function: 920
    Number of Cartesian functions: 1080
    Spherical Harmonics?: true
    Max angular momentum: 3

  ==> Pre-Iterations <==

   -------------------------------------------------------
    Irrep   Nso     Nmo     Nalpha   Nbeta   Ndocc  Nsocc
   -------------------------------------------------------
     A        920     920       0       0       0       0
   -------------------------------------------------------
    Total     920     920      58      58      58       0
   -------------------------------------------------------

 OEINTS: Wrapper to libmints.
   by Justin Turney

   Calculation information:
      Number of atoms:                  24
      Number of AO shells:             296
      Number of SO shells:             296
      Number of primitives:            568
      Number of atomic orbitals:      1080
      Number of basis functions:       920

      Number of irreps:                  1
      Number of functions per irrep: [ 920 ]

      Overlap, kinetic, potential, dipole, and quadrupole integrals
        stored in file 35.

  ==> Integral Setup <==

  ==> DFJK: Density-Fitted J/K Matrices <==

    J tasked:                  Yes
    K tasked:                  Yes
    wK tasked:                  No
    OpenMP threads:              8
    Integrals threads:           8
    Memory (MB):             28610
    Algorithm:                Core
    Integral Cache:           SAVE
    Schwarz Cutoff:          0E+00
    Fitting Condition:       1E-12

   => Auxiliary Basis Set <=

  Basis Set: aug-cc-pvtz-jkfit
    Number of shells: 592
    Number of basis function: 2032
    Number of Cartesian functions: 2536
    Spherical Harmonics?: true
    Max angular momentum: 4

  Minimum eigenvalue in the overlap matrix is 1.3619259677E-06.
  Using Symmetric Orthogonalization.
  SCF Guess: Core (One-Electron) Hamiltonian.

  Guess energy:  -680.61500038486793

  ==> Iterations <==

                        Total Energy        Delta E     RMS |[F,P]|

   @RHF iter   1:  -550.83193222582463   -5.50832e+02   2.61111e-02 
   @RHF iter   2:  -537.56188004268620    1.32701e+01   1.56335e-02 DIIS
   @RHF iter   3:  -563.95574753496294   -2.63939e+01   1.88514e-02 DIIS
   @RHF iter   4:  -770.24042962695694   -2.06285e+02   1.05744e-02 DIIS
   @RHF iter   5:  -771.66403333977019   -1.42360e+00   8.83109e-03 DIIS
   @RHF iter   6:  -823.28774432919386   -5.16237e+01   2.25009e-03 DIIS
   @RHF iter   7:  -824.72878881895281   -1.44104e+00   1.07010e-03 DIIS
   @RHF iter   8:  -825.08087073803722   -3.52082e-01   2.95073e-04 DIIS
   @RHF iter   9:  -825.11652149739461   -3.56508e-02   8.63139e-05 DIIS
   @RHF iter  10:  -825.12076755663043   -4.24606e-03   3.00364e-05 DIIS
   @RHF iter  11:  -825.12140266615756   -6.35110e-04   1.29687e-05 DIIS
   @RHF iter  12:  -825.12160211458627   -1.99448e-04   7.32862e-06 DIIS
   @RHF iter  13:  -825.12165771403193   -5.55994e-05   3.12865e-06 DIIS
   @RHF iter  14:  -825.12166894623147   -1.12322e-05   9.48054e-07 DIIS
   @RHF iter  15:  -825.12166981730911   -8.71078e-07   4.19220e-07 DIIS
   @RHF iter  16:  -825.12167005803735   -2.40728e-07   1.73229e-07 DIIS
   @RHF iter  17:  -825.12167009742757   -3.93902e-08   6.15286e-08 DIIS
   @RHF iter  18:  -825.12167010429926   -6.87169e-09   3.00980e-08 DIIS
   @RHF iter  19:  -825.12167010531789   -1.01863e-09   9.29036e-09 DIIS

  ==> Post-Iterations <==

	Orbital Energies (a.u.)
	-----------------------

	Doubly Occupied:                                                      

	   1A    -20.549610     2A    -20.549610     3A    -20.545763  
	   4A    -20.545762     5A    -15.636730     6A    -15.636729  
	   7A    -15.620219     8A    -15.620202     9A    -11.423991  
	  10A    -11.423990    11A    -11.390632    12A    -11.390630  
	  13A    -11.337035    14A    -11.337032    15A    -11.258514  
	  16A    -11.258510    17A     -1.465764    18A     -1.431022  
	  19A     -1.415992    20A     -1.409307    21A     -1.317523  
	  22A     -1.317247    23A     -1.260293    24A     -1.246475  
	  25A     -1.104189    26A     -1.083827    27A     -0.943476  
	  28A     -0.935404    29A     -0.910109    30A     -0.905551  
	  31A     -0.814540    32A     -0.809030    33A     -0.773874  
	  34A     -0.765735    35A     -0.745845    36A     -0.723042  
	  37A     -0.714645    38A     -0.692056    39A     -0.681972  
	  40A     -0.660122    41A     -0.655975    42A     -0.639402  
	  43A     -0.621618    44A     -0.619642    45A     -0.610072  
	  46A     -0.608951    47A     -0.588482    48A     -0.583787  
	  49A     -0.511522    50A     -0.505801    51A     -0.492304  
	  52A     -0.482612    53A     -0.461667    54A     -0.457837  
	  55A     -0.449756    56A     -0.428525    57A     -0.410636  
	  58A     -0.334861  

	Virtual:                                                              

	  59A      0.016870    60A      0.025380    61A      0.035924  
	  62A      0.036051    63A      0.047446    64A      0.049475  
	  65A      0.053485    66A      0.059273    67A      0.061922  
	  68A      0.071283    69A      0.074208    70A      0.083071  
	  71A      0.087503    72A      0.090268    73A      0.095067  
	  74A      0.098532    75A      0.100196    76A      0.105850  
	  77A      0.106422    78A      0.109301    79A      0.114946  
	  80A      0.119573    81A      0.126365    82A      0.129261  
	  83A      0.131669    84A      0.132587    85A      0.134037  
	  86A      0.139767    87A      0.140590    88A      0.142668  
	  89A      0.144535    90A      0.148702    91A      0.149656  
	  92A      0.154429    93A      0.163764    94A      0.165159  
	  95A      0.166917    96A      0.174954    97A      0.190186  
	  98A      0.193368    99A      0.194079   100A      0.202806  
	 101A      0.207449   102A      0.217587   103A      0.218155  
	 104A      0.223978   105A      0.224405   106A      0.230361  
	 107A      0.235545   108A      0.242209   109A      0.244183  
	 110A      0.244495   111A      0.251515   112A      0.255698  
	 113A      0.257406   114A      0.262123   115A      0.265675  
	 116A      0.269525   117A      0.270733   118A      0.280596  
	 119A      0.282519   120A      0.285588   121A      0.288060  
	 122A      0.291173   123A      0.291747   124A      0.295773  
	 125A      0.298111   126A      0.308860   127A      0.312811  
	 128A      0.314677   129A      0.318415   130A      0.328151  
	 131A      0.329219   132A      0.334058   133A      0.334062  
	 134A      0.340366   135A      0.341005   136A      0.348109  
	 137A      0.354484   138A      0.356045   139A      0.362403  
	 140A      0.362600   141A      0.369734   142A      0.372310  
	 143A      0.376373   144A      0.378567   145A      0.383857  
	 146A      0.388648   147A      0.393147   148A      0.399618  
	 149A      0.403337   150A      0.405738   151A      0.408311  
	 152A      0.414718   153A      0.424339   154A      0.424651  
	 155A      0.435485   156A      0.436039   157A      0.442145  
	 158A      0.450891   159A      0.451940   160A      0.455871  
	 161A      0.456679   162A      0.459971   163A      0.461958  
	 164A      0.474346   165A      0.475997   166A      0.481312  
	 167A      0.482606   168A      0.490565   169A      0.490576  
	 170A      0.495281   171A      0.495438   172A      0.504844  
	 173A      0.505188   174A      0.510488   175A      0.511661  
	 176A      0.514668   177A      0.521260   178A      0.526756  
	 179A      0.528126   180A      0.531758   181A      0.533818  
	 182A      0.539140   183A      0.541834   184A      0.543531  
	 185A      0.545810   186A      0.561336   187A      0.562668  
	 188A      0.565556   189A      0.575442   190A      0.579393  
	 191A      0.580541   192A      0.586995   193A      0.587734  
	 194A      0.594391   195A      0.595590   196A      0.602174  
	 197A      0.606839   198A      0.609823   199A      0.615706  
	 200A      0.624006   201A      0.627299   202A      0.634692  
	 203A      0.634968   204A      0.641682   205A      0.642965  
	 206A      0.651855   207A      0.652342   208A      0.663342  
	 209A      0.664629   210A      0.672637   211A      0.676999  
	 212A      0.687161   213A      0.691367   214A      0.699390  
	 215A      0.703309   216A      0.708321   217A      0.720788  
	 218A      0.722646   219A      0.723927   220A      0.730486  
	 221A      0.733496   222A      0.743740   223A      0.744252  
	 224A      0.748777   225A      0.759320   226A      0.759322  
	 227A      0.760334   228A      0.771772   229A      0.773326  
	 230A      0.777326   231A      0.790550   232A      0.790642  
	 233A      0.801618   234A      0.811251   235A      0.811490  
	 236A      0.821042   237A      0.825636   238A      0.828023  
	 239A      0.833073   240A      0.834172   241A      0.842584  
	 242A      0.845197   243A      0.849718   244A      0.853534  
	 245A      0.863644   246A      0.874128   247A      0.877807  
	 248A      0.881171   249A      0.889010   250A      0.890132  
	 251A      0.895881   252A      0.897033   253A      0.909837  
	 254A      0.913929   255A      0.915372   256A      0.919205  
	 257A      0.932937   258A      0.937566   259A      0.940428  
	 260A      0.951539   261A      0.951618   262A      0.955890  
	 263A      0.963584   264A      0.967137   265A      0.969363  
	 266A      0.976805   267A      0.978522   268A      0.986794  
	 269A      0.989124   270A      0.994785   271A      1.001770  
	 272A      1.003933   273A      1.010823   274A      1.015208  
	 275A      1.017204   276A      1.023060   277A      1.043563  
	 278A      1.043611   279A      1.048367   280A      1.051583  
	 281A      1.053529   282A      1.059845   283A      1.066381  
	 284A      1.070216   285A      1.077862   286A      1.079995  
	 287A      1.093831   288A      1.095595   289A      1.101717  
	 290A      1.107797   291A      1.119076   292A      1.119387  
	 293A      1.123544   294A      1.127236   295A      1.127619  
	 296A      1.130099   297A      1.152465   298A      1.155695  
	 299A      1.165433   300A      1.167075   301A      1.168572  
	 302A      1.174057   303A      1.174882   304A      1.185153  
	 305A      1.188951   306A      1.194762   307A      1.195552  
	 308A      1.211332   309A      1.212641   310A      1.215012  
	 311A      1.215983   312A      1.227870   313A      1.229382  
	 314A      1.237161   315A      1.237812   316A      1.249123  
	 317A      1.249727   318A      1.259563   319A      1.260721  
	 320A      1.270037   321A      1.277163   322A      1.282037  
	 323A      1.283509   324A      1.292580   325A      1.301453  
	 326A      1.309074   327A      1.311623   328A      1.321081  
	 329A      1.323249   330A      1.324754   331A      1.335151  
	 332A      1.336184   333A      1.345224   334A      1.349393  
	 335A      1.358297   336A      1.358786   337A      1.366676  
	 338A      1.372321   339A      1.380117   340A      1.382930  
	 341A      1.384247   342A      1.392375   343A      1.396351  
	 344A      1.398445   345A      1.413649   346A      1.423047  
	 347A      1.423365   348A      1.432710   349A      1.432737  
	 350A      1.442212   351A      1.451232   352A      1.453684  
	 353A      1.463259   354A      1.468716   355A      1.474647  
	 356A      1.487020   357A      1.490955   358A      1.498304  
	 359A      1.503372   360A      1.511968   361A      1.512155  
	 362A      1.519958   363A      1.524424   364A      1.526911  
	 365A      1.532653   366A      1.547444   367A      1.552156  
	 368A      1.553072   369A      1.556457   370A      1.566534  
	 371A      1.577177   372A      1.578889   373A      1.585537  
	 374A      1.588085   375A      1.599961   376A      1.602745  
	 377A      1.616459   378A      1.621396   379A      1.629553  
	 380A      1.638329   381A      1.641351   382A      1.646078  
	 383A      1.656913   384A      1.664523   385A      1.667968  
	 386A      1.668056   387A      1.678993   388A      1.698064  
	 389A      1.699630   390A      1.704449   391A      1.713567  
	 392A      1.722816   393A      1.724974   394A      1.740066  
	 395A      1.742192   396A      1.742346   397A      1.747238  
	 398A      1.748141   399A      1.759856   400A      1.771274  
	 401A      1.782691   402A      1.792588   403A      1.793301  
	 404A      1.794675   405A      1.806614   406A      1.806918  
	 407A      1.815457   408A      1.823242   409A      1.834231  
	 410A      1.843248   411A      1.844428   412A      1.847516  
	 413A      1.848149   414A      1.871875   415A      1.875472  
	 416A      1.877662   417A      1.880469   418A      1.885502  
	 419A      1.887805   420A      1.905999   421A      1.914484  
	 422A      1.926598   423A      1.928149   424A      1.959379  
	 425A      1.963292   426A      1.964944   427A      1.970320  
	 428A      1.974474   429A      1.987997   430A      1.993023  
	 431A      2.005761   432A      2.009611   433A      2.018975  
	 434A      2.021810   435A      2.024100   436A      2.036535  
	 437A      2.045228   438A      2.055073   439A      2.055454  
	 440A      2.074346   441A      2.081743   442A      2.091610  
	 443A      2.097419   444A      2.099700   445A      2.107648  
	 446A      2.109936   447A      2.112308   448A      2.116492  
	 449A      2.145804   450A      2.150675   451A      2.151533  
	 452A      2.167596   453A      2.170602   454A      2.173105  
	 455A      2.179986   456A      2.189002   457A      2.194093  
	 458A      2.204869   459A      2.213861   460A      2.226103  
	 461A      2.229467   462A      2.233672   463A      2.234437  
	 464A      2.246095   465A      2.258871   466A      2.260224  
	 467A      2.271549   468A      2.298265   469A      2.298992  
	 470A      2.310301   471A      2.319111   472A      2.324689  
	 473A      2.333251   474A      2.339945   475A      2.341121  
	 476A      2.348011   477A      2.373586   478A      2.376610  
	 479A      2.383734   480A      2.392828   481A      2.393416  
	 482A      2.401209   483A      2.416316   484A      2.438372  
	 485A      2.438420   486A      2.452909   487A      2.455922  
	 488A      2.486889   489A      2.488760   490A      2.488798  
	 491A      2.498764   492A      2.504732   493A      2.528401  
	 494A      2.530493   495A      2.540009   496A      2.545600  
	 497A      2.552856   498A      2.560875   499A      2.574592  
	 500A      2.583323   501A      2.589345   502A      2.590062  
	 503A      2.608020   504A      2.613543   505A      2.624425  
	 506A      2.627340   507A      2.628564   508A      2.634268  
	 509A      2.643483   510A      2.644562   511A      2.657872  
	 512A      2.660961   513A      2.679598   514A      2.682708  
	 515A      2.697999   516A      2.710956   517A      2.719483  
	 518A      2.721662   519A      2.735866   520A      2.746724  
	 521A      2.749258   522A      2.755101   523A      2.773808  
	 524A      2.774807   525A      2.777225   526A      2.782995  
	 527A      2.802918   528A      2.809347   529A      2.821652  
	 530A      2.822005   531A      2.829993   532A      2.832854  
	 533A      2.844593   534A      2.857898   535A      2.870658  
	 536A      2.885294   537A      2.895769   538A      2.905931  
	 539A      2.908568   540A      2.911372   541A      2.935162  
	 542A      2.937909   543A      2.949840   544A      2.954369  
	 545A      2.963330   546A      2.979042   547A      2.994897  
	 548A      2.995191   549A      3.003335   550A      3.010916  
	 551A      3.013427   552A      3.030826   553A      3.048442  
	 554A      3.065128   555A      3.069584   556A      3.078594  
	 557A      3.081419   558A      3.086811   559A      3.105780  
	 560A      3.113195   561A      3.115830   562A      3.122773  
	 563A      3.158373   564A      3.168071   565A      3.177591  
	 566A      3.178350   567A      3.194765   568A      3.198109  
	 569A      3.213431   570A      3.217319   571A      3.222835  
	 572A      3.261131   573A      3.265824   574A      3.280283  
	 575A      3.298439   576A      3.310494   577A      3.327297  
	 578A      3.331836   579A      3.333242   580A      3.355833  
	 581A      3.371428   582A      3.378699   583A      3.400774  
	 584A      3.403855   585A      3.409218   586A      3.441684  
	 587A      3.446140   588A      3.446628   589A      3.467861  
	 590A      3.489549   591A      3.501950   592A      3.507866  
	 593A      3.526761   594A      3.543252   595A      3.545800  
	 596A      3.558610   597A      3.571115   598A      3.584655  
	 599A      3.601597   600A      3.607349   601A      3.616665  
	 602A      3.640572   603A      3.644150   604A      3.648318  
	 605A      3.673759   606A      3.682266   607A      3.698924  
	 608A      3.703748   609A      3.711156   610A      3.721078  
	 611A      3.738886   612A      3.745429   613A      3.752307  
	 614A      3.759196   615A      3.769768   616A      3.785309  
	 617A      3.790693   618A      3.826407   619A      3.834787  
	 620A      3.838986   621A      3.857642   622A      3.860991  
	 623A      3.871555   624A      3.880160   625A      3.887812  
	 626A      3.892945   627A      3.911719   628A      3.918434  
	 629A      3.929132   630A      3.938617   631A      3.939955  
	 632A      3.961934   633A      3.974816   634A      3.975251  
	 635A      3.992335   636A      3.996044   637A      3.996692  
	 638A      4.013904   639A      4.016517   640A      4.035671  
	 641A      4.046846   642A      4.057193   643A      4.058618  
	 644A      4.089692   645A      4.095846   646A      4.109021  
	 647A      4.109674   648A      4.133714   649A      4.135853  
	 650A      4.148819   651A      4.149159   652A      4.151396  
	 653A      4.155103   654A      4.194174   655A      4.197768  
	 656A      4.198205   657A      4.208319   658A      4.226927  
	 659A      4.233917   660A      4.245113   661A      4.256681  
	 662A      4.257526   663A      4.266402   664A      4.273510  
	 665A      4.290197   666A      4.292569   667A      4.301322  
	 668A      4.323469   669A      4.326530   670A      4.335645  
	 671A      4.352973   672A      4.366435   673A      4.370070  
	 674A      4.378389   675A      4.387037   676A      4.398232  
	 677A      4.405949   678A      4.411694   679A      4.419234  
	 680A      4.435300   681A      4.456059   682A      4.457550  
	 683A      4.470042   684A      4.482311   685A      4.492535  
	 686A      4.495133   687A      4.497003   688A      4.502844  
	 689A      4.509792   690A      4.528721   691A      4.553404  
	 692A      4.566617   693A      4.577336   694A      4.590716  
	 695A      4.593032   696A      4.605827   697A      4.611915  
	 698A      4.627948   699A      4.640531   700A      4.673591  
	 701A      4.674052   702A      4.687146   703A      4.689055  
	 704A      4.697040   705A      4.699178   706A      4.741044  
	 707A      4.741230   708A      4.761008   709A      4.773860  
	 710A      4.780173   711A      4.795716   712A      4.810566  
	 713A      4.815373   714A      4.829195   715A      4.829756  
	 716A      4.830543   717A      4.859745   718A      4.862080  
	 719A      4.877579   720A      4.886692   721A      4.893592  
	 722A      4.901810   723A      4.910550   724A      4.929910  
	 725A      4.947929   726A      4.949091   727A      4.967077  
	 728A      4.973781   729A      4.979630   730A      5.004328  
	 731A      5.005492   732A      5.019241   733A      5.051418  
	 734A      5.062189   735A      5.067151   736A      5.075507  
	 737A      5.082035   738A      5.104717   739A      5.120563  
	 740A      5.135681   741A      5.137334   742A      5.159730  
	 743A      5.180126   744A      5.181143   745A      5.191970  
	 746A      5.200360   747A      5.239736   748A      5.246233  
	 749A      5.251052   750A      5.256340   751A      5.265278  
	 752A      5.269155   753A      5.284594   754A      5.300778  
	 755A      5.302648   756A      5.322616   757A      5.327781  
	 758A      5.358457   759A      5.371613   760A      5.387035  
	 761A      5.396640   762A      5.421210   763A      5.432676  
	 764A      5.441643   765A      5.442394   766A      5.487255  
	 767A      5.493279   768A      5.498468   769A      5.505464  
	 770A      5.526301   771A      5.542781   772A      5.550369  
	 773A      5.580253   774A      5.603149   775A      5.617290  
	 776A      5.622569   777A      5.626877   778A      5.643418  
	 779A      5.657073   780A      5.672419   781A      5.688771  
	 782A      5.696912   783A      5.721441   784A      5.734877  
	 785A      5.754735   786A      5.759938   787A      5.791773  
	 788A      5.812897   789A      5.813597   790A      5.836158  
	 791A      5.838231   792A      5.849048   793A      5.871426  
	 794A      5.871556   795A      5.894953   796A      5.900369  
	 797A      5.911635   798A      5.950327   799A      5.952237  
	 800A      5.994202   801A      5.999763   802A      6.022621  
	 803A      6.025594   804A      6.044102   805A      6.056576  
	 806A      6.081744   807A      6.084289   808A      6.094782  
	 809A      6.119890   810A      6.135153   811A      6.156982  
	 812A      6.162167   813A      6.210396   814A      6.245028  
	 815A      6.245879   816A      6.265990   817A      6.275239  
	 818A      6.289511   819A      6.296473   820A      6.326681  
	 821A      6.359245   822A      6.362412   823A      6.410481  
	 824A      6.423842   825A      6.435460   826A      6.474519  
	 827A      6.490227   828A      6.531041   829A      6.612679  
	 830A      6.627209   831A      6.664733   832A      6.667529  
	 833A      6.698859   834A      6.708113   835A      6.761200  
	 836A      6.801199   837A      6.804681   838A      6.844614  
	 839A      6.863567   840A      6.865049   841A      6.893852  
	 842A      6.894786   843A      6.909277   844A      6.912036  
	 845A      6.916070   846A      6.944449   847A      6.954262  
	 848A      6.968271   849A      6.972248   850A      6.980581  
	 851A      7.009190   852A      7.018565   853A      7.028950  
	 854A      7.049862   855A      7.071783   856A      7.083974  
	 857A      7.099571   858A      7.101376   859A      7.139535  
	 860A      7.145385   861A      7.162329   862A      7.164733  
	 863A      7.169591   864A      7.199925   865A      7.261315  
	 866A      7.291449   867A      7.296772   868A      7.341709  
	 869A      7.362496   870A      7.396428   871A      7.458032  
	 872A      7.468213   873A      7.548362   874A      7.551374  
	 875A      7.563903   876A      7.595918   877A      7.601241  
	 878A      7.610553   879A      7.626826   880A      7.648236  
	 881A      7.675749   882A      7.699950   883A      7.745788  
	 884A      7.792309   885A      7.810828   886A      7.849940  
	 887A      7.879592   888A      7.902564   889A      7.930390  
	 890A      7.933691   891A      7.981490   892A      7.998834  
	 893A      8.014687   894A      8.020478   895A      8.053373  
	 896A      8.062530   897A      8.074507   898A      8.097326  
	 899A      8.113373   900A      8.122358   901A      8.134127  
	 902A      8.164655   903A      8.189957   904A      8.211810  
	 905A     16.602666   906A     17.073947   907A     17.217927  
	 908A     17.366218   909A     17.630275   910A     17.956398  
	 911A     18.035716   912A     18.465926   913A     19.157909  
	 914A     19.215464   915A     20.435616   916A     20.958594  
	 917A     21.382064   918A     21.907072   919A     22.073899  
	 920A     22.139035  

	Final Occupation by Irrep:
	          A 
	DOCC [    58 ]

  Energy converged.

  @RHF Final Energy:  -825.12167010531789

   => Energetics <=

    Nuclear Repulsion Energy =           1256.3171879119511232
    One-Electron Energy =               -3624.6468101729205955
    Two-Electron Energy =                1543.2079521556540840
    DFT Exchange-Correlation Energy =       0.0000000000000000
    Empirical Dispersion Energy =           0.0000000000000000
    Total Energy =                       -825.1216701053156157



Properties will be evaluated at   0.000000,   0.000000,   0.000000 Bohr
  ==> Properties <==


Properties computed using the SCF density density matrix
  Nuclear Dipole Moment: (a.u.)
     X:     0.0000      Y:     0.0000      Z:    -5.9481

  Electronic Dipole Moment: (a.u.)
     X:     0.0000      Y:     0.0000      Z:     3.6425

  Dipole Moment: (a.u.)
     X:     0.0000      Y:     0.0000      Z:    -2.3055     Total:     2.3055

  Dipole Moment: (Debye)
     X:     0.0000      Y:     0.0000      Z:    -5.8600     Total:     5.8600


  Saving occupied orbitals to File 180.

  Saving SAPT 2-DIMER file.

*** tstop() called on genome.bme.utexas.edu at Tue Apr  8 17:07:37 2014
Module time:
	user time   =    2225.95 seconds =      37.10 minutes
	system time =      25.78 seconds =       0.43 minutes
	total time  =        323 seconds =       5.38 minutes
Total time:
	user time   =    2225.95 seconds =      37.10 minutes
	system time =      25.78 seconds =       0.43 minutes
	total time  =        323 seconds =       5.38 minutes

  //>>>>>>>>>>>>>>>>>>>>>>>>>>>>>>>>>>>//
  //            Monomer A HF           //
  //<<<<<<<<<<<<<<<<<<<<<<<<<<<<<<<<<<<//


  No DF_BASIS_SCF auxiliary basis selected, defaulting to aug-cc-pvtz-jkfit


*** tstart() called on genome.bme.utexas.edu
*** at Tue Apr  8 17:07:37 2014


         ---------------------------------------------------------
                                   SCF
            by Justin Turney, Rob Parrish, and Andy Simmonett
                              RHF Reference
                        8 Threads,  40000 MiB Core
         ---------------------------------------------------------

  ==> Geometry <==

    Molecular point group: c1
    Full point group: C1

    Geometry (in Angstrom), charge = 0, multiplicity = 1:

       Center              X                  Y                   Z       
    ------------   -----------------  -----------------  -----------------
           N          0.960490264000     0.767856435000     0.734453602703
           H          0.635401555000     1.314332816000     1.523184291703
           C          0.892571862000     1.385638781000    -0.520826332297
           O          0.504150512000     2.539186733000    -0.626148067297
           N          1.595012082000    -1.285099335000    -0.098243155297
           H          1.310874661000     0.918951653000    -2.612166896297
           C          1.609326021000    -0.769062261000    -1.364568735297
           H          1.881106132000    -1.462951070000    -2.145816650297
           C          1.298101499000     0.520046766000    -1.612658559297
           H          1.713043366000    -2.273411937000     0.056657788703
           C          1.229534181000    -0.557097009000     1.018546964703
           O          1.144705168000    -1.043707408000     2.129637711703
           N(Gh)     -0.960490264000    -0.767856435000     0.734453602703
           H(Gh)     -0.635401555000    -1.314332816000     1.523184291703
           C(Gh)     -0.892571862000    -1.385638781000    -0.520826332297
           O(Gh)     -0.504150512000    -2.539186733000    -0.626148067297
           N(Gh)     -1.595012082000     1.285099335000    -0.098243155297
           H(Gh)     -1.310874661000    -0.918951653000    -2.612166896297
           C(Gh)     -1.609326021000     0.769062261000    -1.364568735297
           H(Gh)     -1.881106132000     1.462951070000    -2.145816650297
           C(Gh)     -1.298101499000    -0.520046766000    -1.612658559297
           H(Gh)     -1.713043366000     2.273411937000     0.056657788703
           C(Gh)     -1.229534181000     0.557097009000     1.018546964703
           O(Gh)     -1.144705168000     1.043707408000     2.129637711703

  Running in c1 symmetry.

  Nuclear repulsion =  357.160273677226883

  Charge       = 0
  Multiplicity = 1
  Electrons    = 58
  Nalpha       = 29
  Nbeta        = 29

  ==> Algorithm <==

  SCF Algorithm Type is DF.
  DIIS enabled.
  MOM disabled.
  Fractional occupation disabled.
  Guess Type is CORE.
  Energy threshold   = 1.00e-08
  Density threshold  = 1.00e-08
  Integral threshold = 0.00e+00

  ==> Primary Basis <==

  Basis Set: AUG-CC-PVTZ
    Number of shells: 296
    Number of basis function: 920
    Number of Cartesian functions: 1080
    Spherical Harmonics?: true
    Max angular momentum: 3

  ==> Pre-Iterations <==

   -------------------------------------------------------
    Irrep   Nso     Nmo     Nalpha   Nbeta   Ndocc  Nsocc
   -------------------------------------------------------
     A        920     920       0       0       0       0
   -------------------------------------------------------
    Total     920     920      29      29      29       0
   -------------------------------------------------------

 OEINTS: Wrapper to libmints.
   by Justin Turney

   Calculation information:
      Number of atoms:                  24
      Number of AO shells:             296
      Number of SO shells:             296
      Number of primitives:            568
      Number of atomic orbitals:      1080
      Number of basis functions:       920

      Number of irreps:                  1
      Number of functions per irrep: [ 920 ]

      Overlap, kinetic, potential, dipole, and quadrupole integrals
        stored in file 35.

  ==> Integral Setup <==

  ==> DFJK: Density-Fitted J/K Matrices <==

    J tasked:                  Yes
    K tasked:                  Yes
    wK tasked:                  No
    OpenMP threads:              8
    Integrals threads:           8
    Memory (MB):             28610
    Algorithm:                Core
    Integral Cache:           LOAD
    Schwarz Cutoff:          0E+00
    Fitting Condition:       1E-12

   => Auxiliary Basis Set <=

  Basis Set: aug-cc-pvtz-jkfit
    Number of shells: 592
    Number of basis function: 2032
    Number of Cartesian functions: 2536
    Spherical Harmonics?: true
    Max angular momentum: 4

  Minimum eigenvalue in the overlap matrix is 1.3619259676E-06.
  Using Symmetric Orthogonalization.
  SCF Guess: Core (One-Electron) Hamiltonian.

  Guess energy:  -324.01797686573775

  ==> Iterations <==

                        Total Energy        Delta E     RMS |[F,P]|

   @RHF iter   1:  -319.53636821939290   -3.19536e+02   1.69773e-02 
   @RHF iter   2:  -286.88152940659643    3.26548e+01   1.02401e-02 DIIS
   @RHF iter   3:  -297.85403732263387   -1.09725e+01   1.21625e-02 DIIS
   @RHF iter   4:  -391.75802779508297   -9.39040e+01   5.85582e-03 DIIS
   @RHF iter   5:  -388.96623013667124    2.79180e+00   5.57893e-03 DIIS
   @RHF iter   6:  -409.80994914989640   -2.08437e+01   2.52125e-03 DIIS
   @RHF iter   7:  -412.41607046075706   -2.60612e+00   6.01509e-04 DIIS
   @RHF iter   8:  -412.58647041876827   -1.70400e-01   2.38167e-04 DIIS
   @RHF iter   9:  -412.61539439241415   -2.89240e-02   1.04645e-04 DIIS
   @RHF iter  10:  -412.62237867426950   -6.98428e-03   4.49401e-05 DIIS
   @RHF iter  11:  -412.62382705057269   -1.44838e-03   2.40160e-05 DIIS
   @RHF iter  12:  -412.62445712829037   -6.30078e-04   8.36721e-06 DIIS
   @RHF iter  13:  -412.62451801434997   -6.08861e-05   3.37463e-06 DIIS
   @RHF iter  14:  -412.62452298069218   -4.96634e-06   8.34039e-07 DIIS
   @RHF iter  15:  -412.62452339700189   -4.16310e-07   2.16985e-07 DIIS
   @RHF iter  16:  -412.62452342963286   -3.26310e-08   8.34782e-08 DIIS
   @RHF iter  17:  -412.62452343488280   -5.24994e-09   3.06827e-08 DIIS
   @RHF iter  18:  -412.62452343593270   -1.04990e-09   1.25691e-08 DIIS
   @RHF iter  19:  -412.62452343610698   -1.74282e-10   4.17444e-09 DIIS

  ==> Post-Iterations <==

	Orbital Energies (a.u.)
	-----------------------

	Doubly Occupied:                                                      

	   1A    -20.548291     2A    -20.541948     3A    -15.645747  
	   4A    -15.628765     5A    -11.419872     6A    -11.381507  
	   7A    -11.341399     8A    -11.256335     9A     -1.437340  
	  10A     -1.397229    11A     -1.315229    12A     -1.246983  
	  13A     -1.089215    14A     -0.935176    15A     -0.901934  
	  16A     -0.807860    17A     -0.766141    18A     -0.715418  
	  19A     -0.677979    20A     -0.670763    21A     -0.653225  
	  22A     -0.614767    23A     -0.602518    24A     -0.571105  
	  25A     -0.527095    26A     -0.484873    27A     -0.450006  
	  28A     -0.437613    29A     -0.369907  

	Virtual:                                                              

	  30A      0.012271    31A      0.028134    32A      0.031417  
	  33A      0.035877    34A      0.047077    35A      0.048283  
	  36A      0.052186    37A      0.061583    38A      0.065880  
	  39A      0.071319    40A      0.076382    41A      0.078790  
	  42A      0.085646    43A      0.088200    44A      0.091439  
	  45A      0.097111    46A      0.097449    47A      0.102045  
	  48A      0.103451    49A      0.111389    50A      0.114318  
	  51A      0.119852    52A      0.123949    53A      0.126739  
	  54A      0.129970    55A      0.132152    56A      0.137619  
	  57A      0.141124    58A      0.145214    59A      0.147011  
	  60A      0.149340    61A      0.150681    62A      0.154755  
	  63A      0.159913    64A      0.164521    65A      0.166020  
	  66A      0.174938    67A      0.179304    68A      0.187145  
	  69A      0.194337    70A      0.201328    71A      0.203401  
	  72A      0.207524    73A      0.207789    74A      0.212132  
	  75A      0.218839    76A      0.225435    77A      0.228108  
	  78A      0.228932    79A      0.234159    80A      0.238684  
	  81A      0.241930    82A      0.246173    83A      0.252131  
	  84A      0.254995    85A      0.260435    86A      0.263751  
	  87A      0.268780    88A      0.271462    89A      0.273384  
	  90A      0.279091    91A      0.282103    92A      0.286325  
	  93A      0.289020    94A      0.293820    95A      0.297771  
	  96A      0.305379    97A      0.307173    98A      0.309472  
	  99A      0.314210   100A      0.322702   101A      0.325336  
	 102A      0.332245   103A      0.332617   104A      0.336514  
	 105A      0.341630   106A      0.350000   107A      0.352127  
	 108A      0.358210   109A      0.360290   110A      0.366064  
	 111A      0.367798   112A      0.371137   113A      0.378470  
	 114A      0.380375   115A      0.386832   116A      0.391983  
	 117A      0.400437   118A      0.405257   119A      0.410630  
	 120A      0.411250   121A      0.412145   122A      0.414777  
	 123A      0.422400   124A      0.429459   125A      0.435302  
	 126A      0.440111   127A      0.445217   128A      0.450162  
	 129A      0.454063   130A      0.458764   131A      0.463185  
	 132A      0.468159   133A      0.471478   134A      0.473672  
	 135A      0.475684   136A      0.480458   137A      0.486413  
	 138A      0.489935   139A      0.496838   140A      0.499216  
	 141A      0.503370   142A      0.508349   143A      0.512056  
	 144A      0.517747   145A      0.520032   146A      0.523817  
	 147A      0.526073   148A      0.534414   149A      0.537855  
	 150A      0.541534   151A      0.547304   152A      0.549991  
	 153A      0.556533   154A      0.559853   155A      0.564731  
	 156A      0.565852   157A      0.572179   158A      0.574989  
	 159A      0.579868   160A      0.584945   161A      0.591648  
	 162A      0.592633   163A      0.597374   164A      0.603796  
	 165A      0.604181   166A      0.611373   167A      0.622752  
	 168A      0.625457   169A      0.633550   170A      0.636958  
	 171A      0.641856   172A      0.644077   173A      0.645247  
	 174A      0.654244   175A      0.657541   176A      0.663670  
	 177A      0.668330   178A      0.676695   179A      0.683249  
	 180A      0.689979   181A      0.695780   182A      0.701506  
	 183A      0.707988   184A      0.708704   185A      0.713553  
	 186A      0.719880   187A      0.727527   188A      0.730050  
	 189A      0.741896   190A      0.744068   191A      0.750775  
	 192A      0.753395   193A      0.763283   194A      0.767045  
	 195A      0.773984   196A      0.784919   197A      0.791670  
	 198A      0.795954   199A      0.800420   200A      0.807525  
	 201A      0.809657   202A      0.816679   203A      0.817357  
	 204A      0.823873   205A      0.828643   206A      0.831961  
	 207A      0.837339   208A      0.850411   209A      0.853543  
	 210A      0.860622   211A      0.868757   212A      0.875071  
	 213A      0.879363   214A      0.882393   215A      0.891390  
	 216A      0.896890   217A      0.904929   218A      0.913867  
	 219A      0.918789   220A      0.922332   221A      0.925478  
	 222A      0.933650   223A      0.936838   224A      0.943764  
	 225A      0.951404   226A      0.952814   227A      0.956855  
	 228A      0.963473   229A      0.965312   230A      0.969067  
	 231A      0.976739   232A      0.980634   233A      0.986244  
	 234A      0.992159   235A      0.998681   236A      1.001464  
	 237A      1.005474   238A      1.012657   239A      1.018009  
	 240A      1.027574   241A      1.034801   242A      1.041143  
	 243A      1.046589   244A      1.050409   245A      1.053240  
	 246A      1.056500   247A      1.061398   248A      1.069995  
	 249A      1.079322   250A      1.082964   251A      1.091319  
	 252A      1.095647   253A      1.102477   254A      1.110302  
	 255A      1.112042   256A      1.118480   257A      1.121268  
	 258A      1.129367   259A      1.130926   260A      1.138786  
	 261A      1.145071   262A      1.147181   263A      1.152518  
	 264A      1.156339   265A      1.160141   266A      1.169029  
	 267A      1.173892   268A      1.181637   269A      1.188641  
	 270A      1.191629   271A      1.198071   272A      1.201636  
	 273A      1.206362   274A      1.208284   275A      1.210397  
	 276A      1.220433   277A      1.226693   278A      1.228622  
	 279A      1.242233   280A      1.246741   281A      1.252846  
	 282A      1.256274   283A      1.261142   284A      1.263531  
	 285A      1.276238   286A      1.281617   287A      1.285929  
	 288A      1.292159   289A      1.300042   290A      1.304569  
	 291A      1.311409   292A      1.313762   293A      1.316927  
	 294A      1.325547   295A      1.330033   296A      1.334465  
	 297A      1.337527   298A      1.352225   299A      1.353459  
	 300A      1.366776   301A      1.367850   302A      1.373888  
	 303A      1.380778   304A      1.387517   305A      1.397818  
	 306A      1.404050   307A      1.406435   308A      1.413699  
	 309A      1.416677   310A      1.418642   311A      1.426869  
	 312A      1.434420   313A      1.437929   314A      1.447086  
	 315A      1.451190   316A      1.459403   317A      1.466265  
	 318A      1.474796   319A      1.480919   320A      1.485389  
	 321A      1.488687   322A      1.494478   323A      1.504908  
	 324A      1.516334   325A      1.520901   326A      1.526974  
	 327A      1.537240   328A      1.543021   329A      1.547922  
	 330A      1.551528   331A      1.561234   332A      1.564777  
	 333A      1.567789   334A      1.571303   335A      1.572238  
	 336A      1.583667   337A      1.599609   338A      1.601923  
	 339A      1.607046   340A      1.614840   341A      1.620654  
	 342A      1.626165   343A      1.628607   344A      1.634318  
	 345A      1.636479   346A      1.652725   347A      1.660523  
	 348A      1.666748   349A      1.674846   350A      1.681068  
	 351A      1.691643   352A      1.695672   353A      1.709764  
	 354A      1.714554   355A      1.719864   356A      1.728916  
	 357A      1.736324   358A      1.743403   359A      1.745229  
	 360A      1.754019   361A      1.761077   362A      1.772899  
	 363A      1.778512   364A      1.788779   365A      1.791123  
	 366A      1.801387   367A      1.803457   368A      1.817099  
	 369A      1.822691   370A      1.829992   371A      1.837820  
	 372A      1.845044   373A      1.854345   374A      1.855354  
	 375A      1.871974   376A      1.879168   377A      1.883084  
	 378A      1.891161   379A      1.893450   380A      1.911303  
	 381A      1.912223   382A      1.918597   383A      1.923373  
	 384A      1.928701   385A      1.936293   386A      1.948491  
	 387A      1.952242   388A      1.958164   389A      1.965383  
	 390A      1.968590   391A      1.981919   392A      1.986034  
	 393A      2.008656   394A      2.009269   395A      2.017642  
	 396A      2.024445   397A      2.036288   398A      2.042508  
	 399A      2.051495   400A      2.052678   401A      2.066060  
	 402A      2.071938   403A      2.077711   404A      2.083988  
	 405A      2.090054   406A      2.103026   407A      2.112815  
	 408A      2.116746   409A      2.122712   410A      2.125801  
	 411A      2.133226   412A      2.138974   413A      2.144475  
	 414A      2.160654   415A      2.167981   416A      2.171457  
	 417A      2.184049   418A      2.192834   419A      2.197756  
	 420A      2.201717   421A      2.212780   422A      2.217476  
	 423A      2.229871   424A      2.233842   425A      2.251019  
	 426A      2.257183   427A      2.259288   428A      2.272981  
	 429A      2.274130   430A      2.277723   431A      2.301747  
	 432A      2.303343   433A      2.308590   434A      2.317207  
	 435A      2.327560   436A      2.348772   437A      2.354345  
	 438A      2.358009   439A      2.366648   440A      2.375532  
	 441A      2.381874   442A      2.388411   443A      2.394509  
	 444A      2.408201   445A      2.419812   446A      2.425703  
	 447A      2.435984   448A      2.438585   449A      2.452215  
	 450A      2.457013   451A      2.465848   452A      2.471265  
	 453A      2.485107   454A      2.492790   455A      2.509241  
	 456A      2.524267   457A      2.536775   458A      2.543841  
	 459A      2.545950   460A      2.555928   461A      2.562932  
	 462A      2.571869   463A      2.585726   464A      2.594528  
	 465A      2.601833   466A      2.609137   467A      2.623446  
	 468A      2.628582   469A      2.635946   470A      2.637768  
	 471A      2.646717   472A      2.659876   473A      2.672749  
	 474A      2.685799   475A      2.688696   476A      2.696287  
	 477A      2.702601   478A      2.708723   479A      2.714806  
	 480A      2.720461   481A      2.727459   482A      2.741776  
	 483A      2.747074   484A      2.751953   485A      2.760322  
	 486A      2.765896   487A      2.781989   488A      2.785267  
	 489A      2.799136   490A      2.807810   491A      2.813108  
	 492A      2.822771   493A      2.828846   494A      2.833904  
	 495A      2.838728   496A      2.860396   497A      2.867706  
	 498A      2.874767   499A      2.878359   500A      2.880556  
	 501A      2.900171   502A      2.910355   503A      2.917349  
	 504A      2.927474   505A      2.936652   506A      2.951462  
	 507A      2.952255   508A      2.959799   509A      2.971872  
	 510A      2.987035   511A      2.992704   512A      3.000155  
	 513A      3.008362   514A      3.021522   515A      3.031677  
	 516A      3.048743   517A      3.056604   518A      3.063291  
	 519A      3.064403   520A      3.078340   521A      3.086365  
	 522A      3.096467   523A      3.101579   524A      3.104489  
	 525A      3.125248   526A      3.141184   527A      3.147774  
	 528A      3.153458   529A      3.161081   530A      3.176136  
	 531A      3.192185   532A      3.194466   533A      3.203827  
	 534A      3.209100   535A      3.229909   536A      3.241117  
	 537A      3.244035   538A      3.263063   539A      3.264993  
	 540A      3.274454   541A      3.301413   542A      3.315232  
	 543A      3.323821   544A      3.337019   545A      3.356335  
	 546A      3.366596   547A      3.367694   548A      3.373763  
	 549A      3.387042   550A      3.400408   551A      3.409307  
	 552A      3.417676   553A      3.426375   554A      3.444260  
	 555A      3.456262   556A      3.468546   557A      3.475175  
	 558A      3.494178   559A      3.507635   560A      3.515965  
	 561A      3.544378   562A      3.552043   563A      3.577949  
	 564A      3.591939   565A      3.607596   566A      3.611176  
	 567A      3.623986   568A      3.629491   569A      3.645326  
	 570A      3.654920   571A      3.667280   572A      3.681544  
	 573A      3.702994   574A      3.721949   575A      3.733233  
	 576A      3.748865   577A      3.766882   578A      3.785761  
	 579A      3.789957   580A      3.800943   581A      3.823134  
	 582A      3.833346   583A      3.842116   584A      3.857020  
	 585A      3.864384   586A      3.873872   587A      3.880932  
	 588A      3.893304   589A      3.902766   590A      3.934225  
	 591A      3.940052   592A      3.952118   593A      3.971411  
	 594A      3.984536   595A      3.988517   596A      4.001193  
	 597A      4.010857   598A      4.014953   599A      4.036939  
	 600A      4.044362   601A      4.058358   602A      4.072591  
	 603A      4.074666   604A      4.085714   605A      4.102687  
	 606A      4.112607   607A      4.128598   608A      4.143339  
	 609A      4.154606   610A      4.169944   611A      4.186806  
	 612A      4.194075   613A      4.199882   614A      4.211720  
	 615A      4.216597   616A      4.250143   617A      4.262402  
	 618A      4.267485   619A      4.278500   620A      4.282902  
	 621A      4.298950   622A      4.303520   623A      4.326776  
	 624A      4.345860   625A      4.347063   626A      4.362742  
	 627A      4.377131   628A      4.387334   629A      4.404322  
	 630A      4.408270   631A      4.429867   632A      4.446800  
	 633A      4.453278   634A      4.457827   635A      4.473639  
	 636A      4.483124   637A      4.491535   638A      4.501788  
	 639A      4.505817   640A      4.522471   641A      4.539838  
	 642A      4.557849   643A      4.563813   644A      4.585207  
	 645A      4.592551   646A      4.612524   647A      4.624264  
	 648A      4.636568   649A      4.638051   650A      4.665933  
	 651A      4.673960   652A      4.687829   653A      4.703830  
	 654A      4.710259   655A      4.726290   656A      4.742704  
	 657A      4.751139   658A      4.765598   659A      4.776445  
	 660A      4.787278   661A      4.795307   662A      4.816849  
	 663A      4.825214   664A      4.843172   665A      4.857607  
	 666A      4.869549   667A      4.887670   668A      4.899072  
	 669A      4.900546   670A      4.913409   671A      4.922249  
	 672A      4.937359   673A      4.955056   674A      4.969473  
	 675A      4.981465   676A      4.996488   677A      5.003901  
	 678A      5.005448   679A      5.017937   680A      5.035972  
	 681A      5.056109   682A      5.060617   683A      5.074964  
	 684A      5.082905   685A      5.091099   686A      5.100172  
	 687A      5.115376   688A      5.129990   689A      5.148153  
	 690A      5.152651   691A      5.165226   692A      5.176140  
	 693A      5.186178   694A      5.202896   695A      5.209475  
	 696A      5.220271   697A      5.232802   698A      5.245641  
	 699A      5.258999   700A      5.273809   701A      5.285563  
	 702A      5.301351   703A      5.325670   704A      5.329960  
	 705A      5.334132   706A      5.363416   707A      5.371790  
	 708A      5.391415   709A      5.395790   710A      5.424529  
	 711A      5.433504   712A      5.443730   713A      5.447991  
	 714A      5.458353   715A      5.484773   716A      5.494799  
	 717A      5.502346   718A      5.514020   719A      5.535950  
	 720A      5.543029   721A      5.561964   722A      5.568207  
	 723A      5.583250   724A      5.594416   725A      5.607392  
	 726A      5.626516   727A      5.637168   728A      5.639661  
	 729A      5.648885   730A      5.659711   731A      5.674787  
	 732A      5.708447   733A      5.721570   734A      5.736669  
	 735A      5.741396   736A      5.745507   737A      5.779269  
	 738A      5.790553   739A      5.801685   740A      5.809672  
	 741A      5.826466   742A      5.840614   743A      5.848693  
	 744A      5.867076   745A      5.873351   746A      5.896359  
	 747A      5.908501   748A      5.930902   749A      5.946536  
	 750A      5.958487   751A      5.983398   752A      5.995683  
	 753A      6.004062   754A      6.013379   755A      6.027210  
	 756A      6.049932   757A      6.070740   758A      6.096927  
	 759A      6.100866   760A      6.115801   761A      6.133308  
	 762A      6.165821   763A      6.199582   764A      6.220835  
	 765A      6.231481   766A      6.242690   767A      6.251987  
	 768A      6.286138   769A      6.302314   770A      6.305496  
	 771A      6.329934   772A      6.336844   773A      6.386456  
	 774A      6.398905   775A      6.424876   776A      6.506120  
	 777A      6.518229   778A      6.556278   779A      6.596588  
	 780A      6.612173   781A      6.622643   782A      6.649267  
	 783A      6.652687   784A      6.706826   785A      6.713758  
	 786A      6.736941   787A      6.749376   788A      6.785959  
	 789A      6.818251   790A      6.828764   791A      6.838870  
	 792A      6.871688   793A      6.886113   794A      6.888422  
	 795A      6.917767   796A      6.920054   797A      6.938121  
	 798A      6.948682   799A      6.978654   800A      6.982252  
	 801A      6.997120   802A      7.026822   803A      7.034194  
	 804A      7.069899   805A      7.073657   806A      7.097740  
	 807A      7.132594   808A      7.144549   809A      7.148461  
	 810A      7.199625   811A      7.237305   812A      7.278450  
	 813A      7.298875   814A      7.344006   815A      7.368958  
	 816A      7.407809   817A      7.427537   818A      7.473309  
	 819A      7.497729   820A      7.519097   821A      7.540004  
	 822A      7.561869   823A      7.572356   824A      7.576904  
	 825A      7.607109   826A      7.652267   827A      7.677391  
	 828A      7.693002   829A      7.710909   830A      7.736869  
	 831A      7.756567   832A      7.791353   833A      7.818920  
	 834A      7.827725   835A      7.837837   836A      7.854170  
	 837A      7.871542   838A      7.891861   839A      7.904786  
	 840A      7.924335   841A      7.974025   842A      7.982768  
	 843A      8.004364   844A      8.032253   845A      8.035649  
	 846A      8.049808   847A      8.058163   848A      8.066737  
	 849A      8.083877   850A      8.095029   851A      8.119898  
	 852A      8.129229   853A      8.144375   854A      8.158176  
	 855A      8.180225   856A      8.196475   857A      8.207967  
	 858A      8.236109   859A      8.364756   860A      8.370856  
	 861A      8.435815   862A      8.472688   863A      8.515716  
	 864A      8.558629   865A      8.666100   866A      8.804761  
	 867A      8.839510   868A      8.913864   869A      9.007733  
	 870A      9.114180   871A      9.197000   872A      9.300855  
	 873A      9.363287   874A      9.789659   875A      9.973067  
	 876A     10.043344   877A     10.088074   878A     10.107480  
	 879A     10.167276   880A     10.218405   881A     10.346443  
	 882A     10.418947   883A     10.454538   884A     10.496193  
	 885A     10.518666   886A     10.567076   887A     10.661495  
	 888A     10.749707   889A     11.148688   890A     11.399057  
	 891A     11.528343   892A     11.664490   893A     12.163409  
	 894A     12.261750   895A     12.341818   896A     12.488256  
	 897A     12.739479   898A     12.812953   899A     12.892999  
	 900A     13.014955   901A     13.674524   902A     13.934881  
	 903A     14.300353   904A     14.389330   905A     17.166271  
	 906A     17.650639   907A     17.849569   908A     17.930643  
	 909A     19.167952   910A     20.688891   911A     21.579235  
	 912A     21.955510   913A     53.424742   914A     53.996886  
	 915A     56.720505   916A     57.831584   917A     63.528770  
	 918A     64.929360   919A     71.404528   920A     72.252011  

	Final Occupation by Irrep:
	          A 
	DOCC [    29 ]

  Energy converged.

  @RHF Final Energy:  -412.62452343610698

   => Energetics <=

    Nuclear Repulsion Energy =            357.1602736772268827
    One-Electron Energy =               -1270.6971087358435852
    Two-Electron Energy =                 500.9123116225094350
    DFT Exchange-Correlation Energy =       0.0000000000000000
    Empirical Dispersion Energy =           0.0000000000000000
    Total Energy =                       -412.6245234361072676



Properties will be evaluated at   0.000000,   0.000000,   0.000000 Bohr
  ==> Properties <==


Properties computed using the SCF density density matrix
  Nuclear Dipole Moment: (a.u.)
     X:   126.2280      Y:    19.4967      Z:    -2.9740

  Electronic Dipole Moment: (a.u.)
     X:  -125.6597      Y:   -20.9882      Z:     1.8022

  Dipole Moment: (a.u.)
     X:     0.5683      Y:    -1.4915      Z:    -1.1718     Total:     1.9801

  Dipole Moment: (Debye)
     X:     1.4445      Y:    -3.7911      Z:    -2.9785     Total:     5.0330


  Saving occupied orbitals to File 180.

  Saving SAPT 2-MONOMER_A file.

*** tstop() called on genome.bme.utexas.edu at Tue Apr  8 17:11:25 2014
Module time:
	user time   =    1622.65 seconds =      27.04 minutes
	system time =      14.94 seconds =       0.25 minutes
	total time  =        228 seconds =       3.80 minutes
Total time:
	user time   =    3848.62 seconds =      64.14 minutes
	system time =      40.73 seconds =       0.68 minutes
	total time  =        551 seconds =       9.18 minutes

  //>>>>>>>>>>>>>>>>>>>>>>>>>>>>>>>>>>>//
  //            Monomer B HF           //
  //<<<<<<<<<<<<<<<<<<<<<<<<<<<<<<<<<<<//


  No DF_BASIS_SCF auxiliary basis selected, defaulting to aug-cc-pvtz-jkfit


*** tstart() called on genome.bme.utexas.edu
*** at Tue Apr  8 17:11:25 2014


         ---------------------------------------------------------
                                   SCF
            by Justin Turney, Rob Parrish, and Andy Simmonett
                              RHF Reference
                        8 Threads,  40000 MiB Core
         ---------------------------------------------------------

  ==> Geometry <==

    Molecular point group: c1
    Full point group: C1

    Geometry (in Angstrom), charge = 0, multiplicity = 1:

       Center              X                  Y                   Z       
    ------------   -----------------  -----------------  -----------------
           N(Gh)      0.960490264000     0.767856435000     0.734453602703
           H(Gh)      0.635401555000     1.314332816000     1.523184291703
           C(Gh)      0.892571862000     1.385638781000    -0.520826332297
           O(Gh)      0.504150512000     2.539186733000    -0.626148067297
           N(Gh)      1.595012082000    -1.285099335000    -0.098243155297
           H(Gh)      1.310874661000     0.918951653000    -2.612166896297
           C(Gh)      1.609326021000    -0.769062261000    -1.364568735297
           H(Gh)      1.881106132000    -1.462951070000    -2.145816650297
           C(Gh)      1.298101499000     0.520046766000    -1.612658559297
           H(Gh)      1.713043366000    -2.273411937000     0.056657788703
           C(Gh)      1.229534181000    -0.557097009000     1.018546964703
           O(Gh)      1.144705168000    -1.043707408000     2.129637711703
           N         -0.960490264000    -0.767856435000     0.734453602703
           H         -0.635401555000    -1.314332816000     1.523184291703
           C         -0.892571862000    -1.385638781000    -0.520826332297
           O         -0.504150512000    -2.539186733000    -0.626148067297
           N         -1.595012082000     1.285099335000    -0.098243155297
           H         -1.310874661000    -0.918951653000    -2.612166896297
           C         -1.609326021000     0.769062261000    -1.364568735297
           H         -1.881106132000     1.462951070000    -2.145816650297
           C         -1.298101499000    -0.520046766000    -1.612658559297
           H         -1.713043366000     2.273411937000     0.056657788703
           C         -1.229534181000     0.557097009000     1.018546964703
           O         -1.144705168000     1.043707408000     2.129637711703

  Running in c1 symmetry.

  Nuclear repulsion =  357.160273677226883

  Charge       = 0
  Multiplicity = 1
  Electrons    = 58
  Nalpha       = 29
  Nbeta        = 29

  ==> Algorithm <==

  SCF Algorithm Type is DF.
  DIIS enabled.
  MOM disabled.
  Fractional occupation disabled.
  Guess Type is CORE.
  Energy threshold   = 1.00e-08
  Density threshold  = 1.00e-08
  Integral threshold = 0.00e+00

  ==> Primary Basis <==

  Basis Set: AUG-CC-PVTZ
    Number of shells: 296
    Number of basis function: 920
    Number of Cartesian functions: 1080
    Spherical Harmonics?: true
    Max angular momentum: 3

  ==> Pre-Iterations <==

   -------------------------------------------------------
    Irrep   Nso     Nmo     Nalpha   Nbeta   Ndocc  Nsocc
   -------------------------------------------------------
     A        920     920       0       0       0       0
   -------------------------------------------------------
    Total     920     920      29      29      29       0
   -------------------------------------------------------

 OEINTS: Wrapper to libmints.
   by Justin Turney

   Calculation information:
      Number of atoms:                  24
      Number of AO shells:             296
      Number of SO shells:             296
      Number of primitives:            568
      Number of atomic orbitals:      1080
      Number of basis functions:       920

      Number of irreps:                  1
      Number of functions per irrep: [ 920 ]

      Overlap, kinetic, potential, dipole, and quadrupole integrals
        stored in file 35.

  ==> Integral Setup <==

  ==> DFJK: Density-Fitted J/K Matrices <==

    J tasked:                  Yes
    K tasked:                  Yes
    wK tasked:                  No
    OpenMP threads:              8
    Integrals threads:           8
    Memory (MB):             28610
    Algorithm:                Core
    Integral Cache:           LOAD
    Schwarz Cutoff:          0E+00
    Fitting Condition:       1E-12

   => Auxiliary Basis Set <=

  Basis Set: aug-cc-pvtz-jkfit
    Number of shells: 592
    Number of basis function: 2032
    Number of Cartesian functions: 2536
    Spherical Harmonics?: true
    Max angular momentum: 4

  Minimum eigenvalue in the overlap matrix is 1.3619259676E-06.
  Using Symmetric Orthogonalization.
  SCF Guess: Core (One-Electron) Hamiltonian.

  Guess energy:  -324.01797686573843

  ==> Iterations <==

                        Total Energy        Delta E     RMS |[F,P]|

   @RHF iter   1:  -319.53636821890734   -3.19536e+02   1.69773e-02 
   @RHF iter   2:  -286.88152931403602    3.26548e+01   1.02401e-02 DIIS
   @RHF iter   3:  -297.85403732525390   -1.09725e+01   1.21625e-02 DIIS
   @RHF iter   4:  -391.75802779283197   -9.39040e+01   5.85582e-03 DIIS
   @RHF iter   5:  -388.96623010829910    2.79180e+00   5.57893e-03 DIIS
   @RHF iter   6:  -409.80994917577789   -2.08437e+01   2.52125e-03 DIIS
   @RHF iter   7:  -412.41607046267256   -2.60612e+00   6.01509e-04 DIIS
   @RHF iter   8:  -412.58647041905090   -1.70400e-01   2.38167e-04 DIIS
   @RHF iter   9:  -412.61539439196360   -2.89240e-02   1.04645e-04 DIIS
   @RHF iter  10:  -412.62237867368788   -6.98428e-03   4.49401e-05 DIIS
   @RHF iter  11:  -412.62382704998856   -1.44838e-03   2.40160e-05 DIIS
   @RHF iter  12:  -412.62445712770568   -6.30078e-04   8.36721e-06 DIIS
   @RHF iter  13:  -412.62451801376608   -6.08861e-05   3.37463e-06 DIIS
   @RHF iter  14:  -412.62452298010896   -4.96634e-06   8.34039e-07 DIIS
   @RHF iter  15:  -412.62452339641629   -4.16307e-07   2.16985e-07 DIIS
   @RHF iter  16:  -412.62452342904692   -3.26306e-08   8.34782e-08 DIIS
   @RHF iter  17:  -412.62452343429641   -5.24949e-09   3.06827e-08 DIIS
   @RHF iter  18:  -412.62452343534630   -1.04990e-09   1.25691e-08 DIIS
   @RHF iter  19:  -412.62452343552297   -1.76669e-10   4.17444e-09 DIIS

  ==> Post-Iterations <==

	Orbital Energies (a.u.)
	-----------------------

	Doubly Occupied:                                                      

	   1A    -20.548291     2A    -20.541948     3A    -15.645747  
	   4A    -15.628765     5A    -11.419872     6A    -11.381507  
	   7A    -11.341399     8A    -11.256335     9A     -1.437340  
	  10A     -1.397229    11A     -1.315229    12A     -1.246983  
	  13A     -1.089215    14A     -0.935176    15A     -0.901934  
	  16A     -0.807860    17A     -0.766141    18A     -0.715418  
	  19A     -0.677979    20A     -0.670763    21A     -0.653225  
	  22A     -0.614767    23A     -0.602518    24A     -0.571105  
	  25A     -0.527095    26A     -0.484873    27A     -0.450006  
	  28A     -0.437613    29A     -0.369907  

	Virtual:                                                              

	  30A      0.012271    31A      0.028134    32A      0.031417  
	  33A      0.035877    34A      0.047077    35A      0.048283  
	  36A      0.052186    37A      0.061583    38A      0.065880  
	  39A      0.071319    40A      0.076382    41A      0.078790  
	  42A      0.085646    43A      0.088200    44A      0.091439  
	  45A      0.097111    46A      0.097449    47A      0.102045  
	  48A      0.103451    49A      0.111389    50A      0.114318  
	  51A      0.119852    52A      0.123948    53A      0.126739  
	  54A      0.129971    55A      0.132152    56A      0.137619  
	  57A      0.141124    58A      0.145214    59A      0.147011  
	  60A      0.149340    61A      0.150681    62A      0.154755  
	  63A      0.159913    64A      0.164521    65A      0.166020  
	  66A      0.174937    67A      0.179304    68A      0.187145  
	  69A      0.194337    70A      0.201328    71A      0.203401  
	  72A      0.207524    73A      0.207789    74A      0.212133  
	  75A      0.218839    76A      0.225435    77A      0.228108  
	  78A      0.228932    79A      0.234159    80A      0.238685  
	  81A      0.241930    82A      0.246173    83A      0.252132  
	  84A      0.254995    85A      0.260435    86A      0.263751  
	  87A      0.268779    88A      0.271462    89A      0.273384  
	  90A      0.279091    91A      0.282104    92A      0.286325  
	  93A      0.289020    94A      0.293819    95A      0.297770  
	  96A      0.305379    97A      0.307173    98A      0.309471  
	  99A      0.314210   100A      0.322702   101A      0.325336  
	 102A      0.332245   103A      0.332616   104A      0.336514  
	 105A      0.341630   106A      0.349999   107A      0.352127  
	 108A      0.358211   109A      0.360290   110A      0.366064  
	 111A      0.367798   112A      0.371137   113A      0.378470  
	 114A      0.380375   115A      0.386832   116A      0.391983  
	 117A      0.400437   118A      0.405257   119A      0.410630  
	 120A      0.411249   121A      0.412145   122A      0.414777  
	 123A      0.422400   124A      0.429459   125A      0.435302  
	 126A      0.440111   127A      0.445216   128A      0.450162  
	 129A      0.454064   130A      0.458764   131A      0.463186  
	 132A      0.468159   133A      0.471478   134A      0.473671  
	 135A      0.475684   136A      0.480458   137A      0.486413  
	 138A      0.489936   139A      0.496838   140A      0.499217  
	 141A      0.503370   142A      0.508349   143A      0.512055  
	 144A      0.517747   145A      0.520032   146A      0.523817  
	 147A      0.526073   148A      0.534414   149A      0.537855  
	 150A      0.541535   151A      0.547304   152A      0.549991  
	 153A      0.556533   154A      0.559852   155A      0.564732  
	 156A      0.565852   157A      0.572179   158A      0.574989  
	 159A      0.579868   160A      0.584945   161A      0.591648  
	 162A      0.592633   163A      0.597374   164A      0.603797  
	 165A      0.604181   166A      0.611373   167A      0.622752  
	 168A      0.625458   169A      0.633550   170A      0.636958  
	 171A      0.641856   172A      0.644077   173A      0.645246  
	 174A      0.654245   175A      0.657541   176A      0.663671  
	 177A      0.668330   178A      0.676695   179A      0.683249  
	 180A      0.689979   181A      0.695780   182A      0.701506  
	 183A      0.707988   184A      0.708705   185A      0.713553  
	 186A      0.719880   187A      0.727526   188A      0.730050  
	 189A      0.741895   190A      0.744069   191A      0.750774  
	 192A      0.753395   193A      0.763283   194A      0.767045  
	 195A      0.773984   196A      0.784919   197A      0.791670  
	 198A      0.795954   199A      0.800420   200A      0.807525  
	 201A      0.809657   202A      0.816679   203A      0.817357  
	 204A      0.823873   205A      0.828642   206A      0.831961  
	 207A      0.837339   208A      0.850410   209A      0.853542  
	 210A      0.860622   211A      0.868758   212A      0.875071  
	 213A      0.879363   214A      0.882393   215A      0.891390  
	 216A      0.896890   217A      0.904929   218A      0.913867  
	 219A      0.918790   220A      0.922332   221A      0.925477  
	 222A      0.933650   223A      0.936838   224A      0.943764  
	 225A      0.951404   226A      0.952813   227A      0.956855  
	 228A      0.963473   229A      0.965313   230A      0.969067  
	 231A      0.976739   232A      0.980634   233A      0.986244  
	 234A      0.992159   235A      0.998681   236A      1.001464  
	 237A      1.005474   238A      1.012657   239A      1.018010  
	 240A      1.027574   241A      1.034801   242A      1.041143  
	 243A      1.046589   244A      1.050409   245A      1.053240  
	 246A      1.056500   247A      1.061398   248A      1.069995  
	 249A      1.079322   250A      1.082964   251A      1.091319  
	 252A      1.095647   253A      1.102477   254A      1.110302  
	 255A      1.112042   256A      1.118480   257A      1.121268  
	 258A      1.129367   259A      1.130926   260A      1.138786  
	 261A      1.145071   262A      1.147181   263A      1.152518  
	 264A      1.156338   265A      1.160141   266A      1.169029  
	 267A      1.173892   268A      1.181637   269A      1.188642  
	 270A      1.191629   271A      1.198071   272A      1.201636  
	 273A      1.206362   274A      1.208284   275A      1.210397  
	 276A      1.220433   277A      1.226693   278A      1.228622  
	 279A      1.242233   280A      1.246741   281A      1.252845  
	 282A      1.256274   283A      1.261142   284A      1.263531  
	 285A      1.276238   286A      1.281617   287A      1.285929  
	 288A      1.292158   289A      1.300042   290A      1.304569  
	 291A      1.311409   292A      1.313762   293A      1.316927  
	 294A      1.325546   295A      1.330033   296A      1.334465  
	 297A      1.337527   298A      1.352225   299A      1.353459  
	 300A      1.366776   301A      1.367851   302A      1.373888  
	 303A      1.380778   304A      1.387517   305A      1.397818  
	 306A      1.404051   307A      1.406435   308A      1.413699  
	 309A      1.416677   310A      1.418642   311A      1.426870  
	 312A      1.434419   313A      1.437929   314A      1.447086  
	 315A      1.451190   316A      1.459403   317A      1.466265  
	 318A      1.474795   319A      1.480919   320A      1.485389  
	 321A      1.488687   322A      1.494479   323A      1.504908  
	 324A      1.516334   325A      1.520901   326A      1.526973  
	 327A      1.537241   328A      1.543021   329A      1.547922  
	 330A      1.551528   331A      1.561234   332A      1.564777  
	 333A      1.567789   334A      1.571303   335A      1.572238  
	 336A      1.583668   337A      1.599609   338A      1.601923  
	 339A      1.607046   340A      1.614841   341A      1.620654  
	 342A      1.626165   343A      1.628607   344A      1.634318  
	 345A      1.636479   346A      1.652725   347A      1.660523  
	 348A      1.666748   349A      1.674846   350A      1.681069  
	 351A      1.691643   352A      1.695672   353A      1.709764  
	 354A      1.714554   355A      1.719864   356A      1.728916  
	 357A      1.736324   358A      1.743403   359A      1.745229  
	 360A      1.754020   361A      1.761078   362A      1.772900  
	 363A      1.778512   364A      1.788779   365A      1.791123  
	 366A      1.801387   367A      1.803457   368A      1.817099  
	 369A      1.822691   370A      1.829991   371A      1.837820  
	 372A      1.845044   373A      1.854344   374A      1.855354  
	 375A      1.871974   376A      1.879168   377A      1.883084  
	 378A      1.891161   379A      1.893450   380A      1.911303  
	 381A      1.912223   382A      1.918596   383A      1.923373  
	 384A      1.928701   385A      1.936293   386A      1.948491  
	 387A      1.952243   388A      1.958164   389A      1.965383  
	 390A      1.968590   391A      1.981919   392A      1.986034  
	 393A      2.008656   394A      2.009269   395A      2.017641  
	 396A      2.024445   397A      2.036288   398A      2.042508  
	 399A      2.051495   400A      2.052678   401A      2.066060  
	 402A      2.071938   403A      2.077711   404A      2.083988  
	 405A      2.090054   406A      2.103026   407A      2.112814  
	 408A      2.116746   409A      2.122712   410A      2.125801  
	 411A      2.133226   412A      2.138974   413A      2.144475  
	 414A      2.160654   415A      2.167981   416A      2.171457  
	 417A      2.184049   418A      2.192834   419A      2.197756  
	 420A      2.201717   421A      2.212780   422A      2.217476  
	 423A      2.229871   424A      2.233842   425A      2.251020  
	 426A      2.257183   427A      2.259287   428A      2.272981  
	 429A      2.274130   430A      2.277723   431A      2.301747  
	 432A      2.303343   433A      2.308590   434A      2.317207  
	 435A      2.327560   436A      2.348772   437A      2.354345  
	 438A      2.358009   439A      2.366648   440A      2.375532  
	 441A      2.381874   442A      2.388410   443A      2.394509  
	 444A      2.408201   445A      2.419812   446A      2.425703  
	 447A      2.435984   448A      2.438585   449A      2.452215  
	 450A      2.457013   451A      2.465848   452A      2.471265  
	 453A      2.485107   454A      2.492790   455A      2.509241  
	 456A      2.524267   457A      2.536775   458A      2.543842  
	 459A      2.545951   460A      2.555928   461A      2.562932  
	 462A      2.571869   463A      2.585726   464A      2.594528  
	 465A      2.601833   466A      2.609137   467A      2.623446  
	 468A      2.628582   469A      2.635946   470A      2.637768  
	 471A      2.646717   472A      2.659876   473A      2.672749  
	 474A      2.685799   475A      2.688696   476A      2.696287  
	 477A      2.702601   478A      2.708723   479A      2.714806  
	 480A      2.720461   481A      2.727459   482A      2.741776  
	 483A      2.747074   484A      2.751954   485A      2.760322  
	 486A      2.765896   487A      2.781989   488A      2.785267  
	 489A      2.799136   490A      2.807810   491A      2.813108  
	 492A      2.822771   493A      2.828846   494A      2.833904  
	 495A      2.838728   496A      2.860396   497A      2.867706  
	 498A      2.874767   499A      2.878359   500A      2.880556  
	 501A      2.900171   502A      2.910355   503A      2.917349  
	 504A      2.927474   505A      2.936652   506A      2.951462  
	 507A      2.952255   508A      2.959799   509A      2.971872  
	 510A      2.987035   511A      2.992704   512A      3.000155  
	 513A      3.008363   514A      3.021522   515A      3.031678  
	 516A      3.048743   517A      3.056604   518A      3.063291  
	 519A      3.064403   520A      3.078340   521A      3.086365  
	 522A      3.096467   523A      3.101579   524A      3.104489  
	 525A      3.125248   526A      3.141184   527A      3.147774  
	 528A      3.153458   529A      3.161081   530A      3.176136  
	 531A      3.192185   532A      3.194466   533A      3.203827  
	 534A      3.209100   535A      3.229909   536A      3.241117  
	 537A      3.244035   538A      3.263063   539A      3.264993  
	 540A      3.274454   541A      3.301413   542A      3.315232  
	 543A      3.323821   544A      3.337020   545A      3.356335  
	 546A      3.366596   547A      3.367694   548A      3.373763  
	 549A      3.387042   550A      3.400408   551A      3.409307  
	 552A      3.417676   553A      3.426375   554A      3.444260  
	 555A      3.456262   556A      3.468546   557A      3.475176  
	 558A      3.494178   559A      3.507635   560A      3.515965  
	 561A      3.544378   562A      3.552043   563A      3.577949  
	 564A      3.591939   565A      3.607596   566A      3.611176  
	 567A      3.623986   568A      3.629491   569A      3.645326  
	 570A      3.654920   571A      3.667280   572A      3.681544  
	 573A      3.702995   574A      3.721949   575A      3.733233  
	 576A      3.748865   577A      3.766882   578A      3.785761  
	 579A      3.789957   580A      3.800943   581A      3.823134  
	 582A      3.833346   583A      3.842116   584A      3.857020  
	 585A      3.864383   586A      3.873872   587A      3.880932  
	 588A      3.893304   589A      3.902766   590A      3.934224  
	 591A      3.940052   592A      3.952118   593A      3.971411  
	 594A      3.984536   595A      3.988516   596A      4.001193  
	 597A      4.010857   598A      4.014953   599A      4.036939  
	 600A      4.044362   601A      4.058358   602A      4.072591  
	 603A      4.074667   604A      4.085714   605A      4.102687  
	 606A      4.112607   607A      4.128598   608A      4.143339  
	 609A      4.154606   610A      4.169944   611A      4.186806  
	 612A      4.194076   613A      4.199882   614A      4.211720  
	 615A      4.216597   616A      4.250143   617A      4.262402  
	 618A      4.267485   619A      4.278500   620A      4.282902  
	 621A      4.298950   622A      4.303520   623A      4.326776  
	 624A      4.345860   625A      4.347063   626A      4.362742  
	 627A      4.377131   628A      4.387334   629A      4.404322  
	 630A      4.408270   631A      4.429867   632A      4.446800  
	 633A      4.453278   634A      4.457827   635A      4.473639  
	 636A      4.483124   637A      4.491535   638A      4.501788  
[...]
     477A      2.529787   478A      2.530250   479A      2.537498  
     480A      2.543343   481A      2.551022   482A      2.566649  
     483A      2.573238   484A      2.576608   485A      2.582994  
     486A      2.584116   487A      2.594037   488A      2.599600  
     489A      2.609967   490A      2.616378   491A      2.629723  
     492A      2.632597   493A      2.640397   494A      2.650834  
     495A      2.653686   496A      2.668697   497A      2.672875  
     498A      2.680322   499A      2.691720   500A      2.696193  
     501A      2.700768   502A      2.712689   503A      2.719377  
     504A      2.733616   505A      2.735248   506A      2.743830  
     507A      2.757225   508A      2.766568   509A      2.769384  
     510A      2.775062   511A      2.779669   512A      2.780603  
     513A      2.785871   514A      2.799174   515A      2.805650  
     516A      2.812289   517A      2.823353   518A      2.828054  
     519A      2.845755   520A      2.853670   521A      2.859128  
     522A      2.872135   523A      2.873726   524A      2.879715  
     525A      2.895255   526A      2.918475   527A      2.927669  
     528A      2.945988   529A      2.948527   530A      2.965069  
     531A      2.967401   532A      2.982398   533A      2.985601  
     534A      3.002282   535A      3.010713   536A      3.013741  
     537A      3.031231   538A      3.037559   539A      3.055696  
     540A      3.068057   541A      3.073887   542A      3.090787  
     543A      3.118681   544A      3.129433   545A      3.136780  
     546A      3.147763   547A      3.161155   548A      3.178661  
     549A      3.192757   550A      3.203326   551A      3.210762  
     552A      3.226201   553A      3.241405   554A      3.256192  
     555A      3.257412   556A      3.264051   557A      3.274523  
     558A      3.287445   559A      3.297815   560A      3.309444  
     561A      3.318838   562A      3.347678   563A      3.352998  
     564A      3.372363   565A      3.372811   566A      3.413503  
     567A      3.425062   568A      3.429137   569A      3.448614  
     570A      3.458542   571A      3.469157   572A      3.488134  
     573A      3.489879   574A      3.505686   575A      3.537159  
     576A      3.551857   577A      3.559044   578A      3.587811  
     579A      3.591068   580A      3.611039   581A      3.622391  
     582A      3.628085   583A      3.647930   584A      3.655116  
     585A      3.657819   586A      3.674719   587A      3.680379  
     588A      3.697282   589A      3.705602   590A      3.727602  
     591A      3.747686   592A      3.759394   593A      3.763330  
     594A      3.768452   595A      3.770330   596A      3.780886  
     597A      3.783758   598A      3.815685   599A      3.818872  
     600A      3.833875   601A      3.857093   602A      3.888771  
     603A      3.898136   604A      3.923711   605A      3.928835  
     606A      3.948817   607A      3.955015   608A      3.961335  
     609A      3.988173   610A      3.992596   611A      3.999590  
     612A      4.018718   613A      4.051660   614A      4.053212  
     615A      4.063995   616A      4.067107   617A      4.083754  
     618A      4.088134   619A      4.118078   620A      4.123101  
     621A      4.125313   622A      4.127985   623A      4.151930  
     624A      4.169672   625A      4.183959   626A      4.186700  
     627A      4.197243   628A      4.202880   629A      4.218338  
     630A      4.235527   631A      4.241229   632A      4.249370  
     633A      4.252275   634A      4.263359   635A      4.274023  
     636A      4.288926   637A      4.316110   638A      4.323549  
     639A      4.327217   640A      4.329643   641A      4.333049  
     642A      4.340364   643A      4.365301   644A      4.374121  
     645A      4.384883   646A      4.391617   647A      4.409706  
     648A      4.416041   649A      4.438205   650A      4.447214  
     651A      4.457613   652A      4.468668   653A      4.474771  
     654A      4.486217   655A      4.502873   656A      4.507012  
     657A      4.556692   658A      4.570753   659A      4.572769  
     660A      4.604085   661A      4.612023   662A      4.620026  
     663A      4.632987   664A      4.645604   665A      4.647000  
     666A      4.669775   667A      4.690131   668A      4.692027  
     669A      4.705119   670A      4.712720   671A      4.742910  
     672A      4.756833   673A      4.757101   674A      4.762714  
     675A      4.771537   676A      4.799734   677A      4.803333  
     678A      4.824222   679A      4.844724   680A      4.854466  
     681A      4.857522   682A      4.861683   683A      4.876418  
     684A      4.887237   685A      4.894400   686A      4.903126  
     687A      4.922124   688A      4.937874   689A      4.949687  
     690A      4.964106   691A      4.985091   692A      4.990347  
     693A      5.001443   694A      5.011682   695A      5.013186  
     696A      5.028508   697A      5.034714   698A      5.040482  
     699A      5.043313   700A      5.058071   701A      5.081390  
     702A      5.096964   703A      5.104070   704A      5.114176  
     705A      5.119619   706A      5.127650   707A      5.134210  
     708A      5.144171   709A      5.152245   710A      5.161088  
     711A      5.199280   712A      5.207374   713A      5.241481  
     714A      5.244013   715A      5.259158   716A      5.265001  
     717A      5.279858   718A      5.283055   719A      5.301036  
     720A      5.312264   721A      5.361966   722A      5.378580  
     723A      5.384323   724A      5.404723   725A      5.418917  
     726A      5.426290   727A      5.446000   728A      5.464233  
     729A      5.477959   730A      5.496124   731A      5.509305  
     732A      5.525916   733A      5.528494   734A      5.536043  
     735A      5.543640   736A      5.558694   737A      5.561358  
     738A      5.586440   739A      5.599363   740A      5.627185  
     741A      5.633133   742A      5.659315   743A      5.667936  
     744A      5.676804   745A      5.691146   746A      5.731980  
     747A      5.759642   748A      5.776457   749A      5.794407  
     750A      5.810779   751A      5.811533   752A      5.821744  
     753A      5.833266   754A      5.848909   755A      5.860481  
     756A      5.909832   757A      5.914357   758A      5.918955  
     759A      5.945636   760A      5.980296   761A      5.984232  
     762A      6.005849   763A      6.033181   764A      6.044944  
     765A      6.055285   766A      6.090724   767A      6.093935  
     768A      6.107219   769A      6.114284   770A      6.145561  
     771A      6.185416   772A      6.224633   773A      6.227816  
     774A      6.243257   775A      6.260470   776A      6.276217  
     777A      6.326637   778A      6.385343   779A      6.434755  
     780A      6.441874   781A      6.469454   782A      6.514739  
     783A      6.537488   784A      6.549713   785A      6.567834  
     786A      6.583992   787A      6.593138   788A      6.610989  
     789A      6.621349   790A      6.658206   791A      6.671445  
     792A      6.686434   793A      6.702838   794A      6.706441  
     795A      6.736084   796A      6.741196   797A      6.762468  
     798A      6.799530   799A      6.805792   800A      6.832097  
     801A      6.847473   802A      6.854878   803A      6.855891  
     804A      6.863337   805A      6.912145   806A      6.929880  
     807A      6.945274   808A      6.951891   809A      6.966110  
     810A      6.984809   811A      7.012627   812A      7.091814  
     813A      7.105513   814A      7.132702   815A      7.165534  
     816A      7.171650   817A      7.262596   818A      7.270034  
     819A      7.335764   820A      7.342545   821A      7.363868  
     822A      7.374782   823A      7.381539   824A      7.396942  
     825A      7.403722   826A      7.430511   827A      7.463684  
     828A      7.533428   829A      7.550217   830A      7.563898  
     831A      7.583739   832A      7.602351   833A      7.629637  
     834A      7.642181   835A      7.646717   836A      7.647444  
     837A      7.654163   838A      7.678108   839A      7.703494  
     840A      7.708041   841A      7.713100   842A      7.759863  
     843A      7.807268   844A      7.817196   845A      7.843751  
     846A      7.857995   847A      7.871192   848A      7.890866  
     849A      7.902522   850A      7.908278   851A      7.936916  
     852A      7.964357   853A      7.978294   854A      7.982193  
     855A      8.012342   856A      8.019778   857A      8.022306  
     858A      8.095929   859A      8.131194   860A      8.189488  
     861A      8.232093   862A      8.281218   863A      8.329155  
     864A      8.426481   865A      8.563166   866A      8.637717  
     867A      8.705172   868A      8.731756   869A      8.892036  
     870A      9.033639   871A      9.089104   872A      9.231715  
     873A      9.282149   874A      9.405311   875A      9.529178  
     876A      9.553215   877A      9.757722   878A      9.856023  
     879A      9.960321   880A      9.967505   881A     10.039966  
     882A     10.130149   883A     10.173045   884A     10.237894  
     885A     10.387361   886A     10.443446   887A     10.508769  
     888A     10.537855   889A     10.976990   890A     11.232317  
     891A     11.312128   892A     11.448386   893A     12.006869  
     894A     12.032369   895A     12.048330   896A     12.057443  
     897A     12.233970   898A     12.458732   899A     12.695553  
     900A     12.890515   901A     13.296756   902A     13.516035  
     903A     14.181840   904A     14.204447   905A     15.978347  
     906A     16.068667   907A     16.334238   908A     16.943236  
     909A     18.292813   910A     19.390876   911A     19.807710  
     912A     20.420777   913A     51.629555   914A     51.889750  
     915A     53.980037   916A     55.114663   917A     60.027594  
     918A     60.833676   919A     68.987288   920A     69.520771  

    Final Occupation by Irrep:
              A 
    DOCC [    29 ]

  @DF-RHF Final Energy:  -412.62378242595889

   => Energetics <=

    Nuclear Repulsion Energy =            357.1600158833169303
    One-Electron Energy =               -1270.6910389480872254
    Two-Electron Energy =                 500.9072406388114587
    Total Energy =                       -412.6237824259588933

Computation Completed


Properties will be evaluated at   0.000000,   0.000000,   0.000000 [a0]

Properties computed using the SCF density matrix

  Nuclear Dipole Moment: [e a0]
     X:  -309.7764      Y:   -51.1855      Z:    -2.9740

  Electronic Dipole Moment: [e a0]
     X:   309.2079      Y:    52.6777      Z:     1.8010

  Dipole Moment: [e a0]
     X:    -0.5685      Y:     1.4922      Z:    -1.1730     Total:     1.9814

  Dipole Moment: [D]
     X:    -1.4449      Y:     3.7928      Z:    -2.9815     Total:     5.0361


*** tstop() called on node62.bme.utexas.edu at Fri Apr 24 13:49:42 2020
Module time:
	user time   =     831.46 seconds =      13.86 minutes
	system time =      43.22 seconds =       0.72 minutes
	total time  =        117 seconds =       1.95 minutes
Total time:
	user time   =    3011.10 seconds =      50.18 minutes
	system time =     191.11 seconds =       3.19 minutes
	total time  =        430 seconds =       7.17 minutes
  Constructing Basis Sets for SAPT...

   => Loading Basis Set <=

    Name: (AUG-CC-PVTZ AUX)
    Role: RIFIT
    Keyword: DF_BASIS_SAPT
    atoms 1, 5, 13, 17                entry N          line   206 file /home/liuchw/anaconda3/envs/psi4env/share/psi4/basis/aug-cc-pvtz-ri.gbs 
    atoms 2, 6, 8, 10, 14, 18, 20, 22 entry H          line    30 file /home/liuchw/anaconda3/envs/psi4env/share/psi4/basis/aug-cc-pvtz-ri.gbs 
    atoms 3, 7, 9, 11, 15, 19, 21, 23 entry C          line   148 file /home/liuchw/anaconda3/envs/psi4env/share/psi4/basis/aug-cc-pvtz-ri.gbs 
    atoms 4, 12, 16, 24               entry O          line   264 file /home/liuchw/anaconda3/envs/psi4env/share/psi4/basis/aug-cc-pvtz-ri.gbs 


  //>>>>>>>>>>>>>>>>>>>>>>>>>>>>>>>>>>>//
  //               SAPT2+              //
  //<<<<<<<<<<<<<<<<<<<<<<<<<<<<<<<<<<<//


*** tstart() called on node62.bme.utexas.edu
*** at Fri Apr 24 13:49:42 2020

        SAPT2+  
    Ed Hohenstein
     6 June 2009

      Orbital Information
  --------------------------
    NSO        =       920
    NMO        =       920
    NRI        =      2064
    NOCC A     =        29
    NOCC B     =        29
    FOCC A     =         8
    FOCC B     =         8
    NVIR A     =       891
    NVIR B     =       891

    Estimated memory usage: 29132.3 MB

    Natural Orbital Cutoff:   1.000E-06
    Disp(T3) Truncation:            Yes
    CCD (vv|vv) Truncation:         Yes
    MBPT T2 Truncation:             Yes

    Monomer A: 503 virtual orbitals dropped
    Monomer B: 503 virtual orbitals dropped

    Elst10,r            =    -0.001347696896 [Eh]
    Exch10 (S^2)        =     0.000002062398 [Eh]
    Exch10              =     0.000002062398 [Eh]
    Ind20,r (A<-B)      =    -0.000039040991 [Eh]
    Ind20,r (B<-A)      =    -0.000039040859 [Eh]
    Ind20,r             =    -0.000078081850 [Eh]
    Exch-Ind20,r (A<-B) =     0.000000232059 [Eh]
    Exch-Ind20,r (B<-A) =     0.000000232061 [Eh]
    Exch-Ind20,r        =     0.000000464120 [Eh]
    Disp20              =    -0.000805379254 [Eh]
    Disp20 (NO)         =    -0.000793286370 [Eh]
    Exch-Disp20         =     0.000000663737 [Eh]
    Elst12,r            =     0.000317475565 [Eh]
    Exch11              =    -0.000000038154 [Eh]
    Exch12              =     0.000000400788 [Eh]
    Ind22               =     0.000020529012 [Eh]
    Disp21              =     0.000263308487 [Eh]
    Disp22 (SDQ)        =    -0.000034221739 [Eh]

    (i =   1 of  21)       1219 seconds
    (i =   2 of  21)       2423 seconds
    (i =   3 of  21)       3639 seconds
    (i =   4 of  21)       4847 seconds
    (i =   5 of  21)       6065 seconds
    (i =   6 of  21)       7278 seconds
    (i =   7 of  21)       8483 seconds
    (i =   8 of  21)       9691 seconds
    (i =   9 of  21)      10898 seconds
    (i =  10 of  21)      12105 seconds
    (i =  11 of  21)      13312 seconds
    (i =  12 of  21)      14518 seconds
    (i =  13 of  21)      15724 seconds
    (i =  14 of  21)      16937 seconds
    (i =  15 of  21)      18145 seconds
    (i =  16 of  21)      19354 seconds
    (i =  17 of  21)      20561 seconds
    (i =  18 of  21)      21779 seconds
    (i =  19 of  21)      22990 seconds
    (i =  20 of  21)      24207 seconds
    (i =  21 of  21)      25418 seconds

    Disp220 (T)         =    -0.000098994213 [Eh]

    (i =   1 of  21)       1237 seconds
    (i =   2 of  21)       2461 seconds
    (i =   3 of  21)       3686 seconds
    (i =   4 of  21)       4946 seconds
    (i =   5 of  21)       6205 seconds
    (i =   6 of  21)       7462 seconds
    (i =   7 of  21)       8712 seconds
    (i =   8 of  21)       9956 seconds
    (i =   9 of  21)      11207 seconds
    (i =  10 of  21)      12458 seconds
    (i =  11 of  21)      13713 seconds
    (i =  12 of  21)      14962 seconds
    (i =  13 of  21)      16212 seconds
    (i =  14 of  21)      17463 seconds
    (i =  15 of  21)      18714 seconds
    (i =  16 of  21)      19967 seconds
    (i =  17 of  21)      21236 seconds
    (i =  18 of  21)      22488 seconds
    (i =  19 of  21)      23743 seconds
    (i =  20 of  21)      24993 seconds
    (i =  21 of  21)      26248 seconds

    Disp202 (T)         =    -0.000098994183 [Eh]

    Disp22 (T)          =    -0.000197988396 [Eh]

    Est. Disp220 (T)    =    -0.000100503284 [Eh]
    Est. Disp202 (T)    =    -0.000100503254 [Eh]

    Est. Disp22 (T)     =    -0.000201006538 [Eh]

    SAPT Results 
  --------------------------------------------------------------------------------------------------------
    Electrostatics                 -1.03022133 [mEh]      -0.64647365 [kcal/mol]      -2.70484573 [kJ/mol]
      Elst10,r                     -1.34769690 [mEh]      -0.84569257 [kcal/mol]      -3.53837771 [kJ/mol]
      Elst12,r                      0.31747556 [mEh]       0.19921892 [kcal/mol]       0.83353198 [kJ/mol]

    Exchange                        0.00242503 [mEh]       0.00152173 [kcal/mol]       0.00636692 [kJ/mol]
      Exch10                        0.00206240 [mEh]       0.00129417 [kcal/mol]       0.00541483 [kJ/mol]
      Exch10(S^2)                   0.00206240 [mEh]       0.00129417 [kcal/mol]       0.00541483 [kJ/mol]
      Exch11(S^2)                  -0.00003815 [mEh]      -0.00002394 [kcal/mol]      -0.00010017 [kJ/mol]
      Exch12(S^2)                   0.00040079 [mEh]       0.00025150 [kcal/mol]       0.00105227 [kJ/mol]

    Induction                      -0.05933223 [mEh]      -0.03723154 [kcal/mol]      -0.15577675 [kJ/mol]
      Ind20,r                      -0.07808185 [mEh]      -0.04899710 [kcal/mol]      -0.20500387 [kJ/mol]
      Ind22                         0.02052901 [mEh]       0.01288215 [kcal/mol]       0.05389891 [kJ/mol]
      Exch-Ind20,r                  0.00046412 [mEh]       0.00029124 [kcal/mol]       0.00121855 [kJ/mol]
      Exch-Ind22                   -0.00012202 [mEh]      -0.00007657 [kcal/mol]      -0.00032038 [kJ/mol]
      delta HF,r (2)               -0.00212149 [mEh]      -0.00133125 [kcal/mol]      -0.00556996 [kJ/mol]

    Dispersion                     -0.77663531 [mEh]      -0.48734601 [kcal/mol]      -2.03905572 [kJ/mol]
      Disp20                       -0.80537925 [mEh]      -0.50538311 [kcal/mol]      -2.11452294 [kJ/mol]
      Disp21                        0.26330849 [mEh]       0.16522857 [kcal/mol]       0.69131634 [kJ/mol]
      Disp22 (SDQ)                 -0.03422174 [mEh]      -0.02147447 [kcal/mol]      -0.08984916 [kJ/mol]
      Disp22 (T)                   -0.19798840 [mEh]      -0.12423959 [kcal/mol]      -0.51981846 [kJ/mol]
      Est. Disp22 (T)              -0.20100654 [mEh]      -0.12613351 [kcal/mol]      -0.52774259 [kJ/mol]
      Exch-Disp20                   0.00066374 [mEh]       0.00041650 [kcal/mol]       0.00174264 [kJ/mol]

  Total HF                         -1.42537371 [mEh]      -0.89443551 [kcal/mol]      -3.74231817 [kJ/mol]
  Total SAPT0                      -2.23008923 [mEh]      -1.39940212 [kcal/mol]      -5.85509847 [kJ/mol]
  Total SAPT2                      -1.89184405 [mEh]      -1.18715006 [kcal/mol]      -4.96703586 [kJ/mol]
  Total SAPT2+                     -1.86376384 [mEh]      -1.16952946 [kcal/mol]      -4.89331128 [kJ/mol]

  Special recipe for scaled SAPT0 (see Manual):
    Electrostatics sSAPT0          -1.34769690 [mEh]      -0.84569257 [kcal/mol]      -3.53837771 [kJ/mol]
    Exchange sSAPT0                 0.00206240 [mEh]       0.00129417 [kcal/mol]       0.00541483 [kJ/mol]
    Induction sSAPT0               -0.07973922 [mEh]      -0.05003711 [kcal/mol]      -0.20935528 [kJ/mol]
    Dispersion sSAPT0              -0.80471552 [mEh]      -0.50496661 [kcal/mol]      -2.11278030 [kJ/mol]
  Total sSAPT0                     -2.23008923 [mEh]      -1.39940212 [kcal/mol]      -5.85509847 [kJ/mol]
  --------------------------------------------------------------------------------------------------------

*** tstop() called on node62.bme.utexas.edu at Sat Apr 25 05:57:28 2020
Module time:
	user time   =  346853.91 seconds =    5780.90 minutes
	system time =    6399.50 seconds =     106.66 minutes
	total time  =      58066 seconds =     967.77 minutes
Total time:
	user time   =  349865.76 seconds =    5831.10 minutes
	system time =    6590.65 seconds =     109.84 minutes
	total time  =      58496 seconds =     974.93 minutes

    Psi4 stopped on: Saturday, 25 April 2020 05:57AM
    Psi4 wall time for execution: 16:14:56.64

*** Psi4 exiting successfully. Buy a developer a beer!
