    -----------------------------------------------------------------------
          PSI4: An Open-Source Ab Initio Electronic Structure Package
                              PSI 4.0.0-beta4 Driver

    J. M. Turney, A. C. Simmonett, R. M. Parrish, E. G. Hohenstein,
    F. A. Evangelista, J. T. Fermann, B. J. Mintz, L. A. Burns, J. J. Wilke,
    M. L. Abrams, N. J. Russ, M. L. Leininger, C. L. Janssen, E. T. Seidl,
    W. D. Allen, H. F. Schaefer, R. A. King, E. F. Valeev, C. D. Sherrill,
    and T. D. Crawford, WIREs Comput. Mol. Sci., (2011) (doi: 10.1002/wcms.93)

                         Additional Contributions by
    A. E. DePrince, M. Saitow, U. Bozkaya, A. Yu. Sokolov
    -----------------------------------------------------------------------

    Process ID:   4725
    PSI4DATADIR: /home/xzhu216/psi4/psi4-install/share/psi

    Using LocalCommunicator (Number of processes = 1)

    Memory level set to 256.000 MB

  ==> Input File <==

--------------------------------------------------------------------------
#psi4
#
memory 30 gb

molecule Benzene_Pyridine {
0 1
C    0.818746988   0.864172340   0.188286116
H    1.466113611   1.716667667   0.344721407
C    1.368997119  -0.390523941  -0.066698182
H    2.443036367  -0.511861940  -0.110574439
C    0.534378602  -1.488493196  -0.271888037
H    0.960848252  -2.461564217  -0.475507491
C   -0.849115613  -1.330507345  -0.219896434
H   -1.497069424  -2.181860285  -0.379553211
C   -1.399485456  -0.076030202   0.040434165
H   -2.472686669   0.044907778   0.093382057
C   -0.565292303   1.021403360   0.242279208
H   -0.992556673   1.993661308   0.446258168
--
0 1
N   -2.275906932   0.102166616   3.074721141
C   -1.661021001   1.259834426   3.354785331
H   -2.308625058   2.113005879   3.517297424
C   -0.278806103   1.400682162   3.444956147
H    0.153042655   2.364332277   3.676172444
C    0.522145288   0.283702858   3.230742236
H    1.599714456   0.354087136   3.285576746
C   -0.098406615  -0.924952180   2.937082659
H    0.477367895  -1.820574063   2.753007722
C   -1.488920892  -0.962990063   2.871633241
H   -1.997773817  -1.891443441   2.642790567
units angstrom
no_reorient  #important for SAPT in psi4, default
symmetry c1  #important for SAPT in psi4, default
}

set {
basis aug-cc-pVTZ
scf_type DF
freeze_core True
}
energy('sapt2+')
--------------------------------------------------------------------------

  Memory set to  30.000 GiB by Python script.

  //>>>>>>>>>>>>>>>>>>>>>>>>>>>>>>>>>>>//
  //              Dimer HF             //
  //<<<<<<<<<<<<<<<<<<<<<<<<<<<<<<<<<<<//


  No DF_BASIS_SCF auxiliary basis selected, defaulting to aug-cc-pvtz-jkfit


*** tstart() called on pharma.bme.utexas.edu
*** at Mon Oct  7 19:06:47 2013


         ---------------------------------------------------------
                                   SCF
            by Justin Turney, Rob Parrish, and Andy Simmonett
                              RHF Reference
                        8 Threads,  30000 MiB Core
         ---------------------------------------------------------

  ==> Geometry <==

    Molecular point group: c1
    Full point group: C1

    Geometry (in Angstrom), charge = 0, multiplicity = 1:

       Center              X                  Y                   Z       
    ------------   -----------------  -----------------  -----------------
           C          1.272098546646     0.883120896488    -1.390392632293
           H          1.919465169646     1.735616223488    -1.233957341293
           C          1.822348677646    -0.371575384512    -1.645376930293
           H          2.896387925646    -0.492913383512    -1.689253187293
           C          0.987730160646    -1.469544639512    -1.850566785293
           H          1.414199810646    -2.442615660512    -2.054186239293
           C         -0.395764054354    -1.311558788512    -1.798575182293
           H         -1.043717865354    -2.162911728512    -1.958231959293
           C         -0.946133897354    -0.057081645512    -1.538244583293
           H         -2.019335110354     0.063856334488    -1.485296691293
           C         -0.111940744354     1.040351916488    -1.336399540293
           H         -0.539205114354     2.012609864488    -1.132420580293
           N         -1.822555373354     0.121115172488     1.496042392707
           C         -1.207669442354     1.278782982488     1.776106582707
           H         -1.855273499354     2.131954435488     1.938618675707
           C          0.174545455646     1.419630718488     1.866277398707
           H          0.606394213646     2.383280833488     2.097493695707
           C          0.975496846646     0.302651414488     1.652063487707
           H          2.053066014646     0.373035692488     1.706897997707
           C          0.354944943646    -0.906003623512     1.358403910707
           H          0.930719453646    -1.801625506512     1.174328973707
           C         -1.035569333354    -0.944041506512     1.292954492707
           H         -1.544422258354    -1.872494884512     1.064111818707

  Running in c1 symmetry.

  Nuclear repulsion =  654.650174332339361

  Charge       = 0
  Multiplicity = 1
  Electrons    = 84
  Nalpha       = 42
  Nbeta        = 42

  ==> Algorithm <==

  SCF Algorithm Type is DF.
  DIIS enabled.
  MOM disabled.
  Fractional occupation disabled.
  Guess Type is CORE.
  Energy threshold   = 1.00e-08
  Density threshold  = 1.00e-08
  Integral threshold = 0.00e+00

  ==> Primary Basis <==

  Basis Set: AUG-CC-PVTZ
    Number of shells: 267
    Number of basis function: 805
    Number of Cartesian functions: 935
    Spherical Harmonics?: true
    Max angular momentum: 3

  ==> Pre-Iterations <==

   -------------------------------------------------------
    Irrep   Nso     Nmo     Nalpha   Nbeta   Ndocc  Nsocc
   -------------------------------------------------------
     A        805     805       0       0       0       0
   -------------------------------------------------------
    Total     805     805      42      42      42       0
   -------------------------------------------------------

 OEINTS: Wrapper to libmints.
   by Justin Turney

   Calculation information:
      Number of atoms:                  23
      Number of AO shells:             267
      Number of SO shells:             267
      Number of primitives:            481
      Number of atomic orbitals:       935
      Number of basis functions:       805

      Number of irreps:                  1
      Number of functions per irrep: [ 805 ]

      Overlap, kinetic, potential, dipole, and quadrupole integrals
        stored in file 35.

  ==> Integral Setup <==

  ==> DFJK: Density-Fitted J/K Matrices <==

    J tasked:                  Yes
    K tasked:                  Yes
    wK tasked:                  No
    OpenMP threads:              8
    Integrals threads:           8
    Memory (MB):             21457
    Algorithm:                Core
    Integral Cache:           SAVE
    Schwarz Cutoff:          0E+00
    Fitting Condition:       1E-12

   => Auxiliary Basis Set <=

  Basis Set: aug-cc-pvtz-jkfit
    Number of shells: 514
    Number of basis function: 1754
    Number of Cartesian functions: 2177
    Spherical Harmonics?: true
    Max angular momentum: 4

  Minimum eigenvalue in the overlap matrix is 2.1474150532E-07.
  Using Symmetric Orthogonalization.
  SCF Guess: Core (One-Electron) Hamiltonian.

  Guess energy:  -386.46364464334727

  ==> Iterations <==

                        Total Energy        Delta E     RMS |[F,P]|

   @RHF iter   1:  -359.35265400645187   -3.59353e+02   1.93403e-02 
   @RHF iter   2:  -254.71382481811031    1.04639e+02   1.50180e-02 DIIS
   @RHF iter   3:  -336.64517894607320   -8.19314e+01   1.46232e-02 DIIS
   @RHF iter   4:  -359.52258177798660   -2.28774e+01   1.53232e-02 DIIS
   @RHF iter   5:  -440.93840799002680   -8.14158e+01   7.14036e-03 DIIS
   @RHF iter   6:  -445.91065503094194   -4.97225e+00   7.63849e-03 DIIS
   @RHF iter   7:  -476.60789632856847   -3.06972e+01   1.49087e-03 DIIS
   @RHF iter   8:  -477.10256197440128   -4.94666e-01   1.13043e-03 DIIS
   @RHF iter   9:  -477.52660630004459   -4.24044e-01   1.43582e-04 DIIS
   @RHF iter  10:  -477.53683759213288   -1.02313e-02   7.66173e-05 DIIS
   @RHF iter  11:  -477.53920482986143   -2.36724e-03   2.07736e-05 DIIS
   @RHF iter  12:  -477.53949006175651   -2.85232e-04   7.39952e-06 DIIS
   @RHF iter  13:  -477.53954602879264   -5.59670e-05   3.57405e-06 DIIS
   @RHF iter  14:  -477.53955917180963   -1.31430e-05   1.82997e-06 DIIS
   @RHF iter  15:  -477.53956436385431   -5.19204e-06   7.51485e-07 DIIS
   @RHF iter  16:  -477.53956542276671   -1.05891e-06   2.90576e-07 DIIS
   @RHF iter  17:  -477.53956554711624   -1.24350e-07   1.11243e-07 DIIS
   @RHF iter  18:  -477.53956555720731   -1.00911e-08   3.57164e-08 DIIS
   @RHF iter  19:  -477.53956555837146   -1.16415e-09   1.22553e-08 DIIS
   @RHF iter  20:  -477.53956555848424   -1.12777e-10   3.51033e-09 DIIS

  ==> Post-Iterations <==

	Orbital Energies (a.u.)
	-----------------------

	Doubly Occupied:                                                      

	   1A    -15.557971     2A    -11.267998     3A    -11.267494  
	   4A    -11.252181     5A    -11.233785     6A    -11.233243  
	   7A    -11.233159     8A    -11.232234     9A    -11.232171  
	  10A    -11.231672    11A    -11.230981    12A    -11.230051  
	  13A     -1.249689    14A     -1.148876    15A     -1.082409  
	  16A     -1.027151    17A     -1.012976    18A     -1.012638  
	  19A     -0.852479    20A     -0.848859    21A     -0.822568  
	  22A     -0.822266    23A     -0.716104    24A     -0.707261  
	  25A     -0.652977    26A     -0.647652    27A     -0.642559  
	  28A     -0.616884    29A     -0.591729    30A     -0.586659  
	  31A     -0.586232    32A     -0.569879    33A     -0.550732  
	  34A     -0.512925    35A     -0.493184    36A     -0.492746  
	  37A     -0.486880    38A     -0.412926    39A     -0.384052  
	  40A     -0.349708    41A     -0.331837    42A     -0.317916  

	Virtual:                                                              

	  43A      0.025619    44A      0.030500    45A      0.034214  
	  46A      0.040273    47A      0.043663    48A      0.045416  
	  49A      0.048420    50A      0.050659    51A      0.062150  
	  52A      0.064575    53A      0.064916    54A      0.084784  
	  55A      0.095734    56A      0.098524    57A      0.101826  
	  58A      0.103834    59A      0.106778    60A      0.108907  
	  61A      0.113697    62A      0.116637    63A      0.117133  
	  64A      0.120048    65A      0.121892    66A      0.122269  
	  67A      0.124484    68A      0.128496    69A      0.130671  
	  70A      0.131099    71A      0.136847    72A      0.142264  
	  73A      0.145054    74A      0.149845    75A      0.151589  
	  76A      0.153281    77A      0.155363    78A      0.158357  
	  79A      0.159814    80A      0.161008    81A      0.162879  
	  82A      0.166353    83A      0.176020    84A      0.176843  
	  85A      0.184398    86A      0.185881    87A      0.187143  
	  88A      0.188937    89A      0.198190    90A      0.214859  
	  91A      0.230428    92A      0.232007    93A      0.241125  
	  94A      0.245496    95A      0.247872    96A      0.253988  
	  97A      0.257638    98A      0.261148    99A      0.265391  
	 100A      0.268524   101A      0.272779   102A      0.275084  
	 103A      0.277927   104A      0.282184   105A      0.290618  
	 106A      0.296132   107A      0.297614   108A      0.301543  
	 109A      0.302664   110A      0.306935   111A      0.311391  
	 112A      0.315134   113A      0.318525   114A      0.327066  
	 115A      0.329225   116A      0.338216   117A      0.344433  
	 118A      0.345136   119A      0.348891   120A      0.354138  
	 121A      0.355777   122A      0.356847   123A      0.359366  
	 124A      0.361021   125A      0.365859   126A      0.367669  
	 127A      0.374365   128A      0.381440   129A      0.383524  
	 130A      0.384955   131A      0.392037   132A      0.401327  
	 133A      0.413186   134A      0.418718   135A      0.421000  
	 136A      0.425948   137A      0.431681   138A      0.435713  
	 139A      0.440871   140A      0.442575   141A      0.450193  
	 142A      0.454320   143A      0.458048   144A      0.459944  
	 145A      0.466689   146A      0.475515   147A      0.480319  
	 148A      0.482459   149A      0.488922   150A      0.491896  
	 151A      0.496523   152A      0.497202   153A      0.498601  
	 154A      0.500849   155A      0.504316   156A      0.507187  
	 157A      0.510832   158A      0.514935   159A      0.517951  
	 160A      0.521132   161A      0.522646   162A      0.526826  
	 163A      0.532926   164A      0.537586   165A      0.542625  
	 166A      0.543417   167A      0.545005   168A      0.546432  
	 169A      0.549779   170A      0.552988   171A      0.559734  
	 172A      0.564173   173A      0.569682   174A      0.573047  
	 175A      0.579558   176A      0.581825   177A      0.584121  
	 178A      0.587758   179A      0.598324   180A      0.599774  
	 181A      0.602950   182A      0.605896   183A      0.607733  
	 184A      0.615033   185A      0.624528   186A      0.635054  
	 187A      0.639061   188A      0.644982   189A      0.648936  
	 190A      0.652190   191A      0.652979   192A      0.663379  
	 193A      0.665693   194A      0.669253   195A      0.671382  
	 196A      0.674783   197A      0.676185   198A      0.690345  
	 199A      0.694225   200A      0.696967   201A      0.706958  
	 202A      0.708166   203A      0.708995   204A      0.717169  
	 205A      0.724230   206A      0.729476   207A      0.735075  
	 208A      0.738548   209A      0.745751   210A      0.758101  
	 211A      0.761836   212A      0.763911   213A      0.767802  
	 214A      0.778840   215A      0.781611   216A      0.790490  
	 217A      0.795498   218A      0.803511   219A      0.808137  
	 220A      0.809551   221A      0.819461   222A      0.821858  
	 223A      0.828441   224A      0.833418   225A      0.840115  
	 226A      0.845895   227A      0.850901   228A      0.860084  
	 229A      0.860604   230A      0.866573   231A      0.870540  
	 232A      0.875472   233A      0.876880   234A      0.884868  
	 235A      0.887423   236A      0.896792   237A      0.901044  
	 238A      0.902760   239A      0.913424   240A      0.917922  
	 241A      0.919947   242A      0.925477   243A      0.929764  
	 244A      0.935179   245A      0.939616   246A      0.943439  
	 247A      0.952070   248A      0.955992   249A      0.958581  
	 250A      0.967455   251A      0.971405   252A      0.973827  
	 253A      0.978483   254A      0.988389   255A      0.993360  
	 256A      0.999700   257A      1.005077   258A      1.008052  
	 259A      1.011609   260A      1.018645   261A      1.029789  
	 262A      1.032146   263A      1.042134   264A      1.044231  
	 265A      1.053941   266A      1.061030   267A      1.070779  
	 268A      1.075688   269A      1.080716   270A      1.087363  
	 271A      1.093342   272A      1.100415   273A      1.101886  
	 274A      1.106031   275A      1.112305   276A      1.114877  
	 277A      1.119230   278A      1.124027   279A      1.129972  
	 280A      1.132700   281A      1.135379   282A      1.141850  
	 283A      1.149773   284A      1.151211   285A      1.154498  
	 286A      1.155959   287A      1.162573   288A      1.168154  
	 289A      1.173015   290A      1.174320   291A      1.183414  
	 292A      1.188210   293A      1.195201   294A      1.203373  
	 295A      1.207751   296A      1.214303   297A      1.219391  
	 298A      1.221069   299A      1.228563   300A      1.232925  
	 301A      1.235676   302A      1.243688   303A      1.246701  
	 304A      1.248867   305A      1.253139   306A      1.259631  
	 307A      1.265690   308A      1.271803   309A      1.275433  
	 310A      1.283003   311A      1.290365   312A      1.292296  
	 313A      1.293195   314A      1.296714   315A      1.302351  
	 316A      1.309720   317A      1.315718   318A      1.320854  
	 319A      1.328072   320A      1.334173   321A      1.339936  
	 322A      1.349096   323A      1.351544   324A      1.355010  
	 325A      1.366210   326A      1.371639   327A      1.380569  
	 328A      1.385922   329A      1.391101   330A      1.395865  
	 331A      1.405093   332A      1.408075   333A      1.409599  
	 334A      1.421600   335A      1.430147   336A      1.437265  
	 337A      1.441670   338A      1.444680   339A      1.449958  
	 340A      1.455569   341A      1.460382   342A      1.466983  
	 343A      1.481345   344A      1.483297   345A      1.487175  
	 346A      1.492296   347A      1.497929   348A      1.500296  
	 349A      1.508407   350A      1.520717   351A      1.527028  
	 352A      1.534042   353A      1.536234   354A      1.544062  
	 355A      1.554329   356A      1.561063   357A      1.568088  
	 358A      1.573064   359A      1.576908   360A      1.582887  
	 361A      1.589049   362A      1.600766   363A      1.609684  
	 364A      1.614255   365A      1.627080   366A      1.631541  
	 367A      1.638295   368A      1.654837   369A      1.662675  
	 370A      1.672558   371A      1.677103   372A      1.688973  
	 373A      1.696914   374A      1.712370   375A      1.720375  
	 376A      1.723508   377A      1.727265   378A      1.740845  
	 379A      1.747335   380A      1.755364   381A      1.757101  
	 382A      1.764582   383A      1.767767   384A      1.778489  
	 385A      1.782023   386A      1.789282   387A      1.791060  
	 388A      1.799732   389A      1.804860   390A      1.816475  
	 391A      1.823371   392A      1.831768   393A      1.835861  
	 394A      1.845118   395A      1.853138   396A      1.858863  
	 397A      1.863439   398A      1.869046   399A      1.878541  
	 400A      1.889025   401A      1.892434   402A      1.898117  
	 403A      1.914344   404A      1.917144   405A      1.919140  
	 406A      1.931497   407A      1.939419   408A      1.944974  
	 409A      1.950796   410A      1.958735   411A      1.972885  
	 412A      1.981007   413A      1.989513   414A      1.999017  
	 415A      2.014396   416A      2.015231   417A      2.022828  
	 418A      2.031942   419A      2.043139   420A      2.045999  
	 421A      2.051246   422A      2.054969   423A      2.058899  
	 424A      2.074620   425A      2.079333   426A      2.082480  
	 427A      2.092204   428A      2.094718   429A      2.102782  
	 430A      2.114982   431A      2.118985   432A      2.131295  
	 433A      2.133210   434A      2.140226   435A      2.147592  
	 436A      2.161741   437A      2.163503   438A      2.177303  
	 439A      2.185558   440A      2.188782   441A      2.195772  
	 442A      2.204874   443A      2.206561   444A      2.217931  
	 445A      2.224451   446A      2.225530   447A      2.237061  
	 448A      2.242372   449A      2.261785   450A      2.271686  
	 451A      2.278582   452A      2.307175   453A      2.308588  
	 454A      2.324900   455A      2.331973   456A      2.337727  
	 457A      2.347654   458A      2.354451   459A      2.363420  
	 460A      2.374471   461A      2.386239   462A      2.397737  
	 463A      2.405351   464A      2.415441   465A      2.424618  
	 466A      2.444318   467A      2.452599   468A      2.468937  
	 469A      2.472052   470A      2.477217   471A      2.484016  
	 472A      2.506681   473A      2.515834   474A      2.529255  
	 475A      2.534664   476A      2.542881   477A      2.548023  
	 478A      2.554203   479A      2.563447   480A      2.570425  
	 481A      2.579742   482A      2.592410   483A      2.597481  
	 484A      2.611836   485A      2.625714   486A      2.630353  
	 487A      2.638634   488A      2.645298   489A      2.661691  
	 490A      2.674556   491A      2.695041   492A      2.717427  
	 493A      2.731812   494A      2.752910   495A      2.766667  
	 496A      2.785977   497A      2.805182   498A      2.806728  
	 499A      2.849350   500A      2.851375   501A      2.864898  
	 502A      2.872106   503A      2.876516   504A      2.898930  
	 505A      2.952653   506A      2.973888   507A      2.991870  
	 508A      3.076675   509A      3.104242   510A      3.115460  
	 511A      3.132622   512A      3.152081   513A      3.164951  
	 514A      3.190913   515A      3.205935   516A      3.229537  
	 517A      3.231626   518A      3.267899   519A      3.292462  
	 520A      3.306870   521A      3.315659   522A      3.327071  
	 523A      3.337100   524A      3.347491   525A      3.353541  
	 526A      3.368561   527A      3.386352   528A      3.398856  
	 529A      3.410046   530A      3.420293   531A      3.430941  
	 532A      3.440823   533A      3.447283   534A      3.451975  
	 535A      3.462812   536A      3.470538   537A      3.478775  
	 538A      3.489566   539A      3.495641   540A      3.510462  
	 541A      3.523862   542A      3.529516   543A      3.535042  
	 544A      3.542921   545A      3.556383   546A      3.570075  
	 547A      3.574221   548A      3.588997   549A      3.601888  
	 550A      3.610840   551A      3.625134   552A      3.632456  
	 553A      3.640219   554A      3.644829   555A      3.664420  
	 556A      3.668421   557A      3.674049   558A      3.676746  
	 559A      3.679858   560A      3.686511   561A      3.697079  
	 562A      3.713881   563A      3.727366   564A      3.732795  
	 565A      3.735032   566A      3.740624   567A      3.756693  
	 568A      3.773790   569A      3.784834   570A      3.787873  
	 571A      3.817884   572A      3.827679   573A      3.833726  
	 574A      3.836761   575A      3.848733   576A      3.860786  
	 577A      3.863094   578A      3.866346   579A      3.876884  
	 580A      3.881157   581A      3.891092   582A      3.905092  
	 583A      3.913002   584A      3.923175   585A      3.929636  
	 586A      3.942980   587A      3.950482   588A      3.954771  
	 589A      3.959213   590A      3.962992   591A      3.975989  
	 592A      3.986352   593A      3.992027   594A      3.995323  
	 595A      4.000173   596A      4.006609   597A      4.017881  
	 598A      4.022412   599A      4.029172   600A      4.040427  
	 601A      4.043257   602A      4.066055   603A      4.067167  
	 604A      4.080877   605A      4.085211   606A      4.088256  
	 607A      4.105504   608A      4.110053   609A      4.111507  
	 610A      4.126321   611A      4.137952   612A      4.140632  
	 613A      4.142294   614A      4.148659   615A      4.159963  
	 616A      4.174721   617A      4.179287   618A      4.183117  
	 619A      4.186009   620A      4.193000   621A      4.196924  
	 622A      4.203280   623A      4.213451   624A      4.221373  
	 625A      4.232717   626A      4.239728   627A      4.254766  
	 628A      4.263179   629A      4.280440   630A      4.284269  
	 631A      4.291456   632A      4.300238   633A      4.306805  
	 634A      4.313396   635A      4.328613   636A      4.334343  
	 637A      4.368159   638A      4.378737   639A      4.387644  
	 640A      4.393946   641A      4.398621   642A      4.408359  
	 643A      4.416399   644A      4.422687   645A      4.430363  
	 646A      4.437470   647A      4.450171   648A      4.453186  
	 649A      4.458563   650A      4.463903   651A      4.476105  
	 652A      4.476887   653A      4.491219   654A      4.492986  
	 655A      4.506791   656A      4.507086   657A      4.516747  
	 658A      4.527242   659A      4.532909   660A      4.539967  
	 661A      4.546086   662A      4.547565   663A      4.562811  
	 664A      4.572734   665A      4.583215   666A      4.596848  
	 667A      4.607824   668A      4.621597   669A      4.652264  
	 670A      4.662940   671A      4.706967   672A      4.711025  
	 673A      4.721069   674A      4.754422   675A      4.763716  
	 676A      4.786751   677A      4.796585   678A      4.805950  
	 679A      4.817809   680A      4.825318   681A      4.837579  
	 682A      4.848787   683A      4.868281   684A      4.881845  
	 685A      4.890987   686A      4.918472   687A      4.926471  
	 688A      4.939866   689A      4.944246   690A      4.958690  
	 691A      4.978150   692A      4.980804   693A      4.995400  
	 694A      5.005295   695A      5.015667   696A      5.043070  
	 697A      5.052758   698A      5.066865   699A      5.078425  
	 700A      5.085302   701A      5.110421   702A      5.122741  
	 703A      5.139459   704A      5.146268   705A      5.160958  
	 706A      5.162650   707A      5.174631   708A      5.177546  
	 709A      5.182205   710A      5.192150   711A      5.206708  
	 712A      5.209748   713A      5.216755   714A      5.222733  
	 715A      5.227250   716A      5.247057   717A      5.263286  
	 718A      5.270657   719A      5.279768   720A      5.298108  
	 721A      5.303407   722A      5.305700   723A      5.317187  
	 724A      5.339142   725A      5.355965   726A      5.380643  
	 727A      5.395472   728A      5.407701   729A      5.419593  
	 730A      5.435215   731A      5.446260   732A      5.456743  
	 733A      5.462428   734A      5.474255   735A      5.477355  
	 736A      5.480104   737A      5.492971   738A      5.505887  
	 739A      5.523198   740A      5.537951   741A      5.562975  
	 742A      5.578539   743A      5.588334   744A      5.622674  
	 745A      5.666376   746A      5.694463   747A      5.704226  
	 748A      5.796644   749A      5.810463   750A      5.816529  
	 751A      5.822841   752A      5.823341   753A      5.860133  
	 754A      5.874488   755A      5.891029   756A      5.897112  
	 757A      5.916413   758A      5.946329   759A      5.950053  
	 760A      6.001810   761A      6.026933   762A      6.065992  
	 763A      6.132840   764A      6.161590   765A      6.254476  
	 766A      6.277722   767A      6.286368   768A      6.297830  
	 769A      6.320467   770A      6.338677   771A      6.357027  
	 772A      6.358907   773A      6.412233   774A      6.417241  
	 775A      6.419204   776A      6.466836   777A      6.573372  
	 778A      6.691910   779A      6.701049   780A      6.720845  
	 781A      6.740519   782A      6.773037   783A      6.785423  
	 784A      6.914337   785A      6.926708   786A      6.936487  
	 787A      6.984481   788A      7.053136   789A      7.135213  
	 790A      7.146759   791A      7.262855   792A      7.454328  
	 793A      7.503337   794A     15.737937   795A     16.184218  
	 796A     16.222261   797A     16.508991   798A     18.645574  
	 799A     18.951837   800A     19.285313   801A     19.651320  
	 802A     19.780440   803A     19.808845   804A     20.039657  
	 805A     20.292041  

	Final Occupation by Irrep:
	          A 
	DOCC [    42 ]

  Energy converged.

  @RHF Final Energy:  -477.53956555848424

   => Energetics <=

    Nuclear Repulsion Energy =            654.6501743323393612
    One-Electron Energy =               -1944.9120962632678129
    Two-Electron Energy =                 812.7223563724444375
    DFT Exchange-Correlation Energy =       0.0000000000000000
    Empirical Dispersion Energy =           0.0000000000000000
    Total Energy =                       -477.5395655584841279



Properties will be evaluated at   0.000000,   0.000000,   0.000000 Bohr
  ==> Properties <==


Properties computed using the SCF density density matrix
  Nuclear Dipole Moment: (a.u.)
     X:     2.6473      Y:    -0.0680      Z:    -1.4779

  Electronic Dipole Moment: (a.u.)
     X:    -1.7861      Y:     0.1127      Z:     1.4645

  Dipole Moment: (a.u.)
     X:     0.8612      Y:     0.0447      Z:    -0.0135     Total:     0.8625

  Dipole Moment: (Debye)
     X:     2.1890      Y:     0.1136      Z:    -0.0343     Total:     2.1922


  Saving occupied orbitals to File 180.

  Saving SAPT 2-DIMER file.

*** tstop() called on pharma.bme.utexas.edu at Mon Oct  7 19:12:46 2013
Module time:
	user time   =    2636.40 seconds =      43.94 minutes
	system time =      15.32 seconds =       0.26 minutes
	total time  =        359 seconds =       5.98 minutes
Total time:
	user time   =    2636.40 seconds =      43.94 minutes
	system time =      15.32 seconds =       0.26 minutes
	total time  =        359 seconds =       5.98 minutes

  //>>>>>>>>>>>>>>>>>>>>>>>>>>>>>>>>>>>//
  //            Monomer A HF           //
  //<<<<<<<<<<<<<<<<<<<<<<<<<<<<<<<<<<<//


  No DF_BASIS_SCF auxiliary basis selected, defaulting to aug-cc-pvtz-jkfit


*** tstart() called on pharma.bme.utexas.edu
*** at Mon Oct  7 19:12:46 2013


         ---------------------------------------------------------
                                   SCF
            by Justin Turney, Rob Parrish, and Andy Simmonett
                              RHF Reference
                        8 Threads,  30000 MiB Core
         ---------------------------------------------------------

  ==> Geometry <==

    Molecular point group: c1
    Full point group: C1

    Geometry (in Angstrom), charge = 0, multiplicity = 1:

       Center              X                  Y                   Z       
    ------------   -----------------  -----------------  -----------------
           C          1.272098546646     0.883120896488    -1.390392632293
           H          1.919465169646     1.735616223488    -1.233957341293
           C          1.822348677646    -0.371575384512    -1.645376930293
           H          2.896387925646    -0.492913383512    -1.689253187293
           C          0.987730160646    -1.469544639512    -1.850566785293
           H          1.414199810646    -2.442615660512    -2.054186239293
           C         -0.395764054354    -1.311558788512    -1.798575182293
           H         -1.043717865354    -2.162911728512    -1.958231959293
           C         -0.946133897354    -0.057081645512    -1.538244583293
           H         -2.019335110354     0.063856334488    -1.485296691293
           C         -0.111940744354     1.040351916488    -1.336399540293
           H         -0.539205114354     2.012609864488    -1.132420580293
           N(Gh)     -1.822555373354     0.121115172488     1.496042392707
           C(Gh)     -1.207669442354     1.278782982488     1.776106582707
           H(Gh)     -1.855273499354     2.131954435488     1.938618675707
           C(Gh)      0.174545455646     1.419630718488     1.866277398707
           H(Gh)      0.606394213646     2.383280833488     2.097493695707
           C(Gh)      0.975496846646     0.302651414488     1.652063487707
           H(Gh)      2.053066014646     0.373035692488     1.706897997707
           C(Gh)      0.354944943646    -0.906003623512     1.358403910707
           H(Gh)      0.930719453646    -1.801625506512     1.174328973707
           C(Gh)     -1.035569333354    -0.944041506512     1.292954492707
           H(Gh)     -1.544422258354    -1.872494884512     1.064111818707

  Running in c1 symmetry.

  Nuclear repulsion =  203.684223815232940

  Charge       = 0
  Multiplicity = 1
  Electrons    = 42
  Nalpha       = 21
  Nbeta        = 21

  ==> Algorithm <==

  SCF Algorithm Type is DF.
  DIIS enabled.
  MOM disabled.
  Fractional occupation disabled.
  Guess Type is CORE.
  Energy threshold   = 1.00e-08
  Density threshold  = 1.00e-08
  Integral threshold = 0.00e+00

  ==> Primary Basis <==

  Basis Set: AUG-CC-PVTZ
    Number of shells: 267
    Number of basis function: 805
    Number of Cartesian functions: 935
    Spherical Harmonics?: true
    Max angular momentum: 3

  ==> Pre-Iterations <==

   -------------------------------------------------------
    Irrep   Nso     Nmo     Nalpha   Nbeta   Ndocc  Nsocc
   -------------------------------------------------------
     A        805     805       0       0       0       0
   -------------------------------------------------------
    Total     805     805      21      21      21       0
   -------------------------------------------------------

 OEINTS: Wrapper to libmints.
   by Justin Turney

   Calculation information:
      Number of atoms:                  23
      Number of AO shells:             267
      Number of SO shells:             267
      Number of primitives:            481
      Number of atomic orbitals:       935
      Number of basis functions:       805

      Number of irreps:                  1
      Number of functions per irrep: [ 805 ]

      Overlap, kinetic, potential, dipole, and quadrupole integrals
        stored in file 35.

  ==> Integral Setup <==

  ==> DFJK: Density-Fitted J/K Matrices <==

    J tasked:                  Yes
    K tasked:                  Yes
    wK tasked:                  No
    OpenMP threads:              8
    Integrals threads:           8
    Memory (MB):             21457
    Algorithm:                Core
    Integral Cache:           LOAD
    Schwarz Cutoff:          0E+00
    Fitting Condition:       1E-12

   => Auxiliary Basis Set <=

  Basis Set: aug-cc-pvtz-jkfit
    Number of shells: 514
    Number of basis function: 1754
    Number of Cartesian functions: 2177
    Spherical Harmonics?: true
    Max angular momentum: 4

  Minimum eigenvalue in the overlap matrix is 2.1474150552E-07.
  Using Symmetric Orthogonalization.
  SCF Guess: Core (One-Electron) Hamiltonian.

  Guess energy:  -182.19693134458009

  ==> Iterations <==

                        Total Energy        Delta E     RMS |[F,P]|

   @RHF iter   1:  -182.81154196651443   -1.82812e+02   1.22037e-02 
   @RHF iter   2:  -169.79542402114595    1.30161e+01   6.14015e-03 DIIS
   @RHF iter   3:  -220.38151239001792   -5.05861e+01   5.13205e-03 DIIS
   @RHF iter   4:  -228.79488596719563   -8.41337e+00   2.23359e-03 DIIS
   @RHF iter   5:  -230.23229287630909   -1.43741e+00   1.19277e-03 DIIS
   @RHF iter   6:  -230.67508865685642   -4.42796e-01   5.11878e-04 DIIS
   @RHF iter   7:  -230.77712633667250   -1.02038e-01   8.74561e-05 DIIS
   @RHF iter   8:  -230.78125185603994   -4.12552e-03   2.01424e-05 DIIS
   @RHF iter   9:  -230.78146601088997   -2.14155e-04   6.72699e-06 DIIS
   @RHF iter  10:  -230.78149284272871   -2.68318e-05   1.83209e-06 DIIS
   @RHF iter  11:  -230.78149713696507   -4.29424e-06   9.06669e-07 DIIS
   @RHF iter  12:  -230.78149825145874   -1.11449e-06   4.73719e-07 DIIS
   @RHF iter  13:  -230.78149869737183   -4.45913e-07   1.75028e-07 DIIS
   @RHF iter  14:  -230.78149875732635   -5.99545e-08   5.01318e-08 DIIS
   @RHF iter  15:  -230.78149876132954   -4.00320e-09   1.16893e-08 DIIS
   @RHF iter  16:  -230.78149876144448   -1.14937e-10   5.69056e-09 DIIS

  ==> Post-Iterations <==

	Orbital Energies (a.u.)
	-----------------------

	Doubly Occupied:                                                      

	   1A    -11.236292     2A    -11.235720     3A    -11.235693  
	   4A    -11.234473     5A    -11.234457     6A    -11.233849  
	   7A     -1.150357     8A     -1.014880     9A     -1.014678  
	  10A     -0.824150    11A     -0.824061    12A     -0.709620  
	  13A     -0.644075    14A     -0.619134    15A     -0.588184  
	  16A     -0.587906    17A     -0.502401    18A     -0.495059  
	  19A     -0.494663    20A     -0.336856    21A     -0.336741  

	Virtual:                                                              

	  22A      0.023067    23A      0.031130    24A      0.031608  
	  25A      0.038258    26A      0.043639    27A      0.044756  
	  28A      0.048619    29A      0.049406    30A      0.061704  
	  31A      0.064553    32A      0.066133    33A      0.077102  
	  34A      0.087550    35A      0.093157    36A      0.097743  
	  37A      0.101541    38A      0.103275    39A      0.108936  
	  40A      0.110039    41A      0.113768    42A      0.115238  
	  43A      0.117190    44A      0.120367    45A      0.121869  
	  46A      0.123444    47A      0.125529    48A      0.133995  
	  49A      0.135926    50A      0.139464    51A      0.148236  
	  52A      0.149521    53A      0.151208    54A      0.152015  
	  55A      0.154847    56A      0.156303    57A      0.157326  
	  58A      0.161082    59A      0.164681    60A      0.174527  
	  61A      0.178016    62A      0.181030    63A      0.183480  
	  64A      0.186369    65A      0.187918    66A      0.190214  
	  67A      0.197679    68A      0.200330    69A      0.204797  
	  70A      0.210326    71A      0.226510    72A      0.230941  
	  73A      0.233989    74A      0.238956    75A      0.241717  
	  76A      0.252864    77A      0.255012    78A      0.263387  
	  79A      0.267598    80A      0.268974    81A      0.270777  
	  82A      0.275477    83A      0.282437    84A      0.293071  
	  85A      0.298322    86A      0.300066    87A      0.301554  
	  88A      0.306969    89A      0.311391    90A      0.317038  
	  91A      0.319287    92A      0.330238    93A      0.333453  
	  94A      0.338372    95A      0.339475    96A      0.343532  
	  97A      0.348796    98A      0.351432    99A      0.355701  
	 100A      0.361199   101A      0.362474   102A      0.366580  
	 103A      0.374633   104A      0.377462   105A      0.382121  
	 106A      0.383978   107A      0.386056   108A      0.390678  
	 109A      0.392934   110A      0.400230   111A      0.402893  
	 112A      0.407625   113A      0.417329   114A      0.425858  
	 115A      0.427750   116A      0.431725   117A      0.435039  
	 118A      0.439674   119A      0.440682   120A      0.444678  
	 121A      0.450492   122A      0.451023   123A      0.457859  
	 124A      0.465726   125A      0.469164   126A      0.477300  
	 127A      0.483858   128A      0.489213   129A      0.493206  
	 130A      0.495140   131A      0.497708   132A      0.501225  
	 133A      0.504790   134A      0.506426   135A      0.510540  
	 136A      0.512392   137A      0.515740   138A      0.521210  
	 139A      0.525029   140A      0.526658   141A      0.537673  
	 142A      0.538964   143A      0.542370   144A      0.547573  
	 145A      0.553973   146A      0.559419   147A      0.562582  
	 148A      0.562800   149A      0.569170   150A      0.574597  
	 151A      0.577385   152A      0.585496   153A      0.589058  
	 154A      0.593317   155A      0.597634   156A      0.605160  
	 157A      0.609878   158A      0.618414   159A      0.624669  
	 160A      0.625790   161A      0.633815   162A      0.636644  
	 163A      0.638869   164A      0.645633   165A      0.648171  
	 166A      0.649840   167A      0.654784   168A      0.666680  
	 169A      0.670000   170A      0.675562   171A      0.677769  
	 172A      0.684490   173A      0.689256   174A      0.689969  
	 175A      0.696023   176A      0.703990   177A      0.705153  
	 178A      0.708775   179A      0.715917   180A      0.721437  
	 181A      0.721899   182A      0.728581   183A      0.732063  
	 184A      0.736599   185A      0.744419   186A      0.746777  
	 187A      0.751522   188A      0.755689   189A      0.760834  
	 190A      0.769626   191A      0.780100   192A      0.784195  
	 193A      0.785526   194A      0.797300   195A      0.803121  
	 196A      0.810497   197A      0.812664   198A      0.816993  
	 199A      0.820559   200A      0.822572   201A      0.831083  
	 202A      0.834909   203A      0.840826   204A      0.850129  
	 205A      0.861880   206A      0.865001   207A      0.866880  
	 208A      0.872442   209A      0.875302   210A      0.877987  
	 211A      0.886978   212A      0.891612   213A      0.893945  
	 214A      0.902114   215A      0.908906   216A      0.912061  
	 217A      0.918658   218A      0.927810   219A      0.934514  
	 220A      0.944583   221A      0.946768   222A      0.950454  
	 223A      0.955511   224A      0.959519   225A      0.966606  
	 226A      0.969371   227A      0.979154   228A      0.982716  
	 229A      0.990243   230A      0.998435   231A      1.002213  
	 232A      1.009203   233A      1.011100   234A      1.015241  
	 235A      1.026792   236A      1.033165   237A      1.043363  
	 238A      1.048881   239A      1.059482   240A      1.065494  
	 241A      1.073374   242A      1.080694   243A      1.086725  
	 244A      1.088767   245A      1.097904   246A      1.102619  
	 247A      1.105178   248A      1.111258   249A      1.120829  
	 250A      1.125071   251A      1.128763   252A      1.132727  
	 253A      1.135634   254A      1.139207   255A      1.145819  
	 256A      1.152429   257A      1.158098   258A      1.161406  
	 259A      1.165595   260A      1.175047   261A      1.178928  
	 262A      1.179307   263A      1.184631   264A      1.186961  
	 265A      1.193291   266A      1.194852   267A      1.197656  
	 268A      1.209616   269A      1.214221   270A      1.219548  
	 271A      1.226251   272A      1.231479   273A      1.232918  
	 274A      1.238291   275A      1.246300   276A      1.252946  
	 277A      1.260894   278A      1.263055   279A      1.269729  
	 280A      1.273022   281A      1.279436   282A      1.281246  
	 283A      1.286256   284A      1.292661   285A      1.298073  
	 286A      1.298951   287A      1.308978   288A      1.312324  
	 289A      1.321877   290A      1.327338   291A      1.335463  
	 292A      1.341535   293A      1.350953   294A      1.353449  
	 295A      1.354375   296A      1.365183   297A      1.367907  
	 298A      1.379688   299A      1.382643   300A      1.389313  
	 301A      1.398059   302A      1.403504   303A      1.405485  
	 304A      1.412807   305A      1.420024   306A      1.428651  
	 307A      1.436817   308A      1.439471   309A      1.443350  
	 310A      1.449209   311A      1.458106   312A      1.464620  
	 313A      1.468772   314A      1.476677   315A      1.482430  
	 316A      1.491561   317A      1.494535   318A      1.503619  
	 319A      1.514277   320A      1.515309   321A      1.519178  
	 322A      1.526215   323A      1.533235   324A      1.540239  
	 325A      1.541845   326A      1.548255   327A      1.558995  
	 328A      1.562059   329A      1.570870   330A      1.576767  
	 331A      1.585144   332A      1.587239   333A      1.594358  
	 334A      1.602822   335A      1.606601   336A      1.616469  
	 337A      1.632660   338A      1.642438   339A      1.643754  
	 340A      1.646553   341A      1.650888   342A      1.657544  
	 343A      1.666278   344A      1.672534   345A      1.680685  
	 346A      1.688394   347A      1.690397   348A      1.696241  
	 349A      1.714777   350A      1.721438   351A      1.728412  
	 352A      1.733319   353A      1.741395   354A      1.745382  
	 355A      1.760044   356A      1.765143   357A      1.770609  
	 358A      1.774789   359A      1.782988   360A      1.794381  
	 361A      1.797467   362A      1.806713   363A      1.813212  
	 364A      1.816562   365A      1.826330   366A      1.830631  
	 367A      1.836858   368A      1.844843   369A      1.854259  
	 370A      1.861148   371A      1.867697   372A      1.878010  
	 373A      1.884771   374A      1.887329   375A      1.896189  
	 376A      1.905607   377A      1.907406   378A      1.915685  
	 379A      1.933093   380A      1.936232   381A      1.942815  
	 382A      1.954886   383A      1.966287   384A      1.973755  
	 385A      1.979214   386A      1.987746   387A      1.993705  
	 388A      1.998827   389A      2.025804   390A      2.026318  
	 391A      2.037075   392A      2.044860   393A      2.050572  
	 394A      2.062386   395A      2.069196   396A      2.077318  
	 397A      2.084377   398A      2.092362   399A      2.105272  
	 400A      2.106401   401A      2.111583   402A      2.116091  
	 403A      2.124146   404A      2.126713   405A      2.132102  
	 406A      2.135378   407A      2.143562   408A      2.156553  
	 409A      2.171120   410A      2.177273   411A      2.189993  
	 412A      2.194873   413A      2.196877   414A      2.202670  
	 415A      2.227968   416A      2.240009   417A      2.243486  
	 418A      2.254426   419A      2.256758   420A      2.269323  
	 421A      2.281663   422A      2.287562   423A      2.295184  
	 424A      2.298390   425A      2.309765   426A      2.319040  
	 427A      2.333823   428A      2.345710   429A      2.349081  
	 430A      2.362622   431A      2.367717   432A      2.371145  
	 433A      2.379963   434A      2.391463   435A      2.393720  
	 436A      2.418566   437A      2.421992   438A      2.435668  
	 439A      2.438341   440A      2.450040   441A      2.455843  
	 442A      2.458850   443A      2.472232   444A      2.479962  
	 445A      2.500809   446A      2.501616   447A      2.510283  
	 448A      2.519177   449A      2.532424   450A      2.538527  
	 451A      2.540373   452A      2.560766   453A      2.564526  
	 454A      2.570487   455A      2.580620   456A      2.594053  
	 457A      2.596499   458A      2.606668   459A      2.615990  
	 460A      2.618964   461A      2.624401   462A      2.627069  
	 463A      2.642719   464A      2.653942   465A      2.664261  
	 466A      2.672465   467A      2.684157   468A      2.687917  
	 469A      2.688533   470A      2.704495   471A      2.728111  
	 472A      2.747984   473A      2.768622   474A      2.780908  
	 475A      2.787188   476A      2.804049   477A      2.822612  
	 478A      2.831080   479A      2.845780   480A      2.860918  
	 481A      2.871824   482A      2.881059   483A      2.917576  
	 484A      2.942807   485A      2.980050   486A      2.990980  
	 487A      2.999792   488A      3.013738   489A      3.037059  
	 490A      3.045658   491A      3.061893   492A      3.100631  
	 493A      3.110725   494A      3.167225   495A      3.201383  
	 496A      3.217007   497A      3.244741   498A      3.301302  
	 499A      3.302658   500A      3.317409   501A      3.323957  
	 502A      3.333923   503A      3.346453   504A      3.377501  
	 505A      3.387315   506A      3.394789   507A      3.407050  
	 508A      3.429300   509A      3.442460   510A      3.449374  
	 511A      3.457900   512A      3.474372   513A      3.482998  
	 514A      3.490040   515A      3.497281   516A      3.510422  
	 517A      3.517539   518A      3.535629   519A      3.551717  
	 520A      3.578426   521A      3.584640   522A      3.602214  
	 523A      3.617141   524A      3.637246   525A      3.647870  
	 526A      3.656391   527A      3.677279   528A      3.680444  
	 529A      3.683505   530A      3.702826   531A      3.706104  
	 532A      3.717002   533A      3.721978   534A      3.738736  
	 535A      3.758960   536A      3.785493   537A      3.812177  
	 538A      3.839440   539A      3.851744   540A      3.853653  
	 541A      3.861734   542A      3.864675   543A      3.876330  
	 544A      3.881579   545A      3.899303   546A      3.905492  
	 547A      3.911823   548A      3.953972   549A      3.968259  
	 550A      3.970550   551A      3.990905   552A      3.997273  
	 553A      3.999549   554A      4.016171   555A      4.025675  
	 556A      4.030461   557A      4.038616   558A      4.052956  
	 559A      4.082291   560A      4.086298   561A      4.096425  
	 562A      4.108743   563A      4.113736   564A      4.132481  
	 565A      4.137889   566A      4.146458   567A      4.156537  
	 568A      4.164717   569A      4.172078   570A      4.196403  
	 571A      4.198407   572A      4.200854   573A      4.211172  
	 574A      4.214229   575A      4.233188   576A      4.233831  
	 577A      4.239834   578A      4.247420   579A      4.265638  
	 580A      4.282829   581A      4.291827   582A      4.294557  
	 583A      4.322429   584A      4.333272   585A      4.338032  
	 586A      4.353797   587A      4.358918   588A      4.367387  
	 589A      4.373930   590A      4.390830   591A      4.395090  
	 592A      4.400932   593A      4.411151   594A      4.416264  
	 595A      4.416505   596A      4.422251   597A      4.441252  
	 598A      4.448744   599A      4.457010   600A      4.467276  
	 601A      4.474350   602A      4.479331   603A      4.484214  
	 604A      4.489845   605A      4.501322   606A      4.505876  
	 607A      4.510977   608A      4.517371   609A      4.532713  
	 610A      4.541745   611A      4.545665   612A      4.567815  
	 613A      4.571851   614A      4.579981   615A      4.587337  
	 616A      4.608063   617A      4.634252   618A      4.640227  
	 619A      4.646423   620A      4.668710   621A      4.681092  
	 622A      4.716603   623A      4.718538   624A      4.720811  
	 625A      4.731701   626A      4.747993   627A      4.758125  
	 628A      4.767080   629A      4.773928   630A      4.795175  
	 631A      4.801958   632A      4.806710   633A      4.830964  
	 634A      4.842877   635A      4.856750   636A      4.871229  
	 637A      4.877491   638A      4.896402   639A      4.909657  
	 640A      4.921922   641A      4.941719   642A      4.951905  
	 643A      4.955344   644A      4.967557   645A      4.982141  
	 646A      5.001125   647A      5.008530   648A      5.025055  
	 649A      5.031782   650A      5.036409   651A      5.052814  
	 652A      5.061704   653A      5.074991   654A      5.083404  
	 655A      5.095361   656A      5.115531   657A      5.129321  
	 658A      5.134419   659A      5.144079   660A      5.155848  
	 661A      5.162328   662A      5.175017   663A      5.179499  
	 664A      5.190112   665A      5.200599   666A      5.204339  
	 667A      5.212496   668A      5.228632   669A      5.232721  
	 670A      5.237384   671A      5.238882   672A      5.257710  
	 673A      5.266786   674A      5.275440   675A      5.278446  
	 676A      5.289000   677A      5.304086   678A      5.307147  
	 679A      5.329932   680A      5.334191   681A      5.348054  
	 682A      5.365171   683A      5.374894   684A      5.392820  
	 685A      5.394951   686A      5.407652   687A      5.418011  
	 688A      5.455008   689A      5.461450   690A      5.472115  
	 691A      5.475913   692A      5.490104   693A      5.506604  
	 694A      5.524682   695A      5.544626   696A      5.557998  
	 697A      5.564862   698A      5.580595   699A      5.595182  
	 700A      5.614250   701A      5.654310   702A      5.716906  
	 703A      5.756664   704A      5.773062   705A      5.784918  
	 706A      5.804808   707A      5.807423   708A      5.812919  
	 709A      5.818198   710A      5.837091   711A      5.843062  
	 712A      5.857666   713A      5.864226   714A      5.888574  
	 715A      5.893213   716A      5.906106   717A      5.992296  
	 718A      5.997502   719A      6.009398   720A      6.017444  
	 721A      6.074344   722A      6.089624   723A      6.094556  
	 724A      6.105341   725A      6.157228   726A      6.172553  
	 727A      6.186428   728A      6.197435   729A      6.278198  
	 730A      6.279708   731A      6.285121   732A      6.294453  
	 733A      6.329777   734A      6.336431   735A      6.383177  
	 736A      6.408932   737A      6.412371   738A      6.419747  
	 739A      6.450867   740A      6.472549   741A      6.480706  
	 742A      6.687890   743A      6.693134   744A      6.733665  
	 745A      6.736683   746A      6.788101   747A      6.835723  
	 748A      6.852904   749A      6.923164   750A      6.938535  
	 751A      6.952583   752A      6.979316   753A      7.032543  
	 754A      7.053204   755A      7.089717   756A      7.118654  
	 757A      7.140202   758A      7.203753   759A      7.215848  
	 760A      7.250703   761A      7.266669   762A      7.440927  
	 763A      7.454733   764A      7.512861   765A      7.544389  
	 766A      7.594857   767A      7.611946   768A      7.639072  
	 769A      7.747871   770A      7.818040   771A      7.872432  
	 772A      7.936757   773A      8.125051   774A      8.130548  
	 775A      8.197109   776A      8.301633   777A      8.332865  
	 778A      8.408806   779A      8.669453   780A      8.818631  
	 781A      9.159716   782A      9.259842   783A      9.448929  
	 784A      9.662881   785A     10.055215   786A     10.092173  
	 787A     10.256771   788A     10.781992   789A     11.139451  
	 790A     11.442535   791A     11.579384   792A     12.174330  
	 793A     12.326946   794A     16.178470   795A     16.215665  
	 796A     19.177436   797A     19.651407   798A     19.884967  
	 799A     19.938824   800A     50.526926   801A     50.904335  
	 802A     54.611214   803A     56.215235   804A     56.534019  
	 805A     61.792411  

	Final Occupation by Irrep:
	          A 
	DOCC [    21 ]

  Energy converged.

  @RHF Final Energy:  -230.78149876144448

   => Energetics <=

    Nuclear Repulsion Energy =            203.6842238152329401
    One-Electron Energy =                -713.8249471912661193
    Two-Electron Energy =                 279.3592246145890954
    DFT Exchange-Correlation Energy =       0.0000000000000000
    Empirical Dispersion Energy =           0.0000000000000000
    Total Energy =                       -230.7814987614440838



Properties will be evaluated at   0.000000,   0.000000,   0.000000 Bohr
  ==> Properties <==


Properties computed using the SCF density density matrix
  Nuclear Dipole Moment: (a.u.)
     X:    34.7669      Y:   -17.0153      Z:  -126.4429

  Electronic Dipole Moment: (a.u.)
     X:   -34.7671      Y:    17.0151      Z:   126.4442

  Dipole Moment: (a.u.)
     X:    -0.0002      Y:    -0.0001      Z:     0.0014     Total:     0.0014

  Dipole Moment: (Debye)
     X:    -0.0005      Y:    -0.0004      Z:     0.0035     Total:     0.0035


  Saving occupied orbitals to File 180.

  Saving SAPT 2-MONOMER_A file.

*** tstop() called on pharma.bme.utexas.edu at Mon Oct  7 19:15:38 2013
Module time:
	user time   =    1243.27 seconds =      20.72 minutes
	system time =       7.27 seconds =       0.12 minutes
	total time  =        172 seconds =       2.87 minutes
Total time:
	user time   =    3879.70 seconds =      64.66 minutes
	system time =      22.59 seconds =       0.38 minutes
	total time  =        531 seconds =       8.85 minutes

  //>>>>>>>>>>>>>>>>>>>>>>>>>>>>>>>>>>>//
  //            Monomer B HF           //
  //<<<<<<<<<<<<<<<<<<<<<<<<<<<<<<<<<<<//


  No DF_BASIS_SCF auxiliary basis selected, defaulting to aug-cc-pvtz-jkfit


*** tstart() called on pharma.bme.utexas.edu
*** at Mon Oct  7 19:15:38 2013


         ---------------------------------------------------------
                                   SCF
            by Justin Turney, Rob Parrish, and Andy Simmonett
                              RHF Reference
                        8 Threads,  30000 MiB Core
         ---------------------------------------------------------

  ==> Geometry <==

    Molecular point group: c1
    Full point group: C1

    Geometry (in Angstrom), charge = 0, multiplicity = 1:

       Center              X                  Y                   Z       
    ------------   -----------------  -----------------  -----------------
           C(Gh)      1.272098546646     0.883120896488    -1.390392632293
           H(Gh)      1.919465169646     1.735616223488    -1.233957341293
           C(Gh)      1.822348677646    -0.371575384512    -1.645376930293
           H(Gh)      2.896387925646    -0.492913383512    -1.689253187293
           C(Gh)      0.987730160646    -1.469544639512    -1.850566785293
           H(Gh)      1.414199810646    -2.442615660512    -2.054186239293
           C(Gh)     -0.395764054354    -1.311558788512    -1.798575182293
           H(Gh)     -1.043717865354    -2.162911728512    -1.958231959293
           C(Gh)     -0.946133897354    -0.057081645512    -1.538244583293
           H(Gh)     -2.019335110354     0.063856334488    -1.485296691293
           C(Gh)     -0.111940744354     1.040351916488    -1.336399540293
           H(Gh)     -0.539205114354     2.012609864488    -1.132420580293
           N         -1.822555373354     0.121115172488     1.496042392707
           C         -1.207669442354     1.278782982488     1.776106582707
           H         -1.855273499354     2.131954435488     1.938618675707
           C          0.174545455646     1.419630718488     1.866277398707
           H          0.606394213646     2.383280833488     2.097493695707
           C          0.975496846646     0.302651414488     1.652063487707
           H          2.053066014646     0.373035692488     1.706897997707
           C          0.354944943646    -0.906003623512     1.358403910707
           H          0.930719453646    -1.801625506512     1.174328973707
           C         -1.035569333354    -0.944041506512     1.292954492707
           H         -1.544422258354    -1.872494884512     1.064111818707

  Running in c1 symmetry.

  Nuclear repulsion =  206.259557450795455

  Charge       = 0
  Multiplicity = 1
  Electrons    = 42
  Nalpha       = 21
  Nbeta        = 21

  ==> Algorithm <==

  SCF Algorithm Type is DF.
  DIIS enabled.
  MOM disabled.
  Fractional occupation disabled.
  Guess Type is CORE.
  Energy threshold   = 1.00e-08
  Density threshold  = 1.00e-08
  Integral threshold = 0.00e+00

  ==> Primary Basis <==

  Basis Set: AUG-CC-PVTZ
    Number of shells: 267
    Number of basis function: 805
    Number of Cartesian functions: 935
    Spherical Harmonics?: true
    Max angular momentum: 3

  ==> Pre-Iterations <==

   -------------------------------------------------------
    Irrep   Nso     Nmo     Nalpha   Nbeta   Ndocc  Nsocc
   -------------------------------------------------------
     A        805     805       0       0       0       0
   -------------------------------------------------------
    Total     805     805      21      21      21       0
   -------------------------------------------------------

 OEINTS: Wrapper to libmints.
   by Justin Turney

   Calculation information:
      Number of atoms:                  23
      Number of AO shells:             267
      Number of SO shells:             267
      Number of primitives:            481
      Number of atomic orbitals:       935
      Number of basis functions:       805

      Number of irreps:                  1
      Number of functions per irrep: [ 805 ]

      Overlap, kinetic, potential, dipole, and quadrupole integrals
        stored in file 35.

  ==> Integral Setup <==

  ==> DFJK: Density-Fitted J/K Matrices <==

    J tasked:                  Yes
    K tasked:                  Yes
    wK tasked:                  No
    OpenMP threads:              8
    Integrals threads:           8
    Memory (MB):             21457
    Algorithm:                Core
    Integral Cache:           LOAD
    Schwarz Cutoff:          0E+00
    Fitting Condition:       1E-12

   => Auxiliary Basis Set <=

  Basis Set: aug-cc-pvtz-jkfit
    Number of shells: 514
    Number of basis function: 1754
    Number of Cartesian functions: 2177
    Spherical Harmonics?: true
    Max angular momentum: 4

  Minimum eigenvalue in the overlap matrix is 2.1474150552E-07.
  Using Symmetric Orthogonalization.
  SCF Guess: Core (One-Electron) Hamiltonian.

  Guess energy:  -194.54642727012839

  ==> Iterations <==

                        Total Energy        Delta E     RMS |[F,P]|

   @RHF iter   1:  -191.83027464341524   -1.91830e+02   1.39028e-02 
   @RHF iter   2:  -176.80513817076542    1.50251e+01   7.76515e-03 DIIS
   @RHF iter   3:  -211.55499299468727   -3.47499e+01   8.86898e-03 DIIS
   @RHF iter   4:  -240.72278793872772   -2.91678e+01   3.41220e-03 DIIS
   @RHF iter   5:  -246.13664208747127   -5.41385e+00   1.32150e-03 DIIS
   @RHF iter   6:  -246.70581586199944   -5.69174e-01   4.26838e-04 DIIS
   @RHF iter   7:  -246.77311870689095   -6.73028e-02   9.47665e-05 DIIS
   @RHF iter   8:  -246.77752300379342   -4.40430e-03   3.88944e-05 DIIS
   @RHF iter   9:  -246.77856548494265   -1.04248e-03   1.90255e-05 DIIS
   @RHF iter  10:  -246.77884508234069   -2.79597e-04   7.39116e-06 DIIS
   @RHF iter  11:  -246.77891966452080   -7.45822e-05   3.06298e-06 DIIS
   @RHF iter  12:  -246.77893341700587   -1.37525e-05   1.82577e-06 DIIS
   @RHF iter  13:  -246.77893642549782   -3.00849e-06   7.55728e-07 DIIS
   @RHF iter  14:  -246.77893724300230   -8.17504e-07   2.45052e-07 DIIS
   @RHF iter  15:  -246.77893729041790   -4.74156e-08   3.96448e-08 DIIS
   @RHF iter  16:  -246.77893729172649   -1.30859e-09   1.23494e-08 DIIS
   @RHF iter  17:  -246.77893729183978   -1.13289e-10   4.58838e-09 DIIS

  ==> Post-Iterations <==

	Orbital Energies (a.u.)
	-----------------------

	Doubly Occupied:                                                      

	   1A    -15.567482     2A    -11.275453     3A    -11.275393  
	   4A    -11.260623     5A    -11.242548     6A    -11.242402  
	   7A     -1.257140     8A     -1.090539     9A     -1.033982  
	  10A     -0.859895    11A     -0.856195    12A     -0.722334  
	  13A     -0.661008    14A     -0.654587    15A     -0.598490  
	  16A     -0.577656    17A     -0.541630    18A     -0.520214  
	  19A     -0.420183    20A     -0.384494    21A     -0.348153  

	Virtual:                                                              

	  22A      0.020153    23A      0.028974    24A      0.032676  
	  25A      0.036323    26A      0.043935    27A      0.045265  
	  28A      0.047586    29A      0.049553    30A      0.062536  
	  31A      0.065066    32A      0.066059    33A      0.075972  
	  34A      0.083840    35A      0.089777    36A      0.096340  
	  37A      0.096526    38A      0.098216    39A      0.102518  
	  40A      0.106649    41A      0.111245    42A      0.114172  
	  43A      0.117780    44A      0.119446    45A      0.120034  
	  46A      0.122743    47A      0.125924    48A      0.131562  
	  49A      0.134022    50A      0.143053    51A      0.145033  
	  52A      0.146646    53A      0.149887    54A      0.150544  
	  55A      0.153625    56A      0.155169    57A      0.157323  
	  58A      0.160045    59A      0.161459    60A      0.174624  
	  61A      0.176624    62A      0.179848    63A      0.183938  
	  64A      0.184654    65A      0.187647    66A      0.189968  
	  67A      0.198760    68A      0.199319    69A      0.202037  
	  70A      0.207774    71A      0.229618    72A      0.235505  
	  73A      0.237858    74A      0.240698    75A      0.244435  
	  76A      0.251622    77A      0.254578    78A      0.258010  
	  79A      0.263269    80A      0.265087    81A      0.272845  
	  82A      0.274166    83A      0.277185    84A      0.285657  
	  85A      0.288300    86A      0.291439    87A      0.300100  
	  88A      0.305165    89A      0.310121    90A      0.316101  
	  91A      0.321013    92A      0.323782    93A      0.326609  
	  94A      0.334754    95A      0.341342    96A      0.348588  
	  97A      0.349817    98A      0.350191    99A      0.355410  
	 100A      0.360286   101A      0.363976   102A      0.365965  
	 103A      0.372480   104A      0.372731   105A      0.375461  
	 106A      0.380621   107A      0.387209   108A      0.389694  
	 109A      0.393393   110A      0.402215   111A      0.412979  
	 112A      0.416189   113A      0.417669   114A      0.419992  
	 115A      0.422474   116A      0.428174   117A      0.429385  
	 118A      0.433346   119A      0.437477   120A      0.441877  
	 121A      0.445883   122A      0.449662   123A      0.456260  
	 124A      0.460721   125A      0.470181   126A      0.476599  
	 127A      0.484608   128A      0.486219   129A      0.490507  
	 130A      0.495384   131A      0.497022   132A      0.498691  
	 133A      0.501320   134A      0.506774   135A      0.508112  
	 136A      0.512765   137A      0.516939   138A      0.519886  
	 139A      0.525074   140A      0.526034   141A      0.533586  
	 142A      0.541905   143A      0.543263   144A      0.550308  
	 145A      0.552869   146A      0.555219   147A      0.558480  
	 148A      0.566175   149A      0.568797   150A      0.571795  
	 151A      0.581869   152A      0.584946   153A      0.586485  
	 154A      0.594449   155A      0.597307   156A      0.606111  
	 157A      0.608229   158A      0.617960   159A      0.619380  
	 160A      0.623893   161A      0.629391   162A      0.633002  
	 163A      0.635646   164A      0.640231   165A      0.651513  
	 166A      0.655484   167A      0.658588   168A      0.660645  
	 169A      0.664388   170A      0.671549   171A      0.677748  
	 172A      0.682318   173A      0.685211   174A      0.690823  
	 175A      0.693050   176A      0.701507   177A      0.706880  
	 178A      0.709385   179A      0.712028   180A      0.716634  
	 181A      0.721111   182A      0.724389   183A      0.735557  
	 184A      0.742255   185A      0.743150   186A      0.746978  
	 187A      0.749215   188A      0.751268   189A      0.755373  
	 190A      0.768723   191A      0.771652   192A      0.778030  
	 193A      0.779198   194A      0.787567   195A      0.791952  
	 196A      0.799884   197A      0.804248   198A      0.809549  
	 199A      0.810748   200A      0.822961   201A      0.827068  
	 202A      0.829897   203A      0.838113   204A      0.838489  
	 205A      0.847093   206A      0.854318   207A      0.859750  
	 208A      0.866654   209A      0.874081   210A      0.880729  
	 211A      0.891478   212A      0.893800   213A      0.899858  
	 214A      0.903459   215A      0.906551   216A      0.909036  
	 217A      0.915887   218A      0.920475   219A      0.928897  
	 220A      0.932849   221A      0.941137   222A      0.946274  
	 223A      0.947958   224A      0.956617   225A      0.960378  
	 226A      0.964486   227A      0.967761   228A      0.978244  
	 229A      0.987104   230A      0.996464   231A      1.002507  
	 232A      1.009515   233A      1.016715   234A      1.036148  
	 235A      1.043839   236A      1.049588   237A      1.051162  
	 238A      1.058849   239A      1.062347   240A      1.065152  
	 241A      1.073103   242A      1.079351   243A      1.086505  
	 244A      1.092119   245A      1.095857   246A      1.103672  
	 247A      1.106680   248A      1.110976   249A      1.112187  
	 250A      1.125544   251A      1.127759   252A      1.129447  
	 253A      1.136291   254A      1.141771   255A      1.148572  
	 256A      1.153372   257A      1.154796   258A      1.162656  
	 259A      1.165093   260A      1.172372   261A      1.179133  
	 262A      1.181880   263A      1.191448   264A      1.196046  
	 265A      1.199264   266A      1.205037   267A      1.213268  
	 268A      1.215704   269A      1.217663   270A      1.225205  
	 271A      1.229300   272A      1.232197   273A      1.238519  
	 274A      1.242791   275A      1.247676   276A      1.250531  
	 277A      1.257938   278A      1.264846   279A      1.266648  
	 280A      1.275452   281A      1.278953   282A      1.284586  
	 283A      1.295649   284A      1.302433   285A      1.308397  
	 286A      1.310475   287A      1.318036   288A      1.321077  
	 289A      1.324783   290A      1.329897   291A      1.332873  
	 292A      1.338567   293A      1.340864   294A      1.342229  
	 295A      1.348536   296A      1.354824   297A      1.368436  
	 298A      1.374956   299A      1.383712   300A      1.390737  
	 301A      1.398203   302A      1.402990   303A      1.407071  
	 304A      1.422049   305A      1.422245   306A      1.432501  
	 307A      1.434330   308A      1.438465   309A      1.442738  
	 310A      1.449216   311A      1.458888   312A      1.466416  
	 313A      1.473088   314A      1.481920   315A      1.489354  
	 316A      1.493743   317A      1.499115   318A      1.512560  
	 319A      1.520060   320A      1.525787   321A      1.530131  
	 322A      1.533846   323A      1.539070   324A      1.541932  
	 325A      1.544887   326A      1.556275   327A      1.560515  
	 328A      1.563505   329A      1.573039   330A      1.579012  
	 331A      1.585669   332A      1.586788   333A      1.593134  
	 334A      1.599559   335A      1.607160   336A      1.614772  
	 337A      1.617329   338A      1.624037   339A      1.632198  
	 340A      1.636426   341A      1.647733   342A      1.652940  
	 343A      1.656679   344A      1.659100   345A      1.676286  
	 346A      1.680722   347A      1.685491   348A      1.693175  
	 349A      1.696980   350A      1.704088   351A      1.706630  
	 352A      1.720456   353A      1.725589   354A      1.733978  
	 355A      1.735637   356A      1.747913   357A      1.754824  
	 358A      1.760519   359A      1.764350   360A      1.771755  
	 361A      1.785586   362A      1.791563   363A      1.796494  
	 364A      1.810797   365A      1.812500   366A      1.821131  
	 367A      1.830220   368A      1.830973   369A      1.846245  
	 370A      1.853575   371A      1.861563   372A      1.865614  
	 373A      1.875767   374A      1.880540   375A      1.887957  
	 376A      1.900272   377A      1.904923   378A      1.909810  
	 379A      1.918364   380A      1.923722   381A      1.934181  
	 382A      1.942334   383A      1.956344   384A      1.962059  
	 385A      1.974405   386A      1.978063   387A      1.982999  
	 388A      1.992013   389A      1.998071   390A      2.014042  
	 391A      2.019961   392A      2.033248   393A      2.035905  
	 394A      2.046757   395A      2.053770   396A      2.056226  
	 397A      2.064083   398A      2.074579   399A      2.083557  
	 400A      2.097450   401A      2.117036   402A      2.117553  
	 403A      2.126638   404A      2.130759   405A      2.137052  
	 406A      2.142641   407A      2.157768   408A      2.167318  
	 409A      2.179738   410A      2.194944   411A      2.197839  
	 412A      2.207191   413A      2.214452   414A      2.223563  
	 415A      2.235309   416A      2.241970   417A      2.243498  
	 418A      2.252587   419A      2.261319   420A      2.266772  
	 421A      2.277957   422A      2.288032   423A      2.291341  
	 424A      2.308277   425A      2.316017   426A      2.329321  
	 427A      2.335903   428A      2.337231   429A      2.351371  
	 430A      2.360716   431A      2.370752   432A      2.375384  
	 433A      2.381773   434A      2.386372   435A      2.397296  
	 436A      2.405909   437A      2.417084   438A      2.422664  
	 439A      2.432067   440A      2.441331   441A      2.453486  
	 442A      2.467436   443A      2.476485   444A      2.482080  
	 445A      2.491386   446A      2.501211   447A      2.508885  
	 448A      2.516489   449A      2.526758   450A      2.534327  
	 451A      2.548296   452A      2.551453   453A      2.556431  
	 454A      2.563403   455A      2.567647   456A      2.575771  
	 457A      2.578169   458A      2.581581   459A      2.593701  
	 460A      2.602053   461A      2.606857   462A      2.616827  
	 463A      2.623070   464A      2.641247   465A      2.645798  
	 466A      2.659515   467A      2.673342   468A      2.675566  
	 469A      2.690625   470A      2.692601   471A      2.715096  
	 472A      2.723581   473A      2.737332   474A      2.746369  
	 475A      2.783347   476A      2.788925   477A      2.834420  
	 478A      2.849813   479A      2.852978   480A      2.860804  
	 481A      2.866876   482A      2.874735   483A      2.890845  
	 484A      2.911108   485A      2.921576   486A      2.931873  
	 487A      2.941843   488A      2.952504   489A      2.991091  
	 490A      3.032039   491A      3.060111   492A      3.082079  
	 493A      3.116436   494A      3.141762   495A      3.155716  
	 496A      3.170325   497A      3.177807   498A      3.224199  
	 499A      3.233377   500A      3.294317   501A      3.299946  
	 502A      3.307721   503A      3.326612   504A      3.337709  
	 505A      3.376035   506A      3.400547   507A      3.411764  
	 508A      3.434264   509A      3.439703   510A      3.470016  
	 511A      3.482237   512A      3.494570   513A      3.498874  
	 514A      3.517509   515A      3.523001   516A      3.545135  
	 517A      3.549490   518A      3.569430   519A      3.578353  
	 520A      3.593287   521A      3.612517   522A      3.623593  
	 523A      3.646287   524A      3.657739   525A      3.661875  
	 526A      3.682060   527A      3.700505   528A      3.726283  
	 529A      3.731666   530A      3.751616   531A      3.769373  
	 532A      3.773719   533A      3.792600   534A      3.806027  
	 535A      3.841594   536A      3.855464   537A      3.858843  
	 538A      3.875097   539A      3.900740   540A      3.907505  
	 541A      3.912991   542A      3.927644   543A      3.940302  
	 544A      3.945617   545A      3.956790   546A      3.968359  
	 547A      3.980415   548A      3.989185   549A      4.001700  
	 550A      4.006249   551A      4.022466   552A      4.032071  
	 553A      4.046659   554A      4.059489   555A      4.069661  
	 556A      4.090323   557A      4.095253   558A      4.116765  
	 559A      4.123574   560A      4.131652   561A      4.139839  
	 562A      4.147393   563A      4.152236   564A      4.166512  
	 565A      4.173922   566A      4.183024   567A      4.188953  
	 568A      4.197673   569A      4.210205   570A      4.214307  
	 571A      4.222421   572A      4.223916   573A      4.227124  
	 574A      4.243454   575A      4.251371   576A      4.256712  
	 577A      4.268066   578A      4.275367   579A      4.280577  
	 580A      4.282680   581A      4.293115   582A      4.300674  
	 583A      4.310108   584A      4.320286   585A      4.324897  
	 586A      4.343551   587A      4.355379   588A      4.358790  
	 589A      4.370327   590A      4.391735   591A      4.396771  
	 592A      4.418010   593A      4.422677   594A      4.429809  
	 595A      4.447966   596A      4.456255   597A      4.469350  
	 598A      4.488329   599A      4.498709   600A      4.504631  
	 601A      4.512080   602A      4.519649   603A      4.532682  
	 604A      4.554436   605A      4.559980   606A      4.566752  
	 607A      4.574018   608A      4.581183   609A      4.581323  
	 610A      4.597264   611A      4.610205   612A      4.622819  
	 613A      4.628326   614A      4.633024   615A      4.637878  
	 616A      4.644921   617A      4.651371   618A      4.658234  
	 619A      4.664830   620A      4.684565   621A      4.697052  
	 622A      4.710726   623A      4.713811   624A      4.731269  
	 625A      4.748761   626A      4.750400   627A      4.761051  
	 628A      4.787913   629A      4.797832   630A      4.801003  
	 631A      4.829943   632A      4.844272   633A      4.870964  
	 634A      4.894235   635A      4.899593   636A      4.908220  
	 637A      4.928696   638A      4.947284   639A      4.959045  
	 640A      4.971806   641A      4.982569   642A      4.989478  
	 643A      4.999810   644A      5.006730   645A      5.009545  
	 646A      5.019699   647A      5.035746   648A      5.047752  
	 649A      5.052661   650A      5.074292   651A      5.085677  
	 652A      5.094426   653A      5.101739   654A      5.114292  
	 655A      5.122896   656A      5.135678   657A      5.145962  
	 658A      5.149347   659A      5.159003   660A      5.175374  
	 661A      5.181222   662A      5.201113   663A      5.215871  
	 664A      5.218497   665A      5.225703   666A      5.238559  
	 667A      5.248370   668A      5.251268   669A      5.255104  
	 670A      5.262374   671A      5.266912   672A      5.273313  
	 673A      5.287952   674A      5.298483   675A      5.306037  
	 676A      5.340893   677A      5.345667   678A      5.385425  
	 679A      5.405113   680A      5.431524   681A      5.449592  
	 682A      5.452381   683A      5.456849   684A      5.463776  
	 685A      5.475183   686A      5.487615   687A      5.488662  
	 688A      5.510922   689A      5.515967   690A      5.526868  
	 691A      5.548005   692A      5.559064   693A      5.567776  
	 694A      5.579050   695A      5.595760   696A      5.609937  
	 697A      5.645812   698A      5.672367   699A      5.683276  
	 700A      5.699271   701A      5.709511   702A      5.711019  
	 703A      5.728687   704A      5.756239   705A      5.760440  
	 706A      5.776334   707A      5.794685   708A      5.813892  
	 709A      5.827673   710A      5.832652   711A      5.837087  
	 712A      5.856562   713A      5.862653   714A      5.868395  
	 715A      5.886524   716A      5.904104   717A      5.936798  
	 718A      5.944523   719A      5.951342   720A      5.974317  
	 721A      5.996841   722A      6.009104   723A      6.016360  
	 724A      6.020027   725A      6.032485   726A      6.035228  
	 727A      6.066867   728A      6.139729   729A      6.160078  
	 730A      6.170971   731A      6.192064   732A      6.209799  
	 733A      6.230865   734A      6.234774   735A      6.248521  
	 736A      6.268462   737A      6.283601   738A      6.344736  
	 739A      6.353732   740A      6.442024   741A      6.474772  
	 742A      6.493656   743A      6.510836   744A      6.538767  
	 745A      6.563079   746A      6.624252   747A      6.713241  
	 748A      6.727611   749A      6.739352   750A      6.766076  
	 751A      6.780076   752A      6.870242   753A      6.883741  
	 754A      6.906647   755A      6.926002   756A      6.947331  
	 757A      6.972977   758A      7.100182   759A      7.116375  
	 760A      7.143022   761A      7.176542   762A      7.195453  
	 763A      7.208647   764A      7.223066   765A      7.236560  
	 766A      7.289094   767A      7.422644   768A      7.495934  
	 769A      7.558207   770A      7.579276   771A      7.654852  
	 772A      7.694474   773A      7.708372   774A      7.820341  
	 775A      7.929014   776A      8.040920   777A      8.226222  
	 778A      8.230573   779A      8.240664   780A      8.355777  
	 781A      8.361342   782A      9.019212   783A      9.043001  
	 784A      9.390737   785A      9.534909   786A      9.593784  
	 787A     10.079727   788A     10.092559   789A     11.005173  
	 790A     11.068580   791A     11.429932   792A     11.479120  
	 793A     11.539015   794A     15.747425   795A     16.503968  
	 796A     18.726030   797A     19.210135   798A     19.858893  
	 799A     19.965758   800A     49.926942   801A     49.986312  
	 802A     54.428573   803A     56.382329   804A     56.519268  
	 805A     56.797486  

	Final Occupation by Irrep:
	          A 
	DOCC [    21 ]

  Energy converged.

  @RHF Final Energy:  -246.77893729183978

   => Energetics <=

    Nuclear Repulsion Energy =            206.2595574507954552
    One-Electron Energy =                -741.2961877914807474
    Two-Electron Energy =                 288.2576930488443168
    DFT Exchange-Correlation Energy =       0.0000000000000000
    Empirical Dispersion Energy =           0.0000000000000000
    Total Energy =                       -246.7789372918409754



Properties will be evaluated at   0.000000,   0.000000,   0.000000 Bohr
  ==> Properties <==


Properties computed using the SCF density density matrix
  Nuclear Dipole Moment: (a.u.)
     X:   -32.1195      Y:    16.9472      Z:   124.9649

  Electronic Dipole Moment: (a.u.)
     X:    33.0348      Y:   -16.8872      Z:  -124.9182

  Dipole Moment: (a.u.)
     X:     0.9153      Y:     0.0600      Z:     0.0467     Total:     0.9184

  Dipole Moment: (Debye)
     X:     2.3263      Y:     0.1526      Z:     0.1188     Total:     2.3344


  Saving occupied orbitals to File 180.

  Saving SAPT 2-MONOMER_B file.

*** tstop() called on pharma.bme.utexas.edu at Mon Oct  7 19:18:36 2013
Module time:
	user time   =    1294.13 seconds =      21.57 minutes
	system time =       7.79 seconds =       0.13 minutes
	total time  =        178 seconds =       2.97 minutes
Total time:
	user time   =    5173.85 seconds =      86.23 minutes
	system time =      30.38 seconds =       0.51 minutes
	total time  =        709 seconds =      11.82 minutes
  No DF_BASIS_SAPT auxiliary basis selected, defaulting to aug-cc-pvtz-ri

  //>>>>>>>>>>>>>>>>>>>>>>>>>>>>>>>>>>>//
  //               SAPT2+              //
  //<<<<<<<<<<<<<<<<<<<<<<<<<<<<<<<<<<<//


*** tstart() called on pharma.bme.utexas.edu
*** at Mon Oct  7 19:18:36 2013

        SAPT2+  
    Ed Hohenstein
     6 June 2009

      Orbital Information
  --------------------------
    NSO        =       805
    NMO        =       805
    NRI        =      1778
    NOCC A     =        21
    NOCC B     =        21
    FOCC A     =         6
    FOCC B     =         6
    NVIR A     =       784
    NVIR B     =       784

    Estimated memory usage: 15248.4 MB

    Elst10,r            =    -0.016730022449 H
    Exch10 (S^2)        =     0.041160277083 H
    Exch10              =     0.041516943415 H
    Ind20,r (A<-B)      =    -0.012146063672 H
    Ind20,r (B<-A)      =    -0.009238925566 H
    Ind20,r             =    -0.021384989237 H
    Exch-Ind20,r (A<-B) =     0.011712083017 H
    Exch-Ind20,r (B<-A) =     0.008856729608 H
    Exch-Ind20,r        =     0.020568812625 H
    Disp20              =    -0.034607677185 H
    Exch-Disp20         =     0.006430738242 H
    Elst12,r            =     0.000956590827 H
    Exch11              =     0.002283547546 H
    Exch12              =    -0.003231179521 H
    Ind22               =     0.001272299988 H
    Disp21              =     0.010757811513 H
    Disp22 (SDQ)        =     0.001482155726 H

    (i =   1 of  15)      21726 seconds
    (i =   2 of  15)      43419 seconds
    (i =   3 of  15)      65165 seconds
    (i =   4 of  15)      86931 seconds
    (i =   5 of  15)     108708 seconds
    (i =   6 of  15)     130463 seconds
    (i =   7 of  15)     152284 seconds
    (i =   8 of  15)     174011 seconds
    (i =   9 of  15)     195720 seconds
    (i =  10 of  15)     217546 seconds
    (i =  11 of  15)     239263 seconds
    (i =  12 of  15)     261054 seconds
    (i =  13 of  15)     282958 seconds
    (i =  14 of  15)     304894 seconds
    (i =  15 of  15)     326794 seconds

    Disp220 (T)         =    -0.003753971466 H

    (i =   1 of  15)      21890 seconds
    (i =   2 of  15)      43737 seconds
    (i =   3 of  15)      65682 seconds
    (i =   4 of  15)      87667 seconds
    (i =   5 of  15)     109550 seconds
    (i =   6 of  15)     131514 seconds
    (i =   7 of  15)     153359 seconds
    (i =   8 of  15)     175246 seconds
    (i =   9 of  15)     197025 seconds
    (i =  10 of  15)     218921 seconds
    (i =  11 of  15)     230430 seconds
    (i =  12 of  15)     246947 seconds
    (i =  13 of  15)     268844 seconds
    (i =  14 of  15)     290786 seconds
    (i =  15 of  15)     313700 seconds

    Disp202 (T)         =    -0.003870607893 H

    Disp22 (T)          =    -0.007624579359 H

    SAPT Results  
  -----------------------------------------------------------------------
    Electrostatics         -15.77343162 mH      -9.89797819 kcal mol^-1
      Elst10,r             -16.73002245 mH     -10.49824802 kcal mol^-1
      Elst12,r               0.95659083 mH       0.60026983 kcal mol^-1

    Exchange                40.56931144 mH      25.45762834 kcal mol^-1
      Exch10                41.51694341 mH      26.05227640 kcal mol^-1
      Exch10(S^2)           41.16027708 mH      25.82846489 kcal mol^-1
      Exch11(S^2)            2.28354755 mH       1.43294778 kcal mol^-1
      Exch12(S^2)           -3.23117952 mH      -2.02759585 kcal mol^-1

    Induction               -3.86786774 mH      -2.42712375 kcal mol^-1
      Ind20,r              -21.38498924 mH     -13.41928390 kcal mol^-1
      Ind22                  1.27229999 mH       0.79838033 kcal mol^-1
      Exch-Ind20,r          20.56881263 mH      12.90712533 kcal mol^-1
      Exch-Ind22            -1.22374156 mH      -0.76790945 kcal mol^-1
      delta HF,r (2)        -3.10024955 mH      -1.94543605 kcal mol^-1

    Dispersion             -23.56155106 mH     -14.78509713 kcal mol^-1
      Disp20               -34.60767718 mH     -21.71664621 kcal mol^-1
      Disp21                10.75781151 mH       6.75062892 kcal mol^-1
      Disp22 (SDQ)           1.48215573 mH       0.93006680 kcal mol^-1
      Disp22 (T)            -7.62457936 mH      -4.78449598 kcal mol^-1
      Exch-Disp20            6.43073824 mH       4.03534934 kcal mol^-1

    Total HF                20.87049480 mH      13.09643376 kcal mol^-1
    Total SAPT0             -7.30644414 mH      -4.58486311 kcal mol^-1
    Total SAPT2             -7.24892686 mH      -4.54877047 kcal mol^-1
    Total SAPT2+            -2.63353898 mH      -1.65257073 kcal mol^-1

*** tstop() called on pharma.bme.utexas.edu at Wed Oct 16 11:09:53 2013
Module time:
	user time   = 5440690.71 seconds =   90678.18 minutes
	system time =    9019.26 seconds =     150.32 minutes
	total time  =     748277 seconds =   12471.28 minutes
Total time:
	user time   = 5445864.56 seconds =   90764.41 minutes
	system time =    9049.64 seconds =     150.83 minutes
	total time  =     748986 seconds =   12483.10 minutes

*** PSI4 exiting successfully. Buy a developer a beer!
