    -----------------------------------------------------------------------
          PSI4: An Open-Source Ab Initio Electronic Structure Package
                              PSI 4.0.0-beta4 Driver

    J. M. Turney, A. C. Simmonett, R. M. Parrish, E. G. Hohenstein,
    F. A. Evangelista, J. T. Fermann, B. J. Mintz, L. A. Burns, J. J. Wilke,
    M. L. Abrams, N. J. Russ, M. L. Leininger, C. L. Janssen, E. T. Seidl,
    W. D. Allen, H. F. Schaefer, R. A. King, E. F. Valeev, C. D. Sherrill,
    and T. D. Crawford, WIREs Comput. Mol. Sci., (2011) (doi: 10.1002/wcms.93)

                         Additional Contributions by
    A. E. DePrince, M. Saitow, U. Bozkaya, A. Yu. Sokolov
    -----------------------------------------------------------------------

    Process ID:  46304
    PSI4DATADIR: /home/xzhu216/psi4/psi4-install/share/psi

    Using LocalCommunicator (Number of processes = 1)

    Memory level set to 256.000 MB

  ==> Input File <==

--------------------------------------------------------------------------
#psi4
#
memory 30 gb

molecule Benzene_Uracil {
0 1
    C     0.825769105     1.236524837    -0.040250437
    H     1.521013168     2.063125196    -0.082471448
    C     1.300159924    -0.062940879     0.127256013
    H     2.363657528    -0.242261131     0.207674197
    C     0.403523117    -1.128552182     0.198244857
    H     0.773753376    -2.137426768     0.324121091
    C    -0.967809494    -0.895190489     0.103139941
    H    -1.665209000    -1.719983422     0.160427446
    C    -1.443508379     0.404483279    -0.062441302
    H    -2.507511245     0.585501124    -0.124150163
    C    -0.545755493     1.468768748    -0.136247408
    H    -0.914221904     2.477422201    -0.267855164
--
0 1
    N    -0.311114439     0.773434835     2.262087005
    H    -0.684421832     1.675196265     1.999194034
    C     1.081032243     0.700447929     2.394100344
    O     1.771942562     1.694871621     2.249266279
    C     1.559932357    -0.633629780     2.712210546
    H     2.616984451    -0.785845719     2.846331682
    C     0.680223130    -1.648010956     2.838427071
    H     0.986150651    -2.656431565     3.074951432
    N    -0.665022757    -1.462979036     2.668334928
    H    -1.313770588    -2.225537979     2.767204099
    C    -1.239471066    -0.238178008     2.368920312
    O    -2.437259478    -0.087354733     2.226808120
units angstrom
no_reorient  #important for SAPT in psi4, default
symmetry c1  #important for SAPT in psi4, default
}

set {
basis aug-cc-pVTZ
scf_type DF
freeze_core True
}
energy('sapt2+')
--------------------------------------------------------------------------

  Memory set to  30.000 GiB by Python script.

  //>>>>>>>>>>>>>>>>>>>>>>>>>>>>>>>>>>>//
  //              Dimer HF             //
  //<<<<<<<<<<<<<<<<<<<<<<<<<<<<<<<<<<<//


  No DF_BASIS_SCF auxiliary basis selected, defaulting to aug-cc-pvtz-jkfit


*** tstart() called on node36.bme.utexas.edu
*** at Tue Feb 25 02:29:25 2014


         ---------------------------------------------------------
                                   SCF
            by Justin Turney, Rob Parrish, and Andy Simmonett
                              RHF Reference
                        4 Threads,  30000 MiB Core
         ---------------------------------------------------------

  ==> Geometry <==

    Molecular point group: c1
    Full point group: C1

    Geometry (in Angstrom), charge = 0, multiplicity = 1:

       Center              X                  Y                   Z       
    ------------   -----------------  -----------------  -----------------
           C          0.843003599173     1.218050085349    -1.501082746376
           H          1.538247662173     2.044650444349    -1.543303757376
           C          1.317394418173    -0.081415630651    -1.333576296376
           H          2.380892022173    -0.260735882651    -1.253158112376
           C          0.420757611173    -1.147026933651    -1.262587452376
           H          0.790987870173    -2.155901519651    -1.136711218376
           C         -0.950574999827    -0.913665240651    -1.357692368376
           H         -1.647974505827    -1.738458173651    -1.300404863376
           C         -1.426273884827     0.386008527349    -1.523273611376
           H         -2.490276750827     0.567026372349    -1.584982472376
           C         -0.528520998827     1.450293996349    -1.597079717376
           H         -0.896987409827     2.458947449349    -1.728687473376
           N         -0.293879944827     0.754960083349     0.801254695624
           H         -0.667187337827     1.656721513349     0.538361724624
           C          1.098266737173     0.681973177349     0.933268034624
           O          1.789177056173     1.676396869349     0.788433969624
           C          1.577166851173    -0.652104531651     1.251378236624
           H          2.634218945173    -0.804320470651     1.385499372624
           C          0.697457624173    -1.666485707651     1.377594761624
           H          1.003385145173    -2.674906316651     1.614119122624
           N         -0.647788262827    -1.481453787651     1.207502618624
           H         -1.296536093827    -2.244012730651     1.306371789624
           C         -1.222236571827    -0.256652759651     0.908088002624
           O         -2.420024983827    -0.105829484651     0.765975810624

  Running in c1 symmetry.

  Nuclear repulsion =  958.340595382166725

  Charge       = 0
  Multiplicity = 1
  Electrons    = 100
  Nalpha       = 50
  Nbeta        = 50

  ==> Algorithm <==

  SCF Algorithm Type is DF.
  DIIS enabled.
  MOM disabled.
  Fractional occupation disabled.
  Guess Type is CORE.
  Energy threshold   = 1.00e-08
  Density threshold  = 1.00e-08
  Integral threshold = 0.00e+00

  ==> Primary Basis <==

  Basis Set: AUG-CC-PVTZ
    Number of shells: 286
    Number of basis function: 874
    Number of Cartesian functions: 1020
    Spherical Harmonics?: true
    Max angular momentum: 3

  ==> Pre-Iterations <==

   -------------------------------------------------------
    Irrep   Nso     Nmo     Nalpha   Nbeta   Ndocc  Nsocc
   -------------------------------------------------------
     A        874     874       0       0       0       0
   -------------------------------------------------------
    Total     874     874      50      50      50       0
   -------------------------------------------------------

 OEINTS: Wrapper to libmints.
   by Justin Turney

   Calculation information:
      Number of atoms:                  24
      Number of AO shells:             286
      Number of SO shells:             286
      Number of primitives:            530
      Number of atomic orbitals:      1020
      Number of basis functions:       874

      Number of irreps:                  1
      Number of functions per irrep: [ 874 ]

      Overlap, kinetic, potential, dipole, and quadrupole integrals
        stored in file 35.

  ==> Integral Setup <==

  ==> DFJK: Density-Fitted J/K Matrices <==

    J tasked:                  Yes
    K tasked:                  Yes
    wK tasked:                  No
    OpenMP threads:              4
    Integrals threads:           4
    Memory (MB):             21457
    Algorithm:                Core
    Integral Cache:           SAVE
    Schwarz Cutoff:          0E+00
    Fitting Condition:       1E-12

   => Auxiliary Basis Set <=

  Basis Set: aug-cc-pvtz-jkfit
    Number of shells: 560
    Number of basis function: 1916
    Number of Cartesian functions: 2384
    Spherical Harmonics?: true
    Max angular momentum: 4

  Minimum eigenvalue in the overlap matrix is 1.7198436371E-07.
  Using Symmetric Orthogonalization.
  SCF Guess: Core (One-Electron) Hamiltonian.

  Guess energy:  -532.86855305997426

  ==> Iterations <==

                        Total Energy        Delta E     RMS |[F,P]|

   @RHF iter   1:  -433.17171883421213   -4.33172e+02   2.47857e-02 
   @RHF iter   2:  -356.39725760689396    7.67745e+01   1.58040e-02 DIIS
   @RHF iter   3:  -401.74552784270566   -4.53483e+01   2.18517e-02 DIIS
   @RHF iter   4:  -599.82415025219177   -1.98079e+02   8.93171e-03 DIIS
   @RHF iter   5:  -604.71906935873051   -4.89492e+00   8.23251e-03 DIIS
   @RHF iter   6:  -615.64642810025100   -1.09274e+01   6.05726e-03 DIIS
   @RHF iter   7:  -637.45295042586838   -2.18065e+01   3.29392e-03 DIIS
   @RHF iter   8:  -642.88323759784805   -5.43029e+00   9.71137e-04 DIIS
   @RHF iter   9:  -643.20770555324441   -3.24468e-01   4.14561e-04 DIIS
   @RHF iter  10:  -643.26974329657935   -6.20377e-02   7.57588e-05 DIIS
   @RHF iter  11:  -643.27348297084052   -3.73967e-03   3.32686e-05 DIIS
   @RHF iter  12:  -643.27425950662143   -7.76536e-04   1.31118e-05 DIIS
   @RHF iter  13:  -643.27441689664045   -1.57390e-04   5.73512e-06 DIIS
   @RHF iter  14:  -643.27445845478485   -4.15581e-05   2.73685e-06 DIIS
   @RHF iter  15:  -643.27446779562854   -9.34084e-06   1.42967e-06 DIIS
   @RHF iter  16:  -643.27447027948199   -2.48385e-06   4.66037e-07 DIIS
   @RHF iter  17:  -643.27447061589453   -3.36413e-07   2.02567e-07 DIIS
   @RHF iter  18:  -643.27447070106462   -8.51701e-08   1.10877e-07 DIIS
   @RHF iter  19:  -643.27447072227994   -2.12153e-08   4.06121e-08 DIIS
   @RHF iter  20:  -643.27447072410189   -1.82195e-09   1.75668e-08 DIIS
   @RHF iter  21:  -643.27447072448797   -3.86081e-10   8.03865e-09 DIIS

  ==> Post-Iterations <==

	Orbital Energies (a.u.)
	-----------------------

	Doubly Occupied:                                                      

	   1A    -20.533986     2A    -20.528881     3A    -15.632614  
	   4A    -15.608207     5A    -11.410412     6A    -11.374199  
	   7A    -11.325813     8A    -11.247695     9A    -11.243347  
	  10A    -11.232313    11A    -11.230508    12A    -11.230289  
	  13A    -11.229255    14A    -11.225337    15A     -1.431985  
	  16A     -1.394360    17A     -1.306682    18A     -1.241016  
	  19A     -1.155387    20A     -1.084452    21A     -1.022529  
	  22A     -1.020228    23A     -0.926164    24A     -0.894435  
	  25A     -0.830852    26A     -0.829076    27A     -0.800535  
	  28A     -0.756279    29A     -0.716933    30A     -0.704924  
	  31A     -0.683730    32A     -0.672253    33A     -0.647023  
	  34A     -0.645312    35A     -0.622799    36A     -0.609644  
	  37A     -0.595957    38A     -0.593099    39A     -0.591088  
	  40A     -0.573934    41A     -0.526837    42A     -0.497611  
	  43A     -0.496182    44A     -0.482043    45A     -0.464281  
	  46A     -0.440944    47A     -0.426175    48A     -0.369882  
	  49A     -0.328579    50A     -0.314619  

	Virtual:                                                              

	  51A      0.014899    52A      0.031544    53A      0.035543  
	  54A      0.036988    55A      0.044883    56A      0.047421  
	  57A      0.052757    58A      0.053322    59A      0.062248  
	  60A      0.068683    61A      0.071581    62A      0.079292  
	  63A      0.084154    64A      0.091629    65A      0.098246  
	  66A      0.100205    67A      0.102982    68A      0.103617  
	  69A      0.111069    70A      0.115200    71A      0.118476  
	  72A      0.123918    73A      0.126350    74A      0.126616  
	  75A      0.128714    76A      0.133838    77A      0.135761  
	  78A      0.139474    79A      0.141284    80A      0.144379  
	  81A      0.149119    82A      0.149879    83A      0.151923  
	  84A      0.153823    85A      0.154583    86A      0.159500  
	  87A      0.163183    88A      0.169063    89A      0.174212  
	  90A      0.176822    91A      0.180766    92A      0.182278  
	  93A      0.192565    94A      0.197281    95A      0.198260  
	  96A      0.203102    97A      0.212801    98A      0.214275  
	  99A      0.228585   100A      0.231254   101A      0.235233  
	 102A      0.236395   103A      0.245146   104A      0.251225  
	 105A      0.260456   106A      0.261169   107A      0.264764  
	 108A      0.269871   109A      0.274488   110A      0.275902  
	 111A      0.279222   112A      0.284922   113A      0.285261  
	 114A      0.289023   115A      0.292891   116A      0.296332  
	 117A      0.302612   118A      0.304374   119A      0.309156  
	 120A      0.311942   121A      0.320131   122A      0.325879  
	 123A      0.328202   124A      0.332764   125A      0.335710  
	 126A      0.343149   127A      0.345099   128A      0.349661  
	 129A      0.353510   130A      0.356034   131A      0.360692  
	 132A      0.365946   133A      0.370587   134A      0.376802  
	 135A      0.381817   136A      0.383870   137A      0.384738  
	 138A      0.390715   139A      0.393520   140A      0.399770  
	 141A      0.403431   142A      0.406282   143A      0.417459  
	 144A      0.424458   145A      0.425425   146A      0.430561  
	 147A      0.433977   148A      0.445305   149A      0.448610  
	 150A      0.451856   151A      0.457393   152A      0.461780  
	 153A      0.464747   154A      0.470278   155A      0.471917  
	 156A      0.476223   157A      0.483504   158A      0.485419  
	 159A      0.489104   160A      0.492278   161A      0.493845  
	 162A      0.496450   163A      0.499407   164A      0.503179  
	 165A      0.505852   166A      0.511044   167A      0.515027  
	 168A      0.518278   169A      0.522280   170A      0.525648  
	 171A      0.530001   172A      0.535404   173A      0.536421  
	 174A      0.541696   175A      0.543002   176A      0.546865  
	 177A      0.550545   178A      0.555715   179A      0.561656  
	 180A      0.568331   181A      0.572195   182A      0.579941  
	 183A      0.581204   184A      0.587993   185A      0.590212  
	 186A      0.592015   187A      0.599552   188A      0.607279  
	 189A      0.611391   190A      0.615367   191A      0.617663  
	 192A      0.622395   193A      0.626826   194A      0.631504  
	 195A      0.634900   196A      0.642146   197A      0.647924  
	 198A      0.651306   199A      0.651794   200A      0.655763  
	 201A      0.660590   202A      0.661334   203A      0.666453  
	 204A      0.676701   205A      0.680492   206A      0.687598  
	 207A      0.691237   208A      0.692575   209A      0.698636  
	 210A      0.710514   211A      0.714599   212A      0.718824  
	 213A      0.724513   214A      0.728255   215A      0.736891  
	 216A      0.740547   217A      0.742566   218A      0.745972  
	 219A      0.749496   220A      0.754787   221A      0.759850  
	 222A      0.773171   223A      0.776840   224A      0.783225  
	 225A      0.788481   226A      0.798814   227A      0.800143  
	 228A      0.803043   229A      0.810188   230A      0.813377  
	 231A      0.818223   232A      0.824934   233A      0.832429  
	 234A      0.837763   235A      0.841536   236A      0.848034  
	 237A      0.849290   238A      0.851642   239A      0.858537  
	 240A      0.869431   241A      0.873319   242A      0.877980  
	 243A      0.882028   244A      0.892164   245A      0.897645  
	 246A      0.899434   247A      0.904435   248A      0.908480  
	 249A      0.916662   250A      0.927905   251A      0.933645  
	 252A      0.934905   253A      0.940851   254A      0.943532  
	 255A      0.947371   256A      0.954480   257A      0.957236  
	 258A      0.966032   259A      0.968058   260A      0.972882  
	 261A      0.978371   262A      0.979405   263A      0.984705  
	 264A      0.986082   265A      0.990659   266A      0.994320  
	 267A      1.000964   268A      1.010655   269A      1.025302  
	 270A      1.031849   271A      1.038739   272A      1.047088  
	 273A      1.049105   274A      1.055739   275A      1.061078  
	 276A      1.065236   277A      1.074473   278A      1.081667  
	 279A      1.088419   280A      1.092972   281A      1.095903  
	 282A      1.099925   283A      1.103381   284A      1.112595  
	 285A      1.116378   286A      1.120924   287A      1.123918  
	 288A      1.128612   289A      1.132008   290A      1.136865  
	 291A      1.145247   292A      1.148702   293A      1.158507  
	 294A      1.159798   295A      1.166745   296A      1.170043  
	 297A      1.174650   298A      1.178556   299A      1.184541  
	 300A      1.191247   301A      1.198313   302A      1.202988  
	 303A      1.206058   304A      1.208054   305A      1.215706  
	 306A      1.218504   307A      1.226119   308A      1.235201  
	 309A      1.239531   310A      1.247586   311A      1.248569  
	 312A      1.251898   313A      1.254360   314A      1.267885  
	 315A      1.271250   316A      1.274982   317A      1.282774  
	 318A      1.287324   319A      1.293336   320A      1.300577  
	 321A      1.306399   322A      1.311366   323A      1.314958  
	 324A      1.321013   325A      1.324586   326A      1.332312  
	 327A      1.334933   328A      1.336608   329A      1.344316  
	 330A      1.351023   331A      1.361391   332A      1.373200  
	 333A      1.374907   334A      1.380351   335A      1.389158  
	 336A      1.396187   337A      1.399604   338A      1.404383  
	 339A      1.406673   340A      1.410094   341A      1.416583  
	 342A      1.425858   343A      1.432288   344A      1.437746  
	 345A      1.443931   346A      1.448231   347A      1.451319  
	 348A      1.461865   349A      1.473010   350A      1.475046  
	 351A      1.480529   352A      1.497448   353A      1.501717  
	 354A      1.507714   355A      1.511857   356A      1.520501  
	 357A      1.521649   358A      1.526073   359A      1.531591  
	 360A      1.546681   361A      1.550388   362A      1.552523  
	 363A      1.554990   364A      1.556608   365A      1.570720  
	 366A      1.573399   367A      1.585137   368A      1.589147  
	 369A      1.596260   370A      1.603537   371A      1.614193  
	 372A      1.619503   373A      1.629502   374A      1.631916  
	 375A      1.648193   376A      1.655920   377A      1.658553  
	 378A      1.666008   379A      1.675031   380A      1.680774  
	 381A      1.685389   382A      1.693357   383A      1.699573  
	 384A      1.707341   385A      1.714785   386A      1.718690  
	 387A      1.729624   388A      1.737636   389A      1.746326  
	 390A      1.763059   391A      1.765395   392A      1.768414  
	 393A      1.775613   394A      1.779830   395A      1.786682  
	 396A      1.794696   397A      1.804095   398A      1.806659  
	 399A      1.808323   400A      1.814253   401A      1.818302  
	 402A      1.827401   403A      1.839396   404A      1.841795  
	 405A      1.851872   406A      1.860782   407A      1.867712  
	 408A      1.870045   409A      1.874279   410A      1.881330  
	 411A      1.885068   412A      1.887582   413A      1.904358  
	 414A      1.909907   415A      1.911183   416A      1.915878  
	 417A      1.931592   418A      1.937248   419A      1.941883  
	 420A      1.945112   421A      1.949186   422A      1.954848  
	 423A      1.969547   424A      1.975719   425A      1.984896  
	 426A      2.001329   427A      2.007542   428A      2.012638  
	 429A      2.020931   430A      2.033104   431A      2.034362  
	 432A      2.038769   433A      2.046699   434A      2.054707  
	 435A      2.071212   436A      2.077011   437A      2.082867  
	 438A      2.085387   439A      2.096848   440A      2.099026  
	 441A      2.107791   442A      2.116109   443A      2.128588  
	 444A      2.138278   445A      2.146272   446A      2.153351  
	 447A      2.160256   448A      2.162734   449A      2.171128  
	 450A      2.181214   451A      2.193008   452A      2.204192  
	 453A      2.208369   454A      2.212888   455A      2.221868  
	 456A      2.226841   457A      2.233289   458A      2.248915  
	 459A      2.252144   460A      2.263302   461A      2.272883  
	 462A      2.281273   463A      2.287952   464A      2.300161  
	 465A      2.307865   466A      2.315172   467A      2.334218  
	 468A      2.337543   469A      2.354942   470A      2.362289  
	 471A      2.375008   472A      2.382895   473A      2.393385  
	 474A      2.399726   475A      2.403253   476A      2.409061  
	 477A      2.424006   478A      2.433714   479A      2.437879  
	 480A      2.454017   481A      2.464416   482A      2.471764  
	 483A      2.486596   484A      2.489911   485A      2.506169  
	 486A      2.509334   487A      2.524181   488A      2.532221  
	 489A      2.535119   490A      2.539943   491A      2.550501  
	 492A      2.563134   493A      2.568395   494A      2.575006  
	 495A      2.581487   496A      2.588595   497A      2.597278  
	 498A      2.604493   499A      2.608497   500A      2.623015  
	 501A      2.631356   502A      2.631367   503A      2.648208  
	 504A      2.658043   505A      2.663862   506A      2.680987  
	 507A      2.689061   508A      2.698119   509A      2.703598  
	 510A      2.716159   511A      2.719441   512A      2.743538  
	 513A      2.752871   514A      2.767132   515A      2.773732  
	 516A      2.782822   517A      2.795749   518A      2.804116  
	 519A      2.810152   520A      2.816000   521A      2.840039  
	 522A      2.856884   523A      2.860394   524A      2.870148  
	 525A      2.880180   526A      2.887629   527A      2.899282  
	 528A      2.903094   529A      2.914312   530A      2.931841  
	 531A      2.939213   532A      2.957708   533A      2.968476  
	 534A      2.979473   535A      3.006893   536A      3.024655  
	 537A      3.029562   538A      3.043947   539A      3.053640  
	 540A      3.080275   541A      3.104454   542A      3.126861  
	 543A      3.135408   544A      3.148559   545A      3.170037  
	 546A      3.188785   547A      3.212673   548A      3.216368  
	 549A      3.234281   550A      3.260788   551A      3.277449  
	 552A      3.300725   553A      3.302885   554A      3.327995  
	 555A      3.342936   556A      3.347074   557A      3.366673  
	 558A      3.392127   559A      3.403052   560A      3.411443  
	 561A      3.413160   562A      3.432398   563A      3.455022  
	 564A      3.472021   565A      3.473887   566A      3.490540  
	 567A      3.501308   568A      3.513599   569A      3.530148  
	 570A      3.538470   571A      3.545960   572A      3.558200  
	 573A      3.563882   574A      3.572238   575A      3.587630  
	 576A      3.593789   577A      3.601297   578A      3.619762  
	 579A      3.635067   580A      3.639124   581A      3.648878  
	 582A      3.653674   583A      3.672702   584A      3.684019  
	 585A      3.691769   586A      3.696654   587A      3.702034  
	 588A      3.711650   589A      3.726483   590A      3.729984  
	 591A      3.736117   592A      3.744745   593A      3.752792  
	 594A      3.762011   595A      3.791947   596A      3.798973  
	 597A      3.810243   598A      3.815911   599A      3.821626  
	 600A      3.833974   601A      3.843607   602A      3.849825  
	 603A      3.865318   604A      3.879254   605A      3.884890  
	 606A      3.891779   607A      3.900536   608A      3.904117  
	 609A      3.921753   610A      3.929759   611A      3.946414  
	 612A      3.957865   613A      3.962380   614A      3.967009  
	 615A      3.985526   616A      3.987026   617A      3.995863  
	 618A      3.999104   619A      4.009498   620A      4.012520  
	 621A      4.021048   622A      4.038720   623A      4.047810  
	 624A      4.056329   625A      4.066574   626A      4.075989  
	 627A      4.079874   628A      4.090412   629A      4.107063  
	 630A      4.110169   631A      4.116891   632A      4.123589  
	 633A      4.141807   634A      4.144957   635A      4.151450  
	 636A      4.161576   637A      4.166639   638A      4.181992  
	 639A      4.184004   640A      4.190056   641A      4.214801  
	 642A      4.215195   643A      4.232794   644A      4.238588  
	 645A      4.241965   646A      4.259058   647A      4.259668  
	 648A      4.270058   649A      4.285345   650A      4.295170  
	 651A      4.311698   652A      4.314804   653A      4.328179  
	 654A      4.333574   655A      4.342898   656A      4.348291  
	 657A      4.356590   658A      4.369668   659A      4.375938  
	 660A      4.397605   661A      4.409475   662A      4.419271  
	 663A      4.421803   664A      4.431768   665A      4.436514  
	 666A      4.439159   667A      4.446167   668A      4.461405  
	 669A      4.465285   670A      4.482551   671A      4.487659  
	 672A      4.494876   673A      4.497670   674A      4.509027  
	 675A      4.512765   676A      4.517653   677A      4.531722  
	 678A      4.535471   679A      4.546998   680A      4.547733  
	 681A      4.558594   682A      4.568669   683A      4.582516  
	 684A      4.585258   685A      4.597074   686A      4.613226  
	 687A      4.620869   688A      4.634997   689A      4.635667  
	 690A      4.649180   691A      4.671116   692A      4.677466  
	 693A      4.703964   694A      4.708118   695A      4.729288  
	 696A      4.729683   697A      4.734633   698A      4.748551  
	 699A      4.759335   700A      4.770490   701A      4.790139  
	 702A      4.791871   703A      4.806760   704A      4.818285  
	 705A      4.835629   706A      4.848985   707A      4.857097  
	 708A      4.870547   709A      4.880813   710A      4.893291  
	 711A      4.899463   712A      4.905618   713A      4.923912  
	 714A      4.935041   715A      4.952395   716A      4.952627  
	 717A      4.966329   718A      4.981139   719A      4.994069  
	 720A      4.998141   721A      5.007689   722A      5.020677  
	 723A      5.030670   724A      5.037966   725A      5.049970  
	 726A      5.066941   727A      5.084050   728A      5.108183  
	 729A      5.115477   730A      5.121783   731A      5.148905  
	 732A      5.160076   733A      5.170651   734A      5.184381  
	 735A      5.188322   736A      5.202084   737A      5.214850  
	 738A      5.221421   739A      5.233497   740A      5.239773  
	 741A      5.251002   742A      5.256705   743A      5.272420  
	 744A      5.282107   745A      5.289056   746A      5.301948  
	 747A      5.311239   748A      5.322058   749A      5.330350  
	 750A      5.351744   751A      5.357907   752A      5.362029  
	 753A      5.378304   754A      5.396477   755A      5.405202  
	 756A      5.416354   757A      5.436705   758A      5.457312  
	 759A      5.464355   760A      5.476214   761A      5.484345  
	 762A      5.495967   763A      5.520588   764A      5.525884  
	 765A      5.535816   766A      5.545964   767A      5.565758  
	 768A      5.581599   769A      5.604652   770A      5.618509  
	 771A      5.631446   772A      5.648726   773A      5.660131  
	 774A      5.670390   775A      5.687805   776A      5.703116  
	 777A      5.726755   778A      5.760062   779A      5.765142  
	 780A      5.808342   781A      5.829785   782A      5.836129  
	 783A      5.857532   784A      5.863840   785A      5.876313  
	 786A      5.887835   787A      5.908373   788A      5.919511  
	 789A      5.935692   790A      5.968313   791A      5.978156  
	 792A      5.983392   793A      6.002067   794A      6.030123  
	 795A      6.046355   796A      6.083044   797A      6.100674  
	 798A      6.125915   799A      6.128243   800A      6.209295  
	 801A      6.240762   802A      6.259792   803A      6.277427  
	 804A      6.289204   805A      6.316666   806A      6.346345  
	 807A      6.383236   808A      6.389638   809A      6.429116  
	 810A      6.469456   811A      6.474827   812A      6.484533  
	 813A      6.500319   814A      6.525141   815A      6.540168  
	 816A      6.637104   817A      6.656287   818A      6.717578  
	 819A      6.748072   820A      6.761052   821A      6.805006  
	 822A      6.855153   823A      6.877769   824A      6.896625  
	 825A      6.898883   826A      6.935969   827A      6.957297  
	 828A      6.978896   829A      6.998616   830A      7.021083  
	 831A      7.022334   832A      7.054189   833A      7.055499  
	 834A      7.075164   835A      7.116750   836A      7.158408  
	 837A      7.173564   838A      7.193829   839A      7.296089  
	 840A      7.324762   841A      7.339934   842A      7.378273  
	 843A      7.474023   844A      7.500854   845A      7.579254  
	 846A      7.603500   847A      7.624336   848A      7.650442  
	 849A      7.678101   850A      7.710968   851A      7.844591  
	 852A      7.896581   853A      7.935965   854A      7.955067  
	 855A      8.000452   856A      8.077566   857A      8.114241  
	 858A      8.120093   859A      8.139798   860A      8.197103  
	 861A     16.517644   862A     16.686972   863A     17.175126  
	 864A     17.576526   865A     17.612960   866A     17.880032  
	 867A     19.015107   868A     19.874042   869A     20.509895  
	 870A     20.653567   871A     20.879498   872A     21.131374  
	 873A     21.459443   874A     21.847254  

	Final Occupation by Irrep:
	          A 
	DOCC [    50 ]

  Energy converged.

  @RHF Final Energy:  -643.27447072448797

   => Energetics <=

    Nuclear Repulsion Energy =            958.3405953821667254
    One-Electron Energy =               -2779.7287498406035411
    Two-Electron Energy =                1178.1136837339504382
    DFT Exchange-Correlation Energy =       0.0000000000000000
    Empirical Dispersion Energy =           0.0000000000000000
    Total Energy =                       -643.2744707244864912



Properties will be evaluated at   0.000000,   0.000000,   0.000000 Bohr
  ==> Properties <==


Properties computed using the SCF density density matrix
  Nuclear Dipole Moment: (a.u.)
     X:     1.2641      Y:    -2.9443      Z:    -3.4697

  Electronic Dipole Moment: (a.u.)
     X:    -1.0256      Y:     1.1792      Z:     3.7794

  Dipole Moment: (a.u.)
     X:     0.2385      Y:    -1.7651      Z:     0.3097     Total:     1.8079

  Dipole Moment: (Debye)
     X:     0.6063      Y:    -4.4864      Z:     0.7873     Total:     4.5951


  Saving occupied orbitals to File 180.

  Saving SAPT 2-DIMER file.

*** tstop() called on node36.bme.utexas.edu at Tue Feb 25 02:37:12 2014
Module time:
	user time   =    1728.38 seconds =      28.81 minutes
	system time =      18.18 seconds =       0.30 minutes
	total time  =        467 seconds =       7.78 minutes
Total time:
	user time   =    1728.38 seconds =      28.81 minutes
	system time =      18.18 seconds =       0.30 minutes
	total time  =        467 seconds =       7.78 minutes

  //>>>>>>>>>>>>>>>>>>>>>>>>>>>>>>>>>>>//
  //            Monomer A HF           //
  //<<<<<<<<<<<<<<<<<<<<<<<<<<<<<<<<<<<//


  No DF_BASIS_SCF auxiliary basis selected, defaulting to aug-cc-pvtz-jkfit


*** tstart() called on node36.bme.utexas.edu
*** at Tue Feb 25 02:37:12 2014


         ---------------------------------------------------------
                                   SCF
            by Justin Turney, Rob Parrish, and Andy Simmonett
                              RHF Reference
                        4 Threads,  30000 MiB Core
         ---------------------------------------------------------

  ==> Geometry <==

    Molecular point group: c1
    Full point group: C1

    Geometry (in Angstrom), charge = 0, multiplicity = 1:

       Center              X                  Y                   Z       
    ------------   -----------------  -----------------  -----------------
           C          0.843003599173     1.218050085349    -1.501082746376
           H          1.538247662173     2.044650444349    -1.543303757376
           C          1.317394418173    -0.081415630651    -1.333576296376
           H          2.380892022173    -0.260735882651    -1.253158112376
           C          0.420757611173    -1.147026933651    -1.262587452376
           H          0.790987870173    -2.155901519651    -1.136711218376
           C         -0.950574999827    -0.913665240651    -1.357692368376
           H         -1.647974505827    -1.738458173651    -1.300404863376
           C         -1.426273884827     0.386008527349    -1.523273611376
           H         -2.490276750827     0.567026372349    -1.584982472376
           C         -0.528520998827     1.450293996349    -1.597079717376
           H         -0.896987409827     2.458947449349    -1.728687473376
           N(Gh)     -0.293879944827     0.754960083349     0.801254695624
           H(Gh)     -0.667187337827     1.656721513349     0.538361724624
           C(Gh)      1.098266737173     0.681973177349     0.933268034624
           O(Gh)      1.789177056173     1.676396869349     0.788433969624
           C(Gh)      1.577166851173    -0.652104531651     1.251378236624
           H(Gh)      2.634218945173    -0.804320470651     1.385499372624
           C(Gh)      0.697457624173    -1.666485707651     1.377594761624
           H(Gh)      1.003385145173    -2.674906316651     1.614119122624
           N(Gh)     -0.647788262827    -1.481453787651     1.207502618624
           H(Gh)     -1.296536093827    -2.244012730651     1.306371789624
           C(Gh)     -1.222236571827    -0.256652759651     0.908088002624
           O(Gh)     -2.420024983827    -0.105829484651     0.765975810624

  Running in c1 symmetry.

  Nuclear repulsion =  203.651345032034641

  Charge       = 0
  Multiplicity = 1
  Electrons    = 42
  Nalpha       = 21
  Nbeta        = 21

  ==> Algorithm <==

  SCF Algorithm Type is DF.
  DIIS enabled.
  MOM disabled.
  Fractional occupation disabled.
  Guess Type is CORE.
  Energy threshold   = 1.00e-08
  Density threshold  = 1.00e-08
  Integral threshold = 0.00e+00

  ==> Primary Basis <==

  Basis Set: AUG-CC-PVTZ
    Number of shells: 286
    Number of basis function: 874
    Number of Cartesian functions: 1020
    Spherical Harmonics?: true
    Max angular momentum: 3

  ==> Pre-Iterations <==

   -------------------------------------------------------
    Irrep   Nso     Nmo     Nalpha   Nbeta   Ndocc  Nsocc
   -------------------------------------------------------
     A        874     874       0       0       0       0
   -------------------------------------------------------
    Total     874     874      21      21      21       0
   -------------------------------------------------------

 OEINTS: Wrapper to libmints.
   by Justin Turney

   Calculation information:
      Number of atoms:                  24
      Number of AO shells:             286
      Number of SO shells:             286
      Number of primitives:            530
      Number of atomic orbitals:      1020
      Number of basis functions:       874

      Number of irreps:                  1
      Number of functions per irrep: [ 874 ]

      Overlap, kinetic, potential, dipole, and quadrupole integrals
        stored in file 35.

  ==> Integral Setup <==

  ==> DFJK: Density-Fitted J/K Matrices <==

    J tasked:                  Yes
    K tasked:                  Yes
    wK tasked:                  No
    OpenMP threads:              4
    Integrals threads:           4
    Memory (MB):             21457
    Algorithm:                Core
    Integral Cache:           LOAD
    Schwarz Cutoff:          0E+00
    Fitting Condition:       1E-12

   => Auxiliary Basis Set <=

  Basis Set: aug-cc-pvtz-jkfit
    Number of shells: 560
    Number of basis function: 1916
    Number of Cartesian functions: 2384
    Spherical Harmonics?: true
    Max angular momentum: 4

  Minimum eigenvalue in the overlap matrix is 1.7198436371E-07.
  Using Symmetric Orthogonalization.
  SCF Guess: Core (One-Electron) Hamiltonian.

  Guess energy:  -182.20781042669242

  ==> Iterations <==

                        Total Energy        Delta E     RMS |[F,P]|

   @RHF iter   1:  -182.70031061948615   -1.82700e+02   1.13574e-02 
   @RHF iter   2:  -169.84568493114310    1.28546e+01   5.66554e-03 DIIS
   @RHF iter   3:  -220.22202048980918   -5.03763e+01   4.77912e-03 DIIS
   @RHF iter   4:  -228.70189028724317   -8.47987e+00   2.10965e-03 DIIS
   @RHF iter   5:  -230.14547069416378   -1.44358e+00   1.19271e-03 DIIS
   @RHF iter   6:  -230.66527184707294   -5.19801e-01   4.91533e-04 DIIS
   @RHF iter   7:  -230.77715857938804   -1.11887e-01   8.14698e-05 DIIS
   @RHF iter   8:  -230.78157098943214   -4.41241e-03   1.50051e-05 DIIS
   @RHF iter   9:  -230.78174802690623   -1.77037e-04   4.62643e-06 DIIS
   @RHF iter  10:  -230.78176249207823   -1.44652e-05   1.59155e-06 DIIS
   @RHF iter  11:  -230.78176529410186   -2.80202e-06   7.15787e-07 DIIS
   @RHF iter  12:  -230.78176600403359   -7.09932e-07   3.33279e-07 DIIS
   @RHF iter  13:  -230.78176626178853   -2.57755e-07   1.59550e-07 DIIS
   @RHF iter  14:  -230.78176630554984   -4.37613e-08   4.71409e-08 DIIS
   @RHF iter  15:  -230.78176630913921   -3.58938e-09   1.88733e-08 DIIS
   @RHF iter  16:  -230.78176630936011   -2.20894e-10   4.96413e-09 DIIS

  ==> Post-Iterations <==

	Orbital Energies (a.u.)
	-----------------------

	Doubly Occupied:                                                      

	   1A    -11.236377     2A    -11.235840     3A    -11.235752  
	   4A    -11.234599     5A    -11.234505     6A    -11.233941  
	   7A     -1.150197     8A     -1.015047     9A     -1.014352  
	  10A     -0.824257    11A     -0.823918    12A     -0.709564  
	  13A     -0.644210    14A     -0.619005    15A     -0.588438  
	  16A     -0.587620    17A     -0.502333    18A     -0.495344  
	  19A     -0.494364    20A     -0.336946    21A     -0.336551  

	Virtual:                                                              

	  22A      0.023100    23A      0.031561    24A      0.031934  
	  25A      0.039120    26A      0.044314    27A      0.045787  
	  28A      0.051141    29A      0.052375    30A      0.062117  
	  31A      0.069798    32A      0.072822    33A      0.077328  
	  34A      0.089034    35A      0.096702    36A      0.098007  
	  37A      0.098644    38A      0.101689    39A      0.104176  
	  40A      0.111997    41A      0.114333    42A      0.115641  
	  43A      0.117279    44A      0.120055    45A      0.125323  
	  46A      0.126994    47A      0.132360    48A      0.134580  
	  49A      0.136745    50A      0.146072    51A      0.147171  
	  52A      0.149772    53A      0.150430    54A      0.153232  
	  55A      0.154642    56A      0.157638    57A      0.160922  
	  58A      0.167797    59A      0.175358    60A      0.177495  
	  61A      0.180682    62A      0.183658    63A      0.188386  
	  64A      0.193953    65A      0.196967    66A      0.201672  
	  67A      0.204486    68A      0.215246    69A      0.222105  
	  70A      0.225962    71A      0.227483    72A      0.230989  
	  73A      0.241496    74A      0.243989    75A      0.251127  
	  76A      0.256839    77A      0.258055    78A      0.261178  
	  79A      0.266493    80A      0.269660    81A      0.270212  
	  82A      0.273834    83A      0.278171    84A      0.280249  
	  85A      0.284720    86A      0.294076    87A      0.298570  
	  88A      0.301293    89A      0.305291    90A      0.316615  
	  91A      0.318770    92A      0.321865    93A      0.325756  
	  94A      0.332514    95A      0.337524    96A      0.339205  
	  97A      0.344292    98A      0.353456    99A      0.353834  
	 100A      0.358044   101A      0.365179   102A      0.367518  
	 103A      0.371540   104A      0.376952   105A      0.381902  
	 106A      0.387888   107A      0.389353   108A      0.394062  
	 109A      0.401627   110A      0.405870   111A      0.407796  
	 112A      0.412391   113A      0.420011   114A      0.425269  
	 115A      0.429231   116A      0.435043   117A      0.437427  
	 118A      0.449797   119A      0.455188   120A      0.457696  
	 121A      0.463815   122A      0.466335   123A      0.470579  
	 124A      0.472838   125A      0.476522   126A      0.479851  
	 127A      0.482949   128A      0.488457   129A      0.493313  
	 130A      0.493431   131A      0.499201   132A      0.499981  
	 133A      0.506323   134A      0.507118   135A      0.511371  
	 136A      0.516731   137A      0.521574   138A      0.523593  
	 139A      0.527549   140A      0.530718   141A      0.538058  
	 142A      0.541147   143A      0.544473   144A      0.545792  
	 145A      0.552711   146A      0.558393   147A      0.564120  
	 148A      0.568809   149A      0.575167   150A      0.576276  
	 151A      0.582294   152A      0.587373   153A      0.589109  
	 154A      0.593116   155A      0.602992   156A      0.607770  
	 157A      0.611748   158A      0.613461   159A      0.616869  
	 160A      0.619946   161A      0.624907   162A      0.627306  
	 163A      0.634471   164A      0.639280   165A      0.646696  
	 166A      0.650566   167A      0.653603   168A      0.658741  
	 169A      0.660469   170A      0.660738   171A      0.669691  
	 172A      0.672546   173A      0.683931   174A      0.685739  
	 175A      0.691087   176A      0.697715   177A      0.704114  
	 178A      0.711061   179A      0.717688   180A      0.720932  
	 181A      0.723629   182A      0.735977   183A      0.738532  
	 184A      0.744108   185A      0.757028   186A      0.760401  
	 187A      0.768950   188A      0.771153   189A      0.772829  
	 190A      0.782963   191A      0.787804   192A      0.799802  
	 193A      0.801622   194A      0.805623   195A      0.811568  
	 196A      0.818899   197A      0.821534   198A      0.822834  
	 199A      0.828320   200A      0.835882   201A      0.839373  
	 202A      0.841220   203A      0.850432   204A      0.853522  
	 205A      0.860703   206A      0.872702   207A      0.874134  
	 208A      0.879995   209A      0.882003   210A      0.886324  
	 211A      0.896469   212A      0.901874   213A      0.910921  
	 214A      0.914187   215A      0.916871   216A      0.923341  
	 217A      0.929187   218A      0.937920   219A      0.939959  
	 220A      0.950801   221A      0.951511   222A      0.953975  
	 223A      0.960926   224A      0.969841   225A      0.978245  
	 226A      0.984423   227A      0.994069   228A      1.000340  
	 229A      1.002410   230A      1.003975   231A      1.013059  
	 232A      1.016141   233A      1.018980   234A      1.030476  
	 235A      1.033203   236A      1.042117   237A      1.045557  
	 238A      1.054192   239A      1.060099   240A      1.068072  
	 241A      1.069350   242A      1.077913   243A      1.088939  
	 244A      1.090991   245A      1.094457   246A      1.098224  
	 247A      1.101773   248A      1.105922   249A      1.111757  
	 250A      1.119664   251A      1.124218   252A      1.125007  
	 253A      1.131513   254A      1.139482   255A      1.144047  
	 256A      1.149179   257A      1.156805   258A      1.160945  
	 259A      1.166196   260A      1.168213   261A      1.175536  
	 262A      1.182225   263A      1.187910   264A      1.190010  
	 265A      1.199318   266A      1.202886   267A      1.208718  
	 268A      1.218945   269A      1.220097   270A      1.223398  
	 271A      1.228570   272A      1.236187   273A      1.239265  
	 274A      1.240266   275A      1.242092   276A      1.253391  
	 277A      1.258829   278A      1.262529   279A      1.275454  
	 280A      1.276786   281A      1.282342   282A      1.285811  
	 283A      1.289491   284A      1.293818   285A      1.298481  
	 286A      1.300534   287A      1.305916   288A      1.312235  
	 289A      1.318151   290A      1.329242   291A      1.338286  
	 292A      1.339474   293A      1.352381   294A      1.356804  
	 295A      1.364246   296A      1.370039   297A      1.376112  
	 298A      1.384592   299A      1.385636   300A      1.388815  
	 301A      1.398351   302A      1.402147   303A      1.408190  
	 304A      1.416860   305A      1.421004   306A      1.421494  
	 307A      1.431084   308A      1.440323   309A      1.454869  
	 310A      1.463346   311A      1.465566   312A      1.474479  
	 313A      1.480091   314A      1.486684   315A      1.490157  
	 316A      1.496636   317A      1.499247   318A      1.501683  
	 319A      1.517635   320A      1.522736   321A      1.527582  
	 322A      1.532632   323A      1.538802   324A      1.541951  
	 325A      1.550670   326A      1.554929   327A      1.562466  
	 328A      1.570137   329A      1.574269   330A      1.589461  
	 331A      1.596871   332A      1.606981   333A      1.608784  
	 334A      1.614279   335A      1.623349   336A      1.631528  
	 337A      1.638303   338A      1.644065   339A      1.648381  
	 340A      1.658272   341A      1.670451   342A      1.679256  
	 343A      1.685442   344A      1.697420   345A      1.701534  
	 346A      1.710686   347A      1.713014   348A      1.722554  
	 349A      1.726791   350A      1.733580   351A      1.736641  
	 352A      1.745919   353A      1.754866   354A      1.758950  
	 355A      1.767520   356A      1.771319   357A      1.779569  
	 358A      1.791770   359A      1.797833   360A      1.807096  
	 361A      1.809671   362A      1.815828   363A      1.827039  
	 364A      1.829871   365A      1.852771   366A      1.853398  
	 367A      1.862842   368A      1.866956   369A      1.875339  
	 370A      1.878711   371A      1.885621   372A      1.889982  
	 373A      1.894102   374A      1.895733   375A      1.902511  
	 376A      1.910161   377A      1.916144   378A      1.933645  
	 379A      1.937847   380A      1.948473   381A      1.951218  
	 382A      1.959004   383A      1.969052   384A      1.978431  
	 385A      1.981762   386A      1.983237   387A      2.001179  
	 388A      2.007821   389A      2.014431   390A      2.015993  
	 391A      2.025032   392A      2.035851   393A      2.038350  
	 394A      2.048239   395A      2.049131   396A      2.056134  
	 397A      2.064949   398A      2.075742   399A      2.084926  
	 400A      2.095696   401A      2.097028   402A      2.111911  
	 403A      2.120129   404A      2.133043   405A      2.138725  
	 406A      2.148354   407A      2.153835   408A      2.158874  
	 409A      2.159406   410A      2.169156   411A      2.175346  
	 412A      2.181125   413A      2.189185   414A      2.192751  
	 415A      2.196327   416A      2.209773   417A      2.219082  
	 418A      2.222901   419A      2.233020   420A      2.246242  
	 421A      2.255125   422A      2.262399   423A      2.266139  
	 424A      2.280639   425A      2.287239   426A      2.308580  
	 427A      2.315988   428A      2.319791   429A      2.331155  
	 430A      2.341542   431A      2.353243   432A      2.355068  
	 433A      2.359676   434A      2.374551   435A      2.383446  
	 436A      2.394003   437A      2.399292   438A      2.410768  
	 439A      2.417117   440A      2.426016   441A      2.426988  
	 442A      2.435737   443A      2.448675   444A      2.466281  
	 445A      2.470516   446A      2.477279   447A      2.502373  
	 448A      2.509306   449A      2.513286   450A      2.515954  
	 451A      2.539401   452A      2.541522   453A      2.546817  
	 454A      2.557777   455A      2.566767   456A      2.570907  
	 457A      2.581283   458A      2.596583   459A      2.608980  
	 460A      2.612572   461A      2.621613   462A      2.631962  
	 463A      2.637661   464A      2.640173   465A      2.644737  
	 466A      2.660713   467A      2.668781   468A      2.683889  
	 469A      2.690361   470A      2.695852   471A      2.710546  
	 472A      2.721240   473A      2.743963   474A      2.750501  
	 475A      2.761329   476A      2.767818   477A      2.775883  
	 478A      2.785598   479A      2.799582   480A      2.810388  
	 481A      2.824548   482A      2.824872   483A      2.842588  
	 484A      2.848839   485A      2.860461   486A      2.875276  
	 487A      2.878278   488A      2.881892   489A      2.893569  
	 490A      2.903252   491A      2.915375   492A      2.923018  
	 493A      2.929464   494A      2.939775   495A      2.952511  
	 496A      2.959499   497A      2.979789   498A      2.988535  
	 499A      3.007637   500A      3.011391   501A      3.025418  
	 502A      3.046470   503A      3.056192   504A      3.067611  
	 505A      3.069548   506A      3.090381   507A      3.106011  
	 508A      3.119623   509A      3.129333   510A      3.146858  
	 511A      3.150876   512A      3.169391   513A      3.179254  
	 514A      3.215232   515A      3.226003   516A      3.235401  
	 517A      3.252382   518A      3.265563   519A      3.272406  
	 520A      3.300841   521A      3.322182   522A      3.342145  
	 523A      3.356927   524A      3.368615   525A      3.388369  
	 526A      3.393791   527A      3.406627   528A      3.416481  
	 529A      3.443479   530A      3.448198   531A      3.464925  
	 532A      3.487069   533A      3.497504   534A      3.517928  
	 535A      3.533682   536A      3.535350   537A      3.550987  
	 538A      3.577480   539A      3.579501   540A      3.593562  
	 541A      3.611215   542A      3.616962   543A      3.628915  
	 544A      3.640237   545A      3.659136   546A      3.665589  
	 547A      3.680124   548A      3.708236   549A      3.714701  
	 550A      3.728684   551A      3.737781   552A      3.741475  
	 553A      3.744855   554A      3.749979   555A      3.758461  
	 556A      3.777662   557A      3.780801   558A      3.791538  
	 559A      3.801423   560A      3.819820   561A      3.821150  
	 562A      3.837498   563A      3.854565   564A      3.870193  
	 565A      3.873051   566A      3.887755   567A      3.892714  
	 568A      3.906366   569A      3.914258   570A      3.932354  
	 571A      3.942998   572A      3.948609   573A      3.964124  
	 574A      3.974366   575A      3.985300   576A      3.988490  
	 577A      3.992472   578A      4.015921   579A      4.016624  
	 580A      4.024601   581A      4.032575   582A      4.040171  
	 583A      4.064879   584A      4.070493   585A      4.072454  
	 586A      4.081960   587A      4.098621   588A      4.101681  
	 589A      4.126077   590A      4.132346   591A      4.140940  
	 592A      4.151818   593A      4.164395   594A      4.170729  
	 595A      4.183422   596A      4.202613   597A      4.209307  
	 598A      4.220180   599A      4.225984   600A      4.247212  
	 601A      4.261052   602A      4.268461   603A      4.282496  
	 604A      4.286658   605A      4.294809   606A      4.301950  
	 607A      4.310705   608A      4.316192   609A      4.330496  
	 610A      4.337851   611A      4.344386   612A      4.365883  
	 613A      4.379708   614A      4.392372   615A      4.393795  
	 616A      4.411107   617A      4.417478   618A      4.427447  
	 619A      4.442665   620A      4.453188   621A      4.462237  
	 622A      4.471126   623A      4.486663   624A      4.491302  
	 625A      4.498741   626A      4.511730   627A      4.519964  
	 628A      4.525762   629A      4.539043   630A      4.546319  
	 631A      4.550696   632A      4.559133   633A      4.564312  
	 634A      4.571149   635A      4.580991   636A      4.588044  
	 637A      4.596369   638A      4.620513   639A      4.637052  
	 640A      4.657130   641A      4.660645   642A      4.688634  
	 643A      4.694485   644A      4.698322   645A      4.718557  
	 646A      4.730506   647A      4.743288   648A      4.748623  
	 649A      4.778278   650A      4.806697   651A      4.827607  
	 652A      4.837310   653A      4.853789   654A      4.857154  
	 655A      4.862173   656A      4.880485   657A      4.891968  
	 658A      4.903879   659A      4.905651   660A      4.929181  
	 661A      4.947464   662A      4.961873   663A      4.966286  
	 664A      4.983252   665A      4.991502   666A      4.995246  
	 667A      5.004574   668A      5.016965   669A      5.019606  
	 670A      5.041374   671A      5.042103   672A      5.052569  
	 673A      5.072571   674A      5.082728   675A      5.096409  
	 676A      5.115221   677A      5.124267   678A      5.132344  
	 679A      5.145011   680A      5.161617   681A      5.165481  
	 682A      5.180376   683A      5.188209   684A      5.199237  
	 685A      5.213375   686A      5.222072   687A      5.231253  
	 688A      5.247277   689A      5.256451   690A      5.257871  
	 691A      5.276880   692A      5.280756   693A      5.302231  
	 694A      5.311736   695A      5.315777   696A      5.339345  
	 697A      5.346553   698A      5.351175   699A      5.352328  
	 700A      5.370799   701A      5.386264   702A      5.394513  
	 703A      5.414868   704A      5.419509   705A      5.432583  
	 706A      5.443900   707A      5.457140   708A      5.472009  
	 709A      5.483673   710A      5.489751   711A      5.501582  
	 712A      5.518212   713A      5.525494   714A      5.537114  
	 715A      5.563716   716A      5.567595   717A      5.579841  
	 718A      5.585595   719A      5.607620   720A      5.615514  
	 721A      5.625793   722A      5.640176   723A      5.665200  
	 724A      5.687567   725A      5.707995   726A      5.732650  
	 727A      5.733492   728A      5.747333   729A      5.759324  
	 730A      5.790322   731A      5.801458   732A      5.818863  
	 733A      5.840194   734A      5.863863   735A      5.886073  
	 736A      5.893982   737A      5.912530   738A      5.926488  
	 739A      5.935894   740A      5.959147   741A      5.977053  
	 742A      5.989071   743A      6.002806   744A      6.021630  
	 745A      6.025299   746A      6.054829   747A      6.066183  
	 748A      6.091409   749A      6.137939   750A      6.209137  
	 751A      6.240829   752A      6.291766   753A      6.307280  
	 754A      6.310340   755A      6.349527   756A      6.360388  
	 757A      6.378952   758A      6.426447   759A      6.442970  
	 760A      6.450539   761A      6.462417   762A      6.479981  
	 763A      6.490890   764A      6.533002   765A      6.592224  
	 766A      6.595111   767A      6.639976   768A      6.663705  
	 769A      6.709759   770A      6.723195   771A      6.753335  
	 772A      6.763675   773A      6.773678   774A      6.824634  
	 775A      6.838322   776A      6.893088   777A      6.953883  
	 778A      6.977050   779A      7.019230   780A      7.028905  
	 781A      7.061467   782A      7.071451   783A      7.083227  
	 784A      7.121647   785A      7.183307   786A      7.272304  
	 787A      7.335733   788A      7.405118   789A      7.456610  
	 790A      7.468798   791A      7.508205   792A      7.524403  
	 793A      7.604311   794A      7.666325   795A      7.709724  
	 796A      7.734738   797A      7.747295   798A      7.769224  
	 799A      7.802738   800A      7.828568   801A      7.848683  
	 802A      7.876393   803A      7.896935   804A      7.955232  
	 805A      7.975257   806A      8.000713   807A      8.029642  
	 808A      8.059135   809A      8.064482   810A      8.104424  
	 811A      8.131308   812A      8.146799   813A      8.170733  
	 814A      8.238901   815A      8.359284   816A      8.377422  
	 817A      8.413784   818A      8.452734   819A      8.490301  
	 820A      8.513919   821A      8.666763   822A      8.806184  
	 823A      8.821015   824A      8.850496   825A      9.012380  
	 826A      9.137828   827A      9.202744   828A      9.304146  
	 829A      9.388925   830A      9.770454   831A      9.850943  
	 832A     10.028680   833A     10.111098   834A     10.149710  
	 835A     10.172859   836A     10.229460   837A     10.383598  
	 838A     10.423270   839A     10.449646   840A     10.505636  
	 841A     10.553162   842A     10.580181   843A     10.671060  
	 844A     10.744377   845A     11.164246   846A     11.391587  
	 847A     11.531382   848A     11.663289   849A     12.214050  
	 850A     12.278202   851A     12.335798   852A     12.401109  
	 853A     12.711286   854A     12.832729   855A     12.885846  
	 856A     13.025598   857A     13.697294   858A     13.962745  
	 859A     14.326791   860A     14.383937   861A     16.818640  
	 862A     16.831205   863A     19.880605   864A     20.835541  
	 865A     20.944572   866A     21.094610   867A     53.248174  
	 868A     53.872259   869A     56.313798   870A     58.085616  
	 871A     62.650621   872A     63.658285   873A     71.349656  
	 874A     72.132782  

	Final Occupation by Irrep:
	          A 
	DOCC [    21 ]

  Energy converged.

  @RHF Final Energy:  -230.78176630936011

   => Energetics <=

    Nuclear Repulsion Energy =            203.6513450320346408
    One-Electron Energy =                -713.7599026641596538
    Two-Electron Energy =                 279.3267913227660983
    DFT Exchange-Correlation Energy =       0.0000000000000000
    Empirical Dispersion Energy =           0.0000000000000000
    Total Energy =                       -230.7817663093588862



Properties will be evaluated at   0.000000,   0.000000,   0.000000 Bohr
  ==> Properties <==


Properties computed using the SCF density density matrix
  Nuclear Dipole Moment: (a.u.)
     X:    -4.2904      Y:    12.0735      Z:  -113.3817

  Electronic Dipole Moment: (a.u.)
     X:     4.2901      Y:   -12.0723      Z:   113.3890

  Dipole Moment: (a.u.)
     X:    -0.0004      Y:     0.0011      Z:     0.0073     Total:     0.0074

  Dipole Moment: (Debye)
     X:    -0.0010      Y:     0.0029      Z:     0.0186     Total:     0.0189


  Saving occupied orbitals to File 180.

  Saving SAPT 2-MONOMER_A file.

*** tstop() called on node36.bme.utexas.edu at Tue Feb 25 02:42:26 2014
Module time:
	user time   =    1149.53 seconds =      19.16 minutes
	system time =      18.28 seconds =       0.30 minutes
	total time  =        314 seconds =       5.23 minutes
Total time:
	user time   =    2877.94 seconds =      47.97 minutes
	system time =      36.46 seconds =       0.61 minutes
	total time  =        781 seconds =      13.02 minutes

  //>>>>>>>>>>>>>>>>>>>>>>>>>>>>>>>>>>>//
  //            Monomer B HF           //
  //<<<<<<<<<<<<<<<<<<<<<<<<<<<<<<<<<<<//


  No DF_BASIS_SCF auxiliary basis selected, defaulting to aug-cc-pvtz-jkfit


*** tstart() called on node36.bme.utexas.edu
*** at Tue Feb 25 02:42:26 2014


         ---------------------------------------------------------
                                   SCF
            by Justin Turney, Rob Parrish, and Andy Simmonett
                              RHF Reference
                        4 Threads,  30000 MiB Core
         ---------------------------------------------------------

  ==> Geometry <==

    Molecular point group: c1
    Full point group: C1

    Geometry (in Angstrom), charge = 0, multiplicity = 1:

       Center              X                  Y                   Z       
    ------------   -----------------  -----------------  -----------------
           C(Gh)      0.843003599173     1.218050085349    -1.501082746376
           H(Gh)      1.538247662173     2.044650444349    -1.543303757376
           C(Gh)      1.317394418173    -0.081415630651    -1.333576296376
           H(Gh)      2.380892022173    -0.260735882651    -1.253158112376
           C(Gh)      0.420757611173    -1.147026933651    -1.262587452376
           H(Gh)      0.790987870173    -2.155901519651    -1.136711218376
           C(Gh)     -0.950574999827    -0.913665240651    -1.357692368376
           H(Gh)     -1.647974505827    -1.738458173651    -1.300404863376
           C(Gh)     -1.426273884827     0.386008527349    -1.523273611376
           H(Gh)     -2.490276750827     0.567026372349    -1.584982472376
           C(Gh)     -0.528520998827     1.450293996349    -1.597079717376
           H(Gh)     -0.896987409827     2.458947449349    -1.728687473376
           N         -0.293879944827     0.754960083349     0.801254695624
           H         -0.667187337827     1.656721513349     0.538361724624
           C          1.098266737173     0.681973177349     0.933268034624
           O          1.789177056173     1.676396869349     0.788433969624
           C          1.577166851173    -0.652104531651     1.251378236624
           H          2.634218945173    -0.804320470651     1.385499372624
           C          0.697457624173    -1.666485707651     1.377594761624
           H          1.003385145173    -2.674906316651     1.614119122624
           N         -0.647788262827    -1.481453787651     1.207502618624
           H         -1.296536093827    -2.244012730651     1.306371789624
           C         -1.222236571827    -0.256652759651     0.908088002624
           O         -2.420024983827    -0.105829484651     0.765975810624

  Running in c1 symmetry.

  Nuclear repulsion =  357.169481317076190

  Charge       = 0
  Multiplicity = 1
  Electrons    = 58
  Nalpha       = 29
  Nbeta        = 29

  ==> Algorithm <==

  SCF Algorithm Type is DF.
  DIIS enabled.
  MOM disabled.
  Fractional occupation disabled.
  Guess Type is CORE.
  Energy threshold   = 1.00e-08
  Density threshold  = 1.00e-08
  Integral threshold = 0.00e+00

  ==> Primary Basis <==

  Basis Set: AUG-CC-PVTZ
    Number of shells: 286
    Number of basis function: 874
    Number of Cartesian functions: 1020
    Spherical Harmonics?: true
    Max angular momentum: 3

  ==> Pre-Iterations <==

   -------------------------------------------------------
    Irrep   Nso     Nmo     Nalpha   Nbeta   Ndocc  Nsocc
   -------------------------------------------------------
     A        874     874       0       0       0       0
   -------------------------------------------------------
    Total     874     874      29      29      29       0
   -------------------------------------------------------

 OEINTS: Wrapper to libmints.
   by Justin Turney

   Calculation information:
      Number of atoms:                  24
      Number of AO shells:             286
      Number of SO shells:             286
      Number of primitives:            530
      Number of atomic orbitals:      1020
      Number of basis functions:       874

      Number of irreps:                  1
      Number of functions per irrep: [ 874 ]

      Overlap, kinetic, potential, dipole, and quadrupole integrals
        stored in file 35.

  ==> Integral Setup <==

  ==> DFJK: Density-Fitted J/K Matrices <==

    J tasked:                  Yes
    K tasked:                  Yes
    wK tasked:                  No
    OpenMP threads:              4
    Integrals threads:           4
    Memory (MB):             21457
    Algorithm:                Core
    Integral Cache:           LOAD
    Schwarz Cutoff:          0E+00
    Fitting Condition:       1E-12

   => Auxiliary Basis Set <=

  Basis Set: aug-cc-pvtz-jkfit
    Number of shells: 560
    Number of basis function: 1916
    Number of Cartesian functions: 2384
    Spherical Harmonics?: true
    Max angular momentum: 4

  Minimum eigenvalue in the overlap matrix is 1.7198436371E-07.
  Using Symmetric Orthogonalization.
  SCF Guess: Core (One-Electron) Hamiltonian.

  Guess energy:  -324.02070388755300

  ==> Iterations <==

                        Total Energy        Delta E     RMS |[F,P]|

   @RHF iter   1:  -319.53897548100571   -3.19539e+02   1.78435e-02 
   @RHF iter   2:  -286.81428563779644    3.27247e+01   1.07838e-02 DIIS
   @RHF iter   3:  -297.84700464898964   -1.10327e+01   1.27966e-02 DIIS
   @RHF iter   4:  -391.73672879297868   -9.38897e+01   6.16360e-03 DIIS
   @RHF iter   5:  -389.05372981489330    2.68300e+00   5.84756e-03 DIIS
   @RHF iter   6:  -409.77100272407273   -2.07173e+01   2.67104e-03 DIIS
   @RHF iter   7:  -412.41345420911551   -2.64245e+00   6.39663e-04 DIIS
   @RHF iter   8:  -412.58608451409663   -1.72630e-01   2.56177e-04 DIIS
   @RHF iter   9:  -412.61594924162222   -2.98647e-02   1.10294e-04 DIIS
   @RHF iter  10:  -412.62309435814421   -7.14512e-03   4.74619e-05 DIIS
   @RHF iter  11:  -412.62454893722673   -1.45458e-03   2.55790e-05 DIIS
   @RHF iter  12:  -412.62519515482614   -6.46218e-04   9.03114e-06 DIIS
   @RHF iter  13:  -412.62525779016477   -6.26353e-05   3.62408e-06 DIIS
   @RHF iter  14:  -412.62526289030535   -5.10014e-06   9.07167e-07 DIIS
   @RHF iter  15:  -412.62526332265514   -4.32350e-07   2.28690e-07 DIIS
   @RHF iter  16:  -412.62526335528122   -3.26261e-08   9.06577e-08 DIIS
   @RHF iter  17:  -412.62526336072182   -5.44060e-09   3.35080e-08 DIIS
   @RHF iter  18:  -412.62526336182958   -1.10776e-09   1.37015e-08 DIIS
   @RHF iter  19:  -412.62526336201762   -1.88038e-10   4.49227e-09 DIIS

  ==> Post-Iterations <==

	Orbital Energies (a.u.)
	-----------------------

	Doubly Occupied:                                                      

	   1A    -20.548026     2A    -20.542216     3A    -15.645053  
	   4A    -15.628712     5A    -11.419749     6A    -11.381499  
	   7A    -11.341256     8A    -11.255903     9A     -1.437352  
	  10A     -1.398702    11A     -1.314459    12A     -1.247778  
	  13A     -1.088906    14A     -0.934268    15A     -0.903339  
	  16A     -0.808059    17A     -0.766037    18A     -0.715586  
	  19A     -0.678522    20A     -0.670003    21A     -0.653548  
	  22A     -0.615573    23A     -0.602218    24A     -0.571522  
	  25A     -0.527020    26A     -0.484528    27A     -0.450274  
	  28A     -0.438135    29A     -0.369429  

	Virtual:                                                              

	  30A      0.012850    31A      0.028630    32A      0.031451  
	  33A      0.034727    34A      0.044785    35A      0.046522  
	  36A      0.050988    37A      0.054303    38A      0.061022  
	  39A      0.068385    40A      0.069298    41A      0.079185  
	  42A      0.082125    43A      0.085391    44A      0.088810  
	  45A      0.096510    46A      0.098811    47A      0.102693  
	  48A      0.103768    49A      0.105898    50A      0.115250  
	  51A      0.115972    52A      0.122664    53A      0.124597  
	  54A      0.130477    55A      0.131604    56A      0.139835  
	  57A      0.141375    58A      0.143345    59A      0.146381  
	  60A      0.148668    61A      0.149802    62A      0.151796  
	  63A      0.155944    64A      0.159644    65A      0.163861  
	  66A      0.166248    67A      0.173213    68A      0.176911  
	  69A      0.180617    70A      0.184770    71A      0.190348  
	  72A      0.196104    73A      0.198359    74A      0.200435  
	  75A      0.202359    76A      0.205511    77A      0.210961  
	  78A      0.212823    79A      0.223089    80A      0.229655  
	  81A      0.232311    82A      0.233785    83A      0.246807  
	  84A      0.247427    85A      0.249682    86A      0.258315  
	  87A      0.267000    88A      0.272759    89A      0.277036  
	  90A      0.278982    91A      0.285946    92A      0.287991  
	  93A      0.292148    94A      0.294728    95A      0.298726  
	  96A      0.299564    97A      0.302771    98A      0.306489  
	  99A      0.311987   100A      0.321529   101A      0.327354  
	 102A      0.333745   103A      0.337406   104A      0.341407  
	 105A      0.347854   106A      0.350770   107A      0.351702  
	 108A      0.355164   109A      0.361622   110A      0.365946  
	 111A      0.370874   112A      0.372486   113A      0.376094  
	 114A      0.383058   115A      0.389724   116A      0.392939  
	 117A      0.396731   118A      0.399430   119A      0.405945  
	 120A      0.412392   121A      0.414491   122A      0.418962  
	 123A      0.424504   124A      0.428815   125A      0.431651  
	 126A      0.433223   127A      0.435542   128A      0.440677  
	 129A      0.443578   130A      0.448948   131A      0.450690  
	 132A      0.454806   133A      0.463731   134A      0.468775  
	 135A      0.471564   136A      0.474859   137A      0.481910  
	 138A      0.488253   139A      0.491899   140A      0.495740  
	 141A      0.499806   142A      0.502815   143A      0.506608  
	 144A      0.509386   145A      0.511847   146A      0.514526  
	 147A      0.517017   148A      0.518763   149A      0.525238  
	 150A      0.529425   151A      0.533751   152A      0.538277  
	 153A      0.540906   154A      0.554115   155A      0.556646  
	 156A      0.567198   157A      0.575745   158A      0.579247  
	 159A      0.584461   160A      0.588532   161A      0.593215  
	 162A      0.596295   163A      0.601321   164A      0.606990  
	 165A      0.610115   166A      0.617167   167A      0.622633  
	 168A      0.627041   169A      0.628726   170A      0.631737  
	 171A      0.638317   172A      0.642648   173A      0.645761  
	 174A      0.648588   175A      0.654300   176A      0.656987  
	 177A      0.664775   178A      0.668561   179A      0.675100  
	 180A      0.675412   181A      0.682354   182A      0.688553  
	 183A      0.691070   184A      0.695704   185A      0.699155  
	 186A      0.704090   187A      0.709871   188A      0.716882  
	 189A      0.717369   190A      0.722372   191A      0.729757  
	 192A      0.737865   193A      0.747469   194A      0.750861  
	 195A      0.753725   196A      0.758461   197A      0.760670  
	 198A      0.764311   199A      0.772188   200A      0.778700  
	 201A      0.780827   202A      0.783077   203A      0.786851  
	 204A      0.792030   205A      0.793445   206A      0.801636  
	 207A      0.809236   208A      0.816870   209A      0.820719  
	 210A      0.822685   211A      0.827692   212A      0.834528  
	 213A      0.842452   214A      0.851562   215A      0.854403  
	 216A      0.860331   217A      0.866479   218A      0.873701  
	 219A      0.882412   220A      0.884485   221A      0.894607  
	 222A      0.901052   223A      0.903821   224A      0.910111  
	 225A      0.913371   226A      0.921858   227A      0.922533  
	 228A      0.927942   229A      0.935114   230A      0.938694  
	 231A      0.942012   232A      0.954926   233A      0.957761  
	 234A      0.964073   235A      0.971215   236A      0.980798  
	 237A      0.989873   238A      0.993062   239A      0.996851  
	 240A      0.999287   241A      1.010483   242A      1.011605  
	 243A      1.019470   244A      1.021320   245A      1.038157  
	 246A      1.046369   247A      1.047237   248A      1.053943  
	 249A      1.064478   250A      1.074492   251A      1.076336  
	 252A      1.082614   253A      1.087840   254A      1.093227  
	 255A      1.097676   256A      1.103953   257A      1.109834  
	 258A      1.112185   259A      1.120352   260A      1.123927  
	 261A      1.128483   262A      1.134817   263A      1.138825  
	 264A      1.143643   265A      1.151979   266A      1.156103  
	 267A      1.160933   268A      1.170056   269A      1.176196  
	 270A      1.178991   271A      1.184785   272A      1.190293  
	 273A      1.196053   274A      1.205445   275A      1.208600  
	 276A      1.215647   277A      1.220295   278A      1.228255  
	 279A      1.229344   280A      1.235415   281A      1.240432  
	 282A      1.245822   283A      1.249068   284A      1.255540  
	 285A      1.264460   286A      1.274092   287A      1.277981  
	 288A      1.281298   289A      1.287650   290A      1.300759  
	 291A      1.305495   292A      1.309491   293A      1.313301  
	 294A      1.317264   295A      1.325150   296A      1.327976  
	 297A      1.331945   298A      1.339103   299A      1.342336  
	 300A      1.349409   301A      1.353741   302A      1.356622  
	 303A      1.363996   304A      1.371292   305A      1.378132  
	 306A      1.382765   307A      1.385350   308A      1.389759  
	 309A      1.404467   310A      1.407894   311A      1.413108  
	 312A      1.415219   313A      1.423722   314A      1.429964  
	 315A      1.433533   316A      1.436297   317A      1.445329  
	 318A      1.452058   319A      1.457450   320A      1.468530  
	 321A      1.471054   322A      1.475016   323A      1.479441  
	 324A      1.483864   325A      1.495404   326A      1.502126  
	 327A      1.509243   328A      1.510860   329A      1.524936  
	 330A      1.529922   331A      1.538435   332A      1.544473  
	 333A      1.546779   334A      1.551981   335A      1.562082  
	 336A      1.564011   337A      1.576512   338A      1.578577  
	 339A      1.582486   340A      1.582950   341A      1.592606  
	 342A      1.596422   343A      1.602749   344A      1.612162  
	 345A      1.617060   346A      1.627828   347A      1.630755  
	 348A      1.637825   349A      1.644814   350A      1.647176  
	 351A      1.653557   352A      1.658695   353A      1.663532  
	 354A      1.668965   355A      1.675930   356A      1.684609  
	 357A      1.688076   358A      1.691543   359A      1.694147  
	 360A      1.704213   361A      1.712295   362A      1.727221  
	 363A      1.730748   364A      1.736493   365A      1.744984  
	 366A      1.752534   367A      1.765748   368A      1.771071  
	 369A      1.774578   370A      1.781585   371A      1.784535  
	 372A      1.795137   373A      1.807248   374A      1.810226  
	 375A      1.830324   376A      1.830747   377A      1.838452  
	 378A      1.847285   379A      1.853136   380A      1.863021  
	 381A      1.869839   382A      1.880997   383A      1.883627  
	 384A      1.890587   385A      1.900065   386A      1.905997  
	 387A      1.911401   388A      1.922051   389A      1.931343  
	 390A      1.933127   391A      1.945885   392A      1.952626  
	 393A      1.961140   394A      1.970975   395A      1.973147  
	 396A      1.982492   397A      1.982768   398A      1.999987  
	 399A      2.004649   400A      2.012869   401A      2.019753  
	 402A      2.028478   403A      2.037997   404A      2.040354  
	 405A      2.049331   406A      2.060680   407A      2.065216  
	 408A      2.078919   409A      2.085628   410A      2.090818  
	 411A      2.096568   412A      2.101165   413A      2.119391  
	 414A      2.124324   415A      2.129044   416A      2.136158  
	 417A      2.148993   418A      2.164336   419A      2.168656  
	 420A      2.174616   421A      2.187435   422A      2.195322  
	 423A      2.200016   424A      2.205205   425A      2.211945  
	 426A      2.218558   427A      2.229053   428A      2.246194  
	 429A      2.248677   430A      2.263475   431A      2.268777  
	 432A      2.275425   433A      2.282020   434A      2.294660  
	 435A      2.297467   436A      2.305728   437A      2.321104  
	 438A      2.329727   439A      2.345540   440A      2.348377  
	 441A      2.360274   442A      2.365900   443A      2.373906  
	 444A      2.380829   445A      2.395671   446A      2.400770  
	 447A      2.402263   448A      2.411761   449A      2.420927  
	 450A      2.429697   451A      2.433423   452A      2.441075  
	 453A      2.458034   454A      2.461158   455A      2.480045  
	 456A      2.485822   457A      2.491379   458A      2.501575  
	 459A      2.505984   460A      2.512034   461A      2.515951  
	 462A      2.534172   463A      2.535508   464A      2.539129  
	 465A      2.550763   466A      2.554015   467A      2.562033  
	 468A      2.573200   469A      2.585320   470A      2.589498  
	 471A      2.596564   472A      2.605219   473A      2.611758  
	 474A      2.622262   475A      2.627678   476A      2.638570  
	 477A      2.646804   478A      2.650340   479A      2.662146  
	 480A      2.676464   481A      2.685080   482A      2.691693  
	 483A      2.699022   484A      2.702077   485A      2.708816  
	 486A      2.715432   487A      2.722178   488A      2.735649  
	 489A      2.737831   490A      2.746610   491A      2.767836  
	 492A      2.770341   493A      2.776805   494A      2.789964  
	 495A      2.807235   496A      2.811134   497A      2.826735  
	 498A      2.837812   499A      2.851620   500A      2.859509  
	 501A      2.873421   502A      2.878756   503A      2.893173  
	 504A      2.908871   505A      2.918212   506A      2.928708  
	 507A      2.934315   508A      2.946907   509A      2.956470  
	 510A      2.966504   511A      2.970012   512A      2.975942  
	 513A      2.987880   514A      3.000427   515A      3.008732  
	 516A      3.021202   517A      3.043020   518A      3.050395  
	 519A      3.073496   520A      3.078992   521A      3.089185  
	 522A      3.104036   523A      3.115540   524A      3.123996  
	 525A      3.144558   526A      3.155661   527A      3.163735  
	 528A      3.181128   529A      3.197173   530A      3.204020  
	 531A      3.229407   532A      3.245604   533A      3.247450  
	 534A      3.253952   535A      3.275606   536A      3.288822  
	 537A      3.312463   538A      3.325071   539A      3.344313  
	 540A      3.356253   541A      3.379388   542A      3.407813  
	 543A      3.426690   544A      3.444112   545A      3.490781  
	 546A      3.504632   547A      3.536432   548A      3.551056  
	 549A      3.562073   550A      3.567514   551A      3.579637  
	 552A      3.600185   553A      3.625300   554A      3.633108  
	 555A      3.654242   556A      3.663833   557A      3.677062  
	 558A      3.711112   559A      3.720729   560A      3.733051  
	 561A      3.753471   562A      3.781109   563A      3.789911  
	 564A      3.797990   565A      3.805664   566A      3.836811  
	 567A      3.856010   568A      3.862914   569A      3.887030  
	 570A      3.892954   571A      3.905023   572A      3.913421  
	 573A      3.925723   574A      3.946414   575A      3.951973  
	 576A      3.971043   577A      3.977203   578A      3.978658  
	 579A      3.995103   580A      4.021233   581A      4.028813  
	 582A      4.032085   583A      4.048027   584A      4.070890  
	 585A      4.080117   586A      4.089220   587A      4.108140  
	 588A      4.118347   589A      4.133026   590A      4.140803  
	 591A      4.148029   592A      4.170970   593A      4.191671  
	 594A      4.195014   595A      4.210350   596A      4.218446  
	 597A      4.228596   598A      4.243940   599A      4.265800  
	 600A      4.273865   601A      4.281694   602A      4.283688  
	 603A      4.298714   604A      4.308982   605A      4.312073  
	 606A      4.320739   607A      4.330971   608A      4.336908  
	 609A      4.355583   610A      4.369157   611A      4.383464  
	 612A      4.385695   613A      4.391469   614A      4.409838  
	 615A      4.412199   616A      4.416260   617A      4.432486  
	 618A      4.437800   619A      4.443108   620A      4.453460  
	 621A      4.461459   622A      4.474048   623A      4.479298  
	 624A      4.487652   625A      4.497284   626A      4.518093  
	 627A      4.534072   628A      4.542361   629A      4.578119  
	 630A      4.589529   631A      4.596033   632A      4.609539  
	 633A      4.613241   634A      4.620071   635A      4.642143  
	 636A      4.650003   637A      4.655526   638A      4.661746  
	 639A      4.681309   640A      4.695640   641A      4.705811  
	 642A      4.714313   643A      4.715226   644A      4.729477  
	 645A      4.740580   646A      4.758577   647A      4.763932  
	 648A      4.765213   649A      4.785285   650A      4.803724  
	 651A      4.814216   652A      4.819721   653A      4.832336  
	 654A      4.845499   655A      4.856129   656A      4.864258  
	 657A      4.880284   658A      4.889664   659A      4.905594  
	 660A      4.924152   661A      4.929102   662A      4.939951  
	 663A      4.945198   664A      4.958533   665A      4.968459  
	 666A      4.973248   667A      4.998395   668A      5.008066  
	 669A      5.011442   670A      5.030425   671A      5.035617  
	 672A      5.036940   673A      5.068093   674A      5.070432  
	 675A      5.083864   676A      5.100634   677A      5.111912  
	 678A      5.113958   679A      5.122960   680A      5.141823  
	 681A      5.147745   682A      5.158240   683A      5.166942  
	 684A      5.176237   685A      5.185616   686A      5.192519  
	 687A      5.197483   688A      5.214492   689A      5.226428  
	 690A      5.235243   691A      5.239645   692A      5.254458  
	 693A      5.274739   694A      5.287788   695A      5.300240  
	 696A      5.303683   697A      5.309910   698A      5.319137  
	 699A      5.329446   700A      5.337348   701A      5.346647  
	 702A      5.367867   703A      5.374474   704A      5.380338  
	 705A      5.407150   706A      5.420969   707A      5.440685  
	 708A      5.458663   709A      5.468856   710A      5.485640  
	 711A      5.491114   712A      5.500504   713A      5.510827  
	 714A      5.527829   715A      5.531158   716A      5.558104  
	 717A      5.587392   718A      5.594885   719A      5.607748  
	 720A      5.625963   721A      5.632241   722A      5.639252  
	 723A      5.660024   724A      5.670864   725A      5.675280  
	 726A      5.686304   727A      5.704720   728A      5.719215  
	 729A      5.725114   730A      5.741146   731A      5.752416  
	 732A      5.778398   733A      5.779870   734A      5.788850  
[...]
     420A      2.015714   421A      2.016621   422A      2.022143  
     423A      2.037517   424A      2.101310   425A      2.108981  
     426A      2.111176   427A      2.112327   428A      2.124736  
     429A      2.131273   430A      2.142278   431A      2.150315  
     432A      2.155136   433A      2.156826   434A      2.158588  
     435A      2.161218   436A      2.164710   437A      2.166267  
     438A      2.170910   439A      2.181058   440A      2.183228  
     441A      2.196109   442A      2.203870   443A      2.211582  
     444A      2.211814   445A      2.221046   446A      2.230309  
     447A      2.232765   448A      2.234580   449A      2.254086  
     450A      2.265701   451A      2.281327   452A      2.292122  
     453A      2.298044   454A      2.303326   455A      2.324537  
     456A      2.327180   457A      2.329257   458A      2.331201  
     459A      2.337785   460A      2.340614   461A      2.341328  
     462A      2.348118   463A      2.353601   464A      2.356307  
     465A      2.358318   466A      2.364032   467A      2.368745  
     468A      2.379958   469A      2.382551   470A      2.388550  
     471A      2.405792   472A      2.410252   473A      2.418734  
     474A      2.441994   475A      2.457094   476A      2.459857  
     477A      2.460631   478A      2.477510   479A      2.489762  
     480A      2.493703   481A      2.508013   482A      2.508588  
     483A      2.514871   484A      2.520463   485A      2.521719  
     486A      2.528475   487A      2.538363   488A      2.543218  
     489A      2.546318   490A      2.548903   491A      2.553565  
     492A      2.554555   493A      2.576646   494A      2.582582  
     495A      2.587905   496A      2.601595   497A      2.610490  
     498A      2.618631   499A      2.622393   500A      2.630737  
     501A      2.648283   502A      2.671681   503A      2.683133  
     504A      2.688100   505A      2.705766   506A      2.710423  
     507A      2.740044   508A      2.743291   509A      2.763190  
     510A      2.769038   511A      2.779059   512A      2.785276  
     513A      2.791664   514A      2.827747   515A      2.831044  
     516A      2.834633   517A      2.836862   518A      2.856698  
     519A      2.861910   520A      2.874521   521A      2.881260  
     522A      2.882238   523A      2.883882   524A      2.916998  
     525A      2.930456   526A      2.937314   527A      2.972263  
     528A      2.984348   529A      3.006979   530A      3.018285  
     531A      3.021621   532A      3.036552   533A      3.051114  
     534A      3.101710   535A      3.126065   536A      3.129286  
     537A      3.133136   538A      3.136528   539A      3.180518  
     540A      3.199188   541A      3.216676   542A      3.259622  
     543A      3.261649   544A      3.267123   545A      3.284096  
     546A      3.285729   547A      3.290804   548A      3.296947  
     549A      3.341362   550A      3.367919   551A      3.425013  
     552A      3.434505   553A      3.442458   554A      3.476011  
     555A      3.481357   556A      3.494541   557A      3.496668  
     558A      3.516627   559A      3.539975   560A      3.542881  
     561A      3.579885   562A      3.591587   563A      3.606417  
     564A      3.623140   565A      3.644536   566A      3.651461  
     567A      3.682797   568A      3.695558   569A      3.720328  
     570A      3.748956   571A      3.756217   572A      3.766964  
     573A      3.776939   574A      3.790103   575A      3.801928  
     576A      3.805224   577A      3.818161   578A      3.831042  
     579A      3.854741   580A      3.860792   581A      3.874896  
     582A      3.889568   583A      3.895597   584A      3.926853  
     585A      3.936211   586A      3.947885   587A      3.953511  
     588A      3.984557   589A      3.989474   590A      3.997824  
     591A      4.000046   592A      4.010759   593A      4.012217  
     594A      4.034423   595A      4.034973   596A      4.052593  
     597A      4.056988   598A      4.059135   599A      4.059437  
     600A      4.070106   601A      4.080146   602A      4.088584  
     603A      4.089441   604A      4.122789   605A      4.129813  
     606A      4.133102   607A      4.136990   608A      4.156581  
     609A      4.173473   610A      4.177660   611A      4.178340  
     612A      4.199833   613A      4.208646   614A      4.214446  
     615A      4.215129   616A      4.215261   617A      4.225748  
     618A      4.252055   619A      4.259474   620A      4.273290  
     621A      4.281852   622A      4.285609   623A      4.292711  
     624A      4.293661   625A      4.294683   626A      4.304864  
     627A      4.306915   628A      4.317091   629A      4.340635  
     630A      4.349025   631A      4.351620   632A      4.352453  
     633A      4.366299   634A      4.376329   635A      4.377602  
     636A      4.383505   637A      4.423383   638A      4.430676  
     639A      4.439982   640A      4.444933   641A      4.467174  
     642A      4.480384   643A      4.493745   644A      4.494867  
     645A      4.506499   646A      4.526065   647A      4.560332  
     648A      4.561853   649A      4.563804   650A      4.566424  
     651A      4.569504   652A      4.571199   653A      4.575373  
     654A      4.584088   655A      4.584206   656A      4.610834  
     657A      4.628059   658A      4.635411   659A      4.637352  
     660A      4.645757   661A      4.647190   662A      4.677358  
     663A      4.687947   664A      4.700443   665A      4.709157  
     666A      4.709754   667A      4.751635   668A      4.761719  
     669A      4.764678   670A      4.786266   671A      4.795305  
     672A      4.798616   673A      4.819154   674A      4.856090  
     675A      4.867448   676A      4.892535   677A      4.896705  
     678A      4.918868   679A      4.923725   680A      4.926673  
     681A      4.959064   682A      4.971774   683A      4.972633  
     684A      4.975784   685A      4.977618   686A      5.010029  
     687A      5.031251   688A      5.044946   689A      5.062502  
     690A      5.063198   691A      5.080536   692A      5.091263  
     693A      5.102852   694A      5.110026   695A      5.111482  
     696A      5.111845   697A      5.118852   698A      5.128207  
     699A      5.132805   700A      5.144202   701A      5.150146  
     702A      5.161196   703A      5.177535   704A      5.180620  
     705A      5.204391   706A      5.211280   707A      5.214328  
     708A      5.218793   709A      5.244429   710A      5.268490  
     711A      5.274605   712A      5.276471   713A      5.325175  
     714A      5.366946   715A      5.409205   716A      5.411051  
     717A      5.416696   718A      5.419363   719A      5.421427  
     720A      5.448414   721A      5.450327   722A      5.478278  
     723A      5.486950   724A      5.488171   725A      5.491814  
     726A      5.500338   727A      5.507810   728A      5.524420  
     729A      5.529746   730A      5.530696   731A      5.553386  
     732A      5.600928   733A      5.621113   734A      5.630620  
     735A      5.632977   736A      5.646326   737A      5.653398  
     738A      5.663091   739A      5.666388   740A      5.693836  
     741A      5.701266   742A      5.727115   743A      5.727820  
     744A      5.737254   745A      5.746242   746A      5.760996  
     747A      5.769952   748A      5.779847   749A      5.783460  
     750A      5.791881   751A      5.796583   752A      5.797388  
     753A      5.797984   754A      5.807044   755A      5.818260  
     756A      5.858326   757A      5.868181   758A      5.908959  
     759A      5.963287   760A      5.964617   761A      5.986163  
     762A      6.005979   763A      6.006522   764A      6.009599  
     765A      6.022180   766A      6.037080   767A      6.090704  
     768A      6.107688   769A      6.136715   770A      6.137724  
     771A      6.175328   772A      6.178874   773A      6.186539  
     774A      6.194321   775A      6.195896   776A      6.198652  
     777A      6.214129   778A      6.262976   779A      6.270511  
     780A      6.317423   781A      6.429550   782A      6.438543  
     783A      6.466068   784A      6.471573   785A      6.524639  
     786A      6.551466   787A      6.584217   788A      6.630057  
     789A      6.656364   790A      6.668290   791A      6.707381  
     792A      6.711091   793A      6.736082   794A      6.744463  
     795A      6.770985   796A      6.777050   797A      6.809381  
     798A      6.839800   799A      6.851537   800A      6.865772  
     801A      6.887294   802A      6.892884   803A      6.938384  
     804A      6.956302   805A      6.987229   806A      6.990390  
     807A      7.005882   808A      7.062546   809A      7.062896  
     810A      7.113600   811A      7.114149   812A      7.117955  
     813A      7.144665   814A      7.152024   815A      7.159779  
     816A      7.184928   817A      7.263958   818A      7.352983  
     819A      7.373120   820A      7.375001   821A      7.394254  
     822A      7.397367   823A      7.401503   824A      7.462715  
     825A      7.464690   826A      7.467313   827A      7.577220  
     828A      7.645394   829A      7.650387   830A      7.652782  
     831A      7.658993   832A      7.696204   833A      7.717276  
     834A      7.785812   835A      7.810745   836A      7.859977  
     837A      7.894006   838A      7.907435   839A      7.943872  
     840A      7.984769   841A      8.002574   842A      8.028547  
     843A      8.115466   844A      8.194047   845A      8.201441  
     846A      8.218688   847A      8.330832   848A      8.333357  
     849A      8.960427   850A      8.965531   851A      9.315903  
     852A      9.325819   853A      9.369695   854A     10.047777  
     855A     10.050609   856A     10.987700   857A     11.041554  
     858A     11.211731   859A     11.318958   860A     11.330152  
     861A     16.023903   862A     16.079855   863A     16.387083  
     864A     16.979556   865A     18.295949   866A     19.473630  
     867A     19.815643   868A     20.538164   869A     49.667869  
     870A     49.683747   871A     50.563983   872A     55.355557  
     873A     55.399997   874A     56.617016  

    Final Occupation by Irrep:
              A 
    DOCC [    29 ]

  @DF-RHF Final Energy:  -412.62456384399962

   => Energetics <=

    Nuclear Repulsion Energy =            357.1695742454470519
    One-Electron Energy =               -1270.7085715126729610
    Two-Electron Energy =                 500.9144334232262850
    Total Energy =                       -412.6245638439996242

Computation Completed


Properties will be evaluated at   0.000000,   0.000000,   0.000000 [a0]

Properties computed using the SCF density matrix

  Nuclear Dipole Moment: [e a0]
     X:    11.9272      Y:   -32.9304      Z:   278.1473

  Electronic Dipole Moment: [e a0]
     X:   -11.6977      Y:    31.0137      Z:  -277.7509

  Dipole Moment: [e a0]
     X:     0.2295      Y:    -1.9167      Z:     0.3964     Total:     1.9706

  Dipole Moment: [D]
     X:     0.5832      Y:    -4.8716      Z:     1.0075     Total:     5.0088


*** tstop() called on node43.bme.utexas.edu at Fri Apr 24 15:02:43 2020
Module time:
	user time   =     439.95 seconds =       7.33 minutes
	system time =       6.41 seconds =       0.11 minutes
	total time  =         61 seconds =       1.02 minutes
Total time:
	user time   =    1589.10 seconds =      26.49 minutes
	system time =      25.24 seconds =       0.42 minutes
	total time  =        219 seconds =       3.65 minutes
  Constructing Basis Sets for SAPT...

   => Loading Basis Set <=

    Name: (AUG-CC-PVTZ AUX)
    Role: RIFIT
    Keyword: DF_BASIS_SAPT
    atoms 1, 3, 5, 7, 9, 11, 15, 17, 19, 23  entry C          line   148 file /home/liuchw/anaconda3/envs/psi4env/share/psi4/basis/aug-cc-pvtz-ri.gbs 
    atoms 2, 4, 6, 8, 10, 12, 14, 18, 20, 22 entry H          line    30 file /home/liuchw/anaconda3/envs/psi4env/share/psi4/basis/aug-cc-pvtz-ri.gbs 
    atoms 13, 21                             entry N          line   206 file /home/liuchw/anaconda3/envs/psi4env/share/psi4/basis/aug-cc-pvtz-ri.gbs 
    atoms 16, 24                             entry O          line   264 file /home/liuchw/anaconda3/envs/psi4env/share/psi4/basis/aug-cc-pvtz-ri.gbs 


  //>>>>>>>>>>>>>>>>>>>>>>>>>>>>>>>>>>>//
  //               SAPT2+              //
  //<<<<<<<<<<<<<<<<<<<<<<<<<<<<<<<<<<<//


*** tstart() called on node43.bme.utexas.edu
*** at Fri Apr 24 15:02:43 2020

        SAPT2+  
    Ed Hohenstein
     6 June 2009

      Orbital Information
  --------------------------
    NSO        =       874
    NMO        =       874
    NRI        =      1944
    NOCC A     =        21
    NOCC B     =        29
    FOCC A     =         6
    FOCC B     =         8
    NVIR A     =       853
    NVIR B     =       845

    Estimated memory usage: 26001.8 MB

    Natural Orbital Cutoff:   1.000E-06
    Disp(T3) Truncation:            Yes
    CCD (vv|vv) Truncation:         Yes
    MBPT T2 Truncation:             Yes

    Monomer A: 512 virtual orbitals dropped
    Monomer B: 457 virtual orbitals dropped

    Elst10,r            =    -0.000030588336 [Eh]
    Exch10 (S^2)        =     0.000002248098 [Eh]
    Exch10              =     0.000002248098 [Eh]
    Ind20,r (A<-B)      =    -0.000019995878 [Eh]
    Ind20,r (B<-A)      =    -0.000009776617 [Eh]
    Ind20,r             =    -0.000029772494 [Eh]
    Exch-Ind20,r (A<-B) =     0.000001002561 [Eh]
    Exch-Ind20,r (B<-A) =     0.000000048880 [Eh]
    Exch-Ind20,r        =     0.000001051442 [Eh]
    Disp20              =    -0.000616726342 [Eh]
    Disp20 (NO)         =    -0.000604711848 [Eh]
    Exch-Disp20         =     0.000000839031 [Eh]
    Elst12,r            =     0.000028838317 [Eh]
    Exch11              =    -0.000000048966 [Eh]
    Exch12              =     0.000000062942 [Eh]
    Ind22               =     0.000008462716 [Eh]
    Disp21              =     0.000221686527 [Eh]
    Disp22 (SDQ)        =    -0.000005015584 [Eh]

    (i =   1 of  21)        444 seconds
    (i =   2 of  21)        905 seconds
    (i =   3 of  21)       1366 seconds
    (i =   4 of  21)       1832 seconds
    (i =   5 of  21)       2302 seconds
    (i =   6 of  21)       2767 seconds
    (i =   7 of  21)       3233 seconds
    (i =   8 of  21)       3695 seconds
    (i =   9 of  21)       4164 seconds
    (i =  10 of  21)       4630 seconds
    (i =  11 of  21)       5100 seconds
    (i =  12 of  21)       5570 seconds
    (i =  13 of  21)       6037 seconds
    (i =  14 of  21)       6505 seconds
    (i =  15 of  21)       6970 seconds
    (i =  16 of  21)       7436 seconds
    (i =  17 of  21)       7902 seconds
    (i =  18 of  21)       8369 seconds
    (i =  19 of  21)       8833 seconds
    (i =  20 of  21)       9298 seconds
    (i =  21 of  21)       9764 seconds

    Disp220 (T)         =    -0.000070673729 [Eh]

    (i =   1 of  15)        970 seconds
    (i =   2 of  15)       1935 seconds
    (i =   3 of  15)       2903 seconds
    (i =   4 of  15)       3872 seconds
    (i =   5 of  15)       4842 seconds
    (i =   6 of  15)       5811 seconds
    (i =   7 of  15)       6781 seconds
    (i =   8 of  15)       7750 seconds
    (i =   9 of  15)       8712 seconds
    (i =  10 of  15)       9661 seconds
    (i =  11 of  15)      10608 seconds
    (i =  12 of  15)      11610 seconds
    (i =  13 of  15)      12652 seconds
    (i =  14 of  15)      13706 seconds
    (i =  15 of  15)      14759 seconds

    Disp202 (T)         =    -0.000082487408 [Eh]

    Disp22 (T)          =    -0.000153161137 [Eh]

    Est. Disp220 (T)    =    -0.000072077884 [Eh]
    Est. Disp202 (T)    =    -0.000084126278 [Eh]

    Est. Disp22 (T)     =    -0.000156204162 [Eh]

    SAPT Results 
  --------------------------------------------------------------------------------------------------------
    Electrostatics                 -0.00175002 [mEh]      -0.00109815 [kcal/mol]      -0.00459467 [kJ/mol]
      Elst10,r                     -0.03058834 [mEh]      -0.01919447 [kcal/mol]      -0.08030967 [kJ/mol]
      Elst12,r                      0.02883832 [mEh]       0.01809632 [kcal/mol]       0.07571499 [kJ/mol]

    Exchange                        0.00226207 [mEh]       0.00141947 [kcal/mol]       0.00593907 [kJ/mol]
      Exch10                        0.00224810 [mEh]       0.00141070 [kcal/mol]       0.00590238 [kJ/mol]
      Exch10(S^2)                   0.00224810 [mEh]       0.00141070 [kcal/mol]       0.00590238 [kJ/mol]
      Exch11(S^2)                  -0.00004897 [mEh]      -0.00003073 [kcal/mol]      -0.00012856 [kJ/mol]
      Exch12(S^2)                   0.00006294 [mEh]       0.00003950 [kcal/mol]       0.00016525 [kJ/mol]

    Induction                      -0.02050525 [mEh]      -0.01286724 [kcal/mol]      -0.05383653 [kJ/mol]
      Ind20,r                      -0.02977249 [mEh]      -0.01868252 [kcal/mol]      -0.07816767 [kJ/mol]
      Ind22                         0.00846272 [mEh]       0.00531043 [kcal/mol]       0.02221886 [kJ/mol]
      Exch-Ind20,r                  0.00105144 [mEh]       0.00065979 [kcal/mol]       0.00276056 [kJ/mol]
      Exch-Ind22                   -0.00029887 [mEh]      -0.00018754 [kcal/mol]      -0.00078468 [kJ/mol]
      delta HF,r (2)                0.00005195 [mEh]       0.00003260 [kcal/mol]       0.00013640 [kJ/mol]

    Dispersion                     -0.55542053 [mEh]      -0.34853164 [kcal/mol]      -1.45825640 [kJ/mol]
      Disp20                       -0.61672634 [mEh]      -0.38700162 [kcal/mol]      -1.61921479 [kJ/mol]
      Disp21                        0.22168653 [mEh]       0.13911040 [kcal/mol]       0.58203790 [kJ/mol]
      Disp22 (SDQ)                 -0.00501558 [mEh]      -0.00314733 [kcal/mol]      -0.01316841 [kJ/mol]
      Disp22 (T)                   -0.15316114 [mEh]      -0.09611006 [kcal/mol]      -0.40212451 [kJ/mol]
      Est. Disp22 (T)              -0.15620416 [mEh]      -0.09801959 [kcal/mol]      -0.41011397 [kJ/mol]
      Exch-Disp20                   0.00083903 [mEh]       0.00052650 [kcal/mol]       0.00220288 [kJ/mol]

  Total HF                         -0.05700934 [mEh]      -0.03577390 [kcal/mol]      -0.14967799 [kJ/mol]
  Total SAPT0                      -0.67289665 [mEh]      -0.42224902 [kcal/mol]      -1.76668991 [kJ/mol]
  Total SAPT2                      -0.63588051 [mEh]      -0.39902104 [kcal/mol]      -1.66950404 [kJ/mol]
  Total SAPT2+                     -0.57541373 [mEh]      -0.36107757 [kcal/mol]      -1.51074853 [kJ/mol]

  Special recipe for scaled SAPT0 (see Manual):
    Electrostatics sSAPT0          -0.03058834 [mEh]      -0.01919447 [kcal/mol]      -0.08030967 [kJ/mol]
    Exchange sSAPT0                 0.00224810 [mEh]       0.00141070 [kcal/mol]       0.00590238 [kJ/mol]
    Induction sSAPT0               -0.02866910 [mEh]      -0.01799013 [kcal/mol]      -0.07527071 [kJ/mol]
    Dispersion sSAPT0              -0.61588731 [mEh]      -0.38647512 [kcal/mol]      -1.61701191 [kJ/mol]
  Total sSAPT0                     -0.67289665 [mEh]      -0.42224902 [kcal/mol]      -1.76668991 [kJ/mol]
  --------------------------------------------------------------------------------------------------------

*** tstop() called on node43.bme.utexas.edu at Fri Apr 24 22:53:44 2020
Module time:
	user time   =  204370.94 seconds =    3406.18 minutes
	system time =    2570.34 seconds =      42.84 minutes
	total time  =      28261 seconds =     471.02 minutes
Total time:
	user time   =  205961.00 seconds =    3432.68 minutes
	system time =    2595.63 seconds =      43.26 minutes
	total time  =      28480 seconds =     474.67 minutes

    Psi4 stopped on: Friday, 24 April 2020 10:53PM
    Psi4 wall time for execution: 7:54:40.06

*** Psi4 exiting successfully. Buy a developer a beer!
