    -----------------------------------------------------------------------
          PSI4: An Open-Source Ab Initio Electronic Structure Package
                              PSI 4.0.0-beta4 Driver

    J. M. Turney, A. C. Simmonett, R. M. Parrish, E. G. Hohenstein,
    F. A. Evangelista, J. T. Fermann, B. J. Mintz, L. A. Burns, J. J. Wilke,
    M. L. Abrams, N. J. Russ, M. L. Leininger, C. L. Janssen, E. T. Seidl,
    W. D. Allen, H. F. Schaefer, R. A. King, E. F. Valeev, C. D. Sherrill,
    and T. D. Crawford, WIREs Comput. Mol. Sci., (2011) (doi: 10.1002/wcms.93)

                         Additional Contributions by
    A. E. DePrince, M. Saitow, U. Bozkaya, A. Yu. Sokolov
    -----------------------------------------------------------------------

    Process ID:   6972
    PSI4DATADIR: /home/xzhu216/psi4/psi4-install/share/psi

    Using LocalCommunicator (Number of processes = 1)

    Memory level set to 256.000 MB

  ==> Input File <==

--------------------------------------------------------------------------
#psi4
#
memory 30 gb

molecule Uracil_Ethene {
0 1
    N    -0.050873655    -0.980081266     0.033962193
    H    -0.053222049    -1.990693742     0.049821668
    C    -1.308813157    -0.361876381     0.004025957
    O    -2.327219998    -1.032554922    -0.005828865
    C    -1.236818490     1.088048291    -0.012224403
    H    -2.152738973     1.651460442    -0.054774427
    C    -0.035194332     1.697835844     0.033704832
    H     0.070366356     2.772475747     0.031882239
    N     1.134529129     0.990282506     0.091844614
    H     2.023720319     1.456772182     0.155692772
    C     1.193185991    -0.391832869     0.115775123
    O     2.236397967    -1.011188263     0.194185623
--
0 1
    C     0.702284201    -0.005138237     2.512895230
    H     1.219401938    -0.876126133     2.135668635
    H     1.307895206     0.781855807     2.940209564
    C    -0.626492300     0.095452211     2.463648301
    H    -1.238495187    -0.692027379     2.046747583
    H    -1.138317291     0.966521802     2.847648066
units angstrom
no_reorient  #important for SAPT in psi4, default
symmetry c1  #important for SAPT in psi4, default
}

set {
basis aug-cc-pVTZ
scf_type DF
freeze_core True
}
energy('sapt2+')
--------------------------------------------------------------------------

  Memory set to  30.000 GiB by Python script.

  //>>>>>>>>>>>>>>>>>>>>>>>>>>>>>>>>>>>//
  //              Dimer HF             //
  //<<<<<<<<<<<<<<<<<<<<<<<<<<<<<<<<<<<//


  No DF_BASIS_SCF auxiliary basis selected, defaulting to aug-cc-pvtz-jkfit


*** tstart() called on pharma.bme.utexas.edu
*** at Thu Feb 27 09:34:55 2014


         ---------------------------------------------------------
                                   SCF
            by Justin Turney, Rob Parrish, and Andy Simmonett
                              RHF Reference
                        4 Threads,  30000 MiB Core
         ---------------------------------------------------------

  ==> Geometry <==

    Molecular point group: c1
    Full point group: C1

    Geometry (in Angstrom), charge = 0, multiplicity = 1:

       Center              X                  Y                   Z       
    ------------   -----------------  -----------------  -----------------
           N         -0.036726378435    -0.958842336545    -0.511671476639
           H         -0.039074772435    -1.969454812545    -0.495812001639
           C         -1.294665880435    -0.340637451545    -0.541607712639
           O         -2.313072721435    -1.011315992545    -0.551462534639
           C         -1.222671213435     1.109287220455    -0.557858072639
           H         -2.138591696435     1.672699371455    -0.600408096639
           C         -0.021047055435     1.719074773455    -0.511928837639
           H          0.084513632565     2.793714676455    -0.513751430639
           N          1.148676405565     1.011521435455    -0.453789055639
           H          2.037867595565     1.478011111455    -0.389940897639
           C          1.207333267565    -0.370593939545    -0.429858546639
           O          2.250545243565    -0.989949333545    -0.351448046639
           C          0.716431477565     0.016100692455     1.967261560361
           H          1.233549214565    -0.854887203545     1.590034965361
           H          1.322042482565     0.803094736455     2.394575894361
           C         -0.612345023435     0.116691140455     1.918014631361
           H         -1.224347910435    -0.670788449545     1.501113913361
           H         -1.124170014435     0.987760731455     2.302014396361

  Running in c1 symmetry.

  Nuclear repulsion =  550.025371899569905

  Charge       = 0
  Multiplicity = 1
  Electrons    = 74
  Nalpha       = 37
  Nbeta        = 37

  ==> Algorithm <==

  SCF Algorithm Type is DF.
  DIIS enabled.
  MOM disabled.
  Fractional occupation disabled.
  Guess Type is CORE.
  Energy threshold   = 1.00e-08
  Density threshold  = 1.00e-08
  Integral threshold = 0.00e+00

  ==> Primary Basis <==

  Basis Set: AUG-CC-PVTZ
    Number of shells: 212
    Number of basis function: 644
    Number of Cartesian functions: 750
    Spherical Harmonics?: true
    Max angular momentum: 3

  ==> Pre-Iterations <==

   -------------------------------------------------------
    Irrep   Nso     Nmo     Nalpha   Nbeta   Ndocc  Nsocc
   -------------------------------------------------------
     A        644     644       0       0       0       0
   -------------------------------------------------------
    Total     644     644      37      37      37       0
   -------------------------------------------------------

 OEINTS: Wrapper to libmints.
   by Justin Turney

   Calculation information:
      Number of atoms:                  18
      Number of AO shells:             212
      Number of SO shells:             212
      Number of primitives:            388
      Number of atomic orbitals:       750
      Number of basis functions:       644

      Number of irreps:                  1
      Number of functions per irrep: [ 644 ]

      Overlap, kinetic, potential, dipole, and quadrupole integrals
        stored in file 35.

  ==> Integral Setup <==

  ==> DFJK: Density-Fitted J/K Matrices <==

    J tasked:                  Yes
    K tasked:                  Yes
    wK tasked:                  No
    OpenMP threads:              4
    Integrals threads:           4
    Memory (MB):             21457
    Algorithm:                Core
    Integral Cache:           SAVE
    Schwarz Cutoff:          0E+00
    Fitting Condition:       1E-12

   => Auxiliary Basis Set <=

  Basis Set: aug-cc-pvtz-jkfit
    Number of shells: 412
    Number of basis function: 1408
    Number of Cartesian functions: 1750
    Spherical Harmonics?: true
    Max angular momentum: 4

  Minimum eigenvalue in the overlap matrix is 2.1269625167E-06.
  Using Symmetric Orthogonalization.
  SCF Guess: Core (One-Electron) Hamiltonian.

  Guess energy:  -401.42451016441362

  ==> Iterations <==

                        Total Energy        Delta E     RMS |[F,P]|

   @RHF iter   1:  -342.91034124097644   -3.42910e+02   2.77611e-02 
   @RHF iter   2:  -179.32652275726127    1.63584e+02   2.80683e-02 DIIS
   @RHF iter   3:  -420.37655840877619   -2.41050e+02   1.35838e-02 DIIS
   @RHF iter   4:  -399.40733879263576    2.09692e+01   1.67413e-02 DIIS
   @RHF iter   5:  -485.49674278317354   -8.60894e+01   4.61202e-03 DIIS
   @RHF iter   6:  -478.01593501248260    7.48081e+00   4.87687e-03 DIIS
   @RHF iter   7:  -488.90786060383618   -1.08919e+01   2.87396e-03 DIIS
   @RHF iter   8:  -490.01809548211702   -1.11023e+00   1.58106e-03 DIIS
   @RHF iter   9:  -490.49577081577252   -4.77675e-01   6.88365e-04 DIIS
   @RHF iter  10:  -490.61359520473241   -1.17824e-01   2.39425e-04 DIIS
   @RHF iter  11:  -490.62969550231685   -1.61003e-02   8.07842e-05 DIIS
   @RHF iter  12:  -490.63170626321300   -2.01076e-03   3.47210e-05 DIIS
   @RHF iter  13:  -490.63237422165287   -6.67958e-04   2.09106e-05 DIIS
   @RHF iter  14:  -490.63260496246255   -2.30741e-04   7.52043e-06 DIIS
   @RHF iter  15:  -490.63262674649934   -2.17840e-05   2.22766e-06 DIIS
   @RHF iter  16:  -490.63262821333194   -1.46683e-06   6.59933e-07 DIIS
   @RHF iter  17:  -490.63262838926983   -1.75938e-07   2.41178e-07 DIIS
   @RHF iter  18:  -490.63262842662527   -3.73554e-08   1.00865e-07 DIIS
   @RHF iter  19:  -490.63262843281780   -6.19252e-09   3.41620e-08 DIIS
   @RHF iter  20:  -490.63262843376890   -9.51104e-10   1.26659e-08 DIIS
   @RHF iter  21:  -490.63262843386485   -9.59517e-11   5.08383e-09 DIIS

  ==> Post-Iterations <==

	Orbital Energies (a.u.)
	-----------------------

	Doubly Occupied:                                                      

	   1A    -20.543966     2A    -20.541300     3A    -15.643107  
	   4A    -15.620332     5A    -11.419033     6A    -11.381687  
	   7A    -11.336114     8A    -11.254670     9A    -11.227507  
	  10A    -11.224148    11A     -1.438073    12A     -1.400475  
	  13A     -1.313700    14A     -1.245687    15A     -1.089279  
	  16A     -1.043639    17A     -0.933128    18A     -0.903163  
	  19A     -0.808163    20A     -0.803998    21A     -0.765180  
	  22A     -0.713267    23A     -0.697420    24A     -0.677611  
	  25A     -0.652727    26A     -0.635477    27A     -0.614914  
	  28A     -0.602016    29A     -0.591328    30A     -0.575945  
	  31A     -0.526480    32A     -0.495677    33A     -0.483372  
	  34A     -0.449839    35A     -0.441440    36A     -0.379605  
	  37A     -0.358659  

	Virtual:                                                              

	  38A      0.014480    39A      0.032073    40A      0.037415  
	  41A      0.040731    42A      0.049679    43A      0.051375  
	  44A      0.062220    45A      0.064847    46A      0.068401  
	  47A      0.078122    48A      0.087535    49A      0.091130  
	  50A      0.099555    51A      0.106861    52A      0.112318  
	  53A      0.113877    54A      0.117468    55A      0.119906  
	  56A      0.121939    57A      0.124570    58A      0.133022  
	  59A      0.136028    60A      0.141902    61A      0.149904  
	  62A      0.152455    63A      0.153573    64A      0.156374  
	  65A      0.159042    66A      0.170762    67A      0.175739  
	  68A      0.177933    69A      0.182268    70A      0.187125  
	  71A      0.190609    72A      0.202403    73A      0.205739  
	  74A      0.218638    75A      0.226803    76A      0.233475  
	  77A      0.238648    78A      0.253407    79A      0.261452  
	  80A      0.266582    81A      0.271304    82A      0.272333  
	  83A      0.280423    84A      0.286709    85A      0.288091  
	  86A      0.291839    87A      0.293779    88A      0.303861  
	  89A      0.308286    90A      0.318218    91A      0.319702  
	  92A      0.327683    93A      0.333277    94A      0.337748  
	  95A      0.338303    96A      0.345522    97A      0.345655  
	  98A      0.357274    99A      0.361671   100A      0.364455  
	 101A      0.371513   102A      0.372941   103A      0.379506  
	 104A      0.385623   105A      0.388448   106A      0.395638  
	 107A      0.402742   108A      0.404299   109A      0.409195  
	 110A      0.414346   111A      0.421759   112A      0.423777  
	 113A      0.427892   114A      0.440730   115A      0.447006  
	 116A      0.452452   117A      0.453990   118A      0.462926  
	 119A      0.464049   120A      0.469848   121A      0.477101  
	 122A      0.484184   123A      0.488390   124A      0.489089  
	 125A      0.503556   126A      0.506229   127A      0.509617  
	 128A      0.515259   129A      0.517766   130A      0.521608  
	 131A      0.526178   132A      0.530434   133A      0.539876  
	 134A      0.547587   135A      0.553569   136A      0.563664  
	 137A      0.571399   138A      0.573290   139A      0.578899  
	 140A      0.588170   141A      0.595123   142A      0.600224  
	 143A      0.607914   144A      0.611472   145A      0.616849  
	 146A      0.619945   147A      0.626350   148A      0.635513  
	 149A      0.637818   150A      0.650577   151A      0.659849  
	 152A      0.668512   153A      0.669271   154A      0.680552  
	 155A      0.686255   156A      0.695550   157A      0.698510  
	 158A      0.707656   159A      0.712576   160A      0.720216  
	 161A      0.731794   162A      0.733857   163A      0.747410  
	 164A      0.753978   165A      0.759058   166A      0.768278  
	 167A      0.771370   168A      0.783874   169A      0.787201  
	 170A      0.791861   171A      0.812785   172A      0.813749  
	 173A      0.830283   174A      0.836008   175A      0.837160  
	 176A      0.845453   177A      0.846862   178A      0.852817  
	 179A      0.864595   180A      0.879547   181A      0.882815  
	 182A      0.889640   183A      0.900890   184A      0.906055  
	 185A      0.908593   186A      0.910606   187A      0.920170  
	 188A      0.927253   189A      0.935124   190A      0.941065  
	 191A      0.948930   192A      0.955848   193A      0.958251  
	 194A      0.964723   195A      0.966590   196A      0.973716  
	 197A      0.979912   198A      0.985450   199A      0.994665  
	 200A      1.003923   201A      1.012391   202A      1.020161  
	 203A      1.031404   204A      1.037227   205A      1.046792  
	 206A      1.048954   207A      1.055405   208A      1.058530  
	 209A      1.073996   210A      1.085032   211A      1.087652  
	 212A      1.090761   213A      1.096382   214A      1.110173  
	 215A      1.117417   216A      1.121228   217A      1.127949  
	 218A      1.130772   219A      1.138172   220A      1.145829  
	 221A      1.150568   222A      1.158908   223A      1.162813  
	 224A      1.182353   225A      1.187732   226A      1.191321  
	 227A      1.196463   228A      1.200122   229A      1.201525  
	 230A      1.215042   231A      1.223730   232A      1.229830  
	 233A      1.231871   234A      1.247516   235A      1.253424  
	 236A      1.259873   237A      1.270524   238A      1.275098  
	 239A      1.275926   240A      1.281915   241A      1.286157  
	 242A      1.306391   243A      1.312487   244A      1.328423  
	 245A      1.335904   246A      1.339247   247A      1.347902  
	 248A      1.353945   249A      1.364385   250A      1.368916  
	 251A      1.379885   252A      1.386741   253A      1.392889  
	 254A      1.401452   255A      1.413633   256A      1.417759  
	 257A      1.427988   258A      1.436211   259A      1.441671  
	 260A      1.449728   261A      1.463905   262A      1.474635  
	 263A      1.480200   264A      1.499226   265A      1.507806  
	 266A      1.514610   267A      1.523191   268A      1.525673  
	 269A      1.539290   270A      1.546652   271A      1.549239  
	 272A      1.561604   273A      1.566643   274A      1.570651  
	 275A      1.583357   276A      1.594351   277A      1.601303  
	 278A      1.612202   279A      1.622079   280A      1.625408  
	 281A      1.641827   282A      1.645920   283A      1.659604  
	 284A      1.667297   285A      1.680660   286A      1.690604  
	 287A      1.697864   288A      1.707581   289A      1.714234  
	 290A      1.725230   291A      1.736474   292A      1.742686  
	 293A      1.754918   294A      1.759002   295A      1.775632  
	 296A      1.780707   297A      1.784636   298A      1.799261  
	 299A      1.806658   300A      1.810757   301A      1.819583  
	 302A      1.836248   303A      1.842587   304A      1.855648  
	 305A      1.867438   306A      1.873453   307A      1.875993  
	 308A      1.887316   309A      1.900602   310A      1.909731  
	 311A      1.927274   312A      1.930031   313A      1.934131  
	 314A      1.944331   315A      1.963648   316A      1.968931  
	 317A      1.979136   318A      1.997109   319A      2.012831  
	 320A      2.020393   321A      2.028042   322A      2.043319  
	 323A      2.045494   324A      2.050335   325A      2.057176  
	 326A      2.065273   327A      2.093821   328A      2.106737  
	 329A      2.118466   330A      2.126898   331A      2.146725  
	 332A      2.153259   333A      2.157637   334A      2.184053  
	 335A      2.185745   336A      2.199173   337A      2.205090  
	 338A      2.222752   339A      2.224010   340A      2.233398  
	 341A      2.238486   342A      2.248802   343A      2.258165  
	 344A      2.290148   345A      2.293544   346A      2.302052  
	 347A      2.309185   348A      2.315103   349A      2.349792  
	 350A      2.355759   351A      2.364190   352A      2.371584  
	 353A      2.398839   354A      2.425374   355A      2.428740  
	 356A      2.430774   357A      2.437853   358A      2.471098  
	 359A      2.474878   360A      2.489112   361A      2.501531  
	 362A      2.509827   363A      2.542028   364A      2.543947  
	 365A      2.551539   366A      2.571736   367A      2.576591  
	 368A      2.598844   369A      2.602805   370A      2.618929  
	 371A      2.627523   372A      2.636003   373A      2.653851  
	 374A      2.662542   375A      2.679037   376A      2.693361  
	 377A      2.715173   378A      2.722002   379A      2.727419  
	 380A      2.729085   381A      2.747895   382A      2.755940  
	 383A      2.783863   384A      2.786676   385A      2.813433  
	 386A      2.834244   387A      2.848885   388A      2.866843  
	 389A      2.882911   390A      2.893283   391A      2.906643  
	 392A      2.932992   393A      2.954665   394A      2.970749  
	 395A      3.002361   396A      3.025750   397A      3.051519  
	 398A      3.059588   399A      3.074914   400A      3.120427  
	 401A      3.125203   402A      3.160200   403A      3.173597  
	 404A      3.181371   405A      3.223447   406A      3.249002  
	 407A      3.265527   408A      3.291496   409A      3.297377  
	 410A      3.319290   411A      3.323004   412A      3.345099  
	 413A      3.365380   414A      3.377960   415A      3.385702  
	 416A      3.406842   417A      3.439039   418A      3.449178  
	 419A      3.463379   420A      3.483911   421A      3.491858  
	 422A      3.514852   423A      3.524547   424A      3.555638  
	 425A      3.573696   426A      3.589427   427A      3.609714  
	 428A      3.626281   429A      3.640917   430A      3.645497  
	 431A      3.666862   432A      3.673441   433A      3.694549  
	 434A      3.699347   435A      3.712936   436A      3.733391  
	 437A      3.744652   438A      3.758647   439A      3.764422  
	 440A      3.777257   441A      3.788288   442A      3.802236  
	 443A      3.826346   444A      3.834084   445A      3.847916  
	 446A      3.856002   447A      3.858988   448A      3.873090  
	 449A      3.887345   450A      3.899739   451A      3.921978  
	 452A      3.926030   453A      3.942777   454A      3.948655  
	 455A      3.968155   456A      3.979734   457A      4.000081  
	 458A      4.013562   459A      4.024147   460A      4.032941  
	 461A      4.042635   462A      4.064307   463A      4.069009  
	 464A      4.085846   465A      4.087513   466A      4.114038  
	 467A      4.119505   468A      4.141845   469A      4.152627  
	 470A      4.159272   471A      4.175576   472A      4.191780  
	 473A      4.198936   474A      4.216766   475A      4.229640  
	 476A      4.245656   477A      4.250031   478A      4.272177  
	 479A      4.284246   480A      4.300606   481A      4.318699  
	 482A      4.331356   483A      4.343600   484A      4.356210  
	 485A      4.363963   486A      4.391155   487A      4.401014  
	 488A      4.411028   489A      4.413233   490A      4.428210  
	 491A      4.445083   492A      4.459685   493A      4.470453  
	 494A      4.484329   495A      4.498736   496A      4.505890  
	 497A      4.529131   498A      4.540745   499A      4.549993  
	 500A      4.569417   501A      4.570101   502A      4.596014  
	 503A      4.611026   504A      4.642116   505A      4.660618  
	 506A      4.675472   507A      4.684057   508A      4.691338  
	 509A      4.704222   510A      4.733903   511A      4.734771  
	 512A      4.749535   513A      4.768030   514A      4.794660  
	 515A      4.807884   516A      4.817724   517A      4.837985  
	 518A      4.870576   519A      4.902909   520A      4.912455  
	 521A      4.925188   522A      4.933905   523A      4.960843  
	 524A      4.973464   525A      4.985370   526A      4.986237  
	 527A      5.005082   528A      5.034137   529A      5.057619  
	 530A      5.066042   531A      5.081551   532A      5.099765  
	 533A      5.107307   534A      5.123069   535A      5.147544  
	 536A      5.168769   537A      5.181539   538A      5.189548  
	 539A      5.208034   540A      5.220231   541A      5.233818  
	 542A      5.240904   543A      5.261214   544A      5.291145  
	 545A      5.305513   546A      5.347719   547A      5.360560  
	 548A      5.386801   549A      5.397421   550A      5.410746  
	 551A      5.437896   552A      5.453665   553A      5.475242  
	 554A      5.496272   555A      5.518113   556A      5.529239  
	 557A      5.536052   558A      5.565595   559A      5.583467  
	 560A      5.600858   561A      5.617785   562A      5.623333  
	 563A      5.631313   564A      5.642757   565A      5.677290  
	 566A      5.705313   567A      5.719985   568A      5.749018  
	 569A      5.764365   570A      5.770412   571A      5.782241  
	 572A      5.835925   573A      5.846900   574A      5.866830  
	 575A      5.884702   576A      5.937197   577A      5.966685  
	 578A      6.006976   579A      6.013505   580A      6.046132  
	 581A      6.058741   582A      6.083804   583A      6.126944  
	 584A      6.148938   585A      6.179102   586A      6.219813  
	 587A      6.241231   588A      6.282399   589A      6.298092  
	 590A      6.339873   591A      6.372542   592A      6.562312  
	 593A      6.577885   594A      6.627235   595A      6.651934  
	 596A      6.664475   597A      6.734654   598A      6.768290  
	 599A      6.778544   600A      6.792038   601A      6.820760  
	 602A      6.846526   603A      6.860674   604A      6.868062  
	 605A      6.893045   606A      6.918313   607A      6.947623  
	 608A      6.958038   609A      7.012218   610A      7.038204  
	 611A      7.071188   612A      7.079877   613A      7.112023  
	 614A      7.156695   615A      7.227101   616A      7.253850  
	 617A      7.306003   618A      7.435743   619A      7.479484  
	 620A      7.493872   621A      7.516726   622A      7.576639  
	 623A      7.602765   624A      7.670422   625A      7.765721  
	 626A      7.839210   627A      7.868897   628A      7.907469  
	 629A      7.930055   630A      7.993535   631A      8.015369  
	 632A      8.030660   633A      8.073623   634A      8.136631  
	 635A     16.391516   636A     16.759688   637A     16.982246  
	 638A     17.319913   639A     18.199089   640A     18.740478  
	 641A     19.379929   642A     19.991660   643A     20.480958  
	 644A     21.267412  

	Final Occupation by Irrep:
	          A 
	DOCC [    37 ]

  Energy converged.

  @RHF Final Energy:  -490.63262843386485

   => Energetics <=

    Nuclear Repulsion Energy =            550.0253718995699046
    One-Electron Energy =               -1759.6517598478465061
    Two-Electron Energy =                 718.9937595144119769
    DFT Exchange-Correlation Energy =       0.0000000000000000
    Empirical Dispersion Energy =           0.0000000000000000
    Total Energy =                       -490.6326284338647383



Properties will be evaluated at   0.000000,   0.000000,   0.000000 Bohr
  ==> Properties <==


Properties computed using the SCF density density matrix
  Nuclear Dipole Moment: (a.u.)
     X:     0.1388      Y:     3.9652      Z:     5.4244

  Electronic Dipole Moment: (a.u.)
     X:     0.3540      Y:    -2.0097      Z:    -5.4458

  Dipole Moment: (a.u.)
     X:     0.4928      Y:     1.9555      Z:    -0.0214     Total:     2.0168

  Dipole Moment: (Debye)
     X:     1.2526      Y:     4.9704      Z:    -0.0544     Total:     5.1261


  Saving occupied orbitals to File 180.

  Saving SAPT 2-DIMER file.

*** tstop() called on pharma.bme.utexas.edu at Thu Feb 27 09:39:12 2014
Module time:
	user time   =     924.37 seconds =      15.41 minutes
	system time =       6.69 seconds =       0.11 minutes
	total time  =        257 seconds =       4.28 minutes
Total time:
	user time   =     924.37 seconds =      15.41 minutes
	system time =       6.69 seconds =       0.11 minutes
	total time  =        257 seconds =       4.28 minutes

  //>>>>>>>>>>>>>>>>>>>>>>>>>>>>>>>>>>>//
  //            Monomer A HF           //
  //<<<<<<<<<<<<<<<<<<<<<<<<<<<<<<<<<<<//


  No DF_BASIS_SCF auxiliary basis selected, defaulting to aug-cc-pvtz-jkfit


*** tstart() called on pharma.bme.utexas.edu
*** at Thu Feb 27 09:39:12 2014


         ---------------------------------------------------------
                                   SCF
            by Justin Turney, Rob Parrish, and Andy Simmonett
                              RHF Reference
                        4 Threads,  30000 MiB Core
         ---------------------------------------------------------

  ==> Geometry <==

    Molecular point group: c1
    Full point group: C1

    Geometry (in Angstrom), charge = 0, multiplicity = 1:

       Center              X                  Y                   Z       
    ------------   -----------------  -----------------  -----------------
           N         -0.036726378435    -0.958842336545    -0.511671476639
           H         -0.039074772435    -1.969454812545    -0.495812001639
           C         -1.294665880435    -0.340637451545    -0.541607712639
           O         -2.313072721435    -1.011315992545    -0.551462534639
           C         -1.222671213435     1.109287220455    -0.557858072639
           H         -2.138591696435     1.672699371455    -0.600408096639
           C         -0.021047055435     1.719074773455    -0.511928837639
           H          0.084513632565     2.793714676455    -0.513751430639
           N          1.148676405565     1.011521435455    -0.453789055639
           H          2.037867595565     1.478011111455    -0.389940897639
           C          1.207333267565    -0.370593939545    -0.429858546639
           O          2.250545243565    -0.989949333545    -0.351448046639
           C(Gh)      0.716431477565     0.016100692455     1.967261560361
           H(Gh)      1.233549214565    -0.854887203545     1.590034965361
           H(Gh)      1.322042482565     0.803094736455     2.394575894361
           C(Gh)     -0.612345023435     0.116691140455     1.918014631361
           H(Gh)     -1.224347910435    -0.670788449545     1.501113913361
           H(Gh)     -1.124170014435     0.987760731455     2.302014396361

  Running in c1 symmetry.

  Nuclear repulsion =  357.187267482094512

  Charge       = 0
  Multiplicity = 1
  Electrons    = 58
  Nalpha       = 29
  Nbeta        = 29

  ==> Algorithm <==

  SCF Algorithm Type is DF.
  DIIS enabled.
  MOM disabled.
  Fractional occupation disabled.
  Guess Type is CORE.
  Energy threshold   = 1.00e-08
  Density threshold  = 1.00e-08
  Integral threshold = 0.00e+00

  ==> Primary Basis <==

  Basis Set: AUG-CC-PVTZ
    Number of shells: 212
    Number of basis function: 644
    Number of Cartesian functions: 750
    Spherical Harmonics?: true
    Max angular momentum: 3

  ==> Pre-Iterations <==

   -------------------------------------------------------
    Irrep   Nso     Nmo     Nalpha   Nbeta   Ndocc  Nsocc
   -------------------------------------------------------
     A        644     644       0       0       0       0
   -------------------------------------------------------
    Total     644     644      29      29      29       0
   -------------------------------------------------------

 OEINTS: Wrapper to libmints.
   by Justin Turney

   Calculation information:
      Number of atoms:                  18
      Number of AO shells:             212
      Number of SO shells:             212
      Number of primitives:            388
      Number of atomic orbitals:       750
      Number of basis functions:       644

      Number of irreps:                  1
      Number of functions per irrep: [ 644 ]

      Overlap, kinetic, potential, dipole, and quadrupole integrals
        stored in file 35.

  ==> Integral Setup <==

  ==> DFJK: Density-Fitted J/K Matrices <==

    J tasked:                  Yes
    K tasked:                  Yes
    wK tasked:                  No
    OpenMP threads:              4
    Integrals threads:           4
    Memory (MB):             21457
    Algorithm:                Core
    Integral Cache:           LOAD
    Schwarz Cutoff:          0E+00
    Fitting Condition:       1E-12

   => Auxiliary Basis Set <=

  Basis Set: aug-cc-pvtz-jkfit
    Number of shells: 412
    Number of basis function: 1408
    Number of Cartesian functions: 1750
    Spherical Harmonics?: true
    Max angular momentum: 4

  Minimum eigenvalue in the overlap matrix is 2.1269625163E-06.
  Using Symmetric Orthogonalization.
  SCF Guess: Core (One-Electron) Hamiltonian.

  Guess energy:  -323.99960816893406

  ==> Iterations <==

                        Total Energy        Delta E     RMS |[F,P]|

   @RHF iter   1:  -319.71068229822276   -3.19711e+02   2.40793e-02 
   @RHF iter   2:  -286.78067847805050    3.29300e+01   1.46533e-02 DIIS
   @RHF iter   3:  -298.27939740882471   -1.14987e+01   1.73081e-02 DIIS
   @RHF iter   4:  -391.79184261764237   -9.35124e+01   8.34922e-03 DIIS
   @RHF iter   5:  -389.19599057220455    2.59585e+00   7.87770e-03 DIIS
   @RHF iter   6:  -409.82363139951121   -2.06276e+01   3.59253e-03 DIIS
   @RHF iter   7:  -412.40853494421140   -2.58490e+00   8.69169e-04 DIIS
   @RHF iter   8:  -412.58642921044191   -1.77894e-01   3.36431e-04 DIIS
   @RHF iter   9:  -412.61571619484391   -2.92870e-02   1.48356e-04 DIIS
   @RHF iter  10:  -412.62275615007684   -7.03996e-03   6.56079e-05 DIIS
   @RHF iter  11:  -412.62426134719465   -1.50520e-03   3.54233e-05 DIIS
   @RHF iter  12:  -412.62494535608573   -6.84009e-04   1.24609e-05 DIIS
   @RHF iter  13:  -412.62500809833807   -6.27423e-05   4.89685e-06 DIIS
   @RHF iter  14:  -412.62501316615987   -5.06782e-06   1.29145e-06 DIIS
   @RHF iter  15:  -412.62501361169132   -4.45531e-07   3.15782e-07 DIIS
   @RHF iter  16:  -412.62501364462082   -3.29295e-08   1.24343e-07 DIIS
   @RHF iter  17:  -412.62501364990806   -5.28723e-09   4.68285e-08 DIIS
   @RHF iter  18:  -412.62501365100786   -1.09981e-09   1.92464e-08 DIIS
   @RHF iter  19:  -412.62501365120806   -2.00203e-10   6.32620e-09 DIIS

  ==> Post-Iterations <==

	Orbital Energies (a.u.)
	-----------------------

	Doubly Occupied:                                                      

	   1A    -20.547772     2A    -20.542237     3A    -15.645419  
	   4A    -15.628164     5A    -11.419468     6A    -11.381433  
	   7A    -11.341430     8A    -11.256110     9A     -1.437147  
	  10A     -1.398617    11A     -1.314819    12A     -1.246942  
	  13A     -1.089491    14A     -0.934760    15A     -0.902547  
	  16A     -0.808232    17A     -0.766209    18A     -0.715412  
	  19A     -0.678239    20A     -0.670138    21A     -0.653611  
	  22A     -0.615660    23A     -0.602501    24A     -0.571463  
	  25A     -0.526941    26A     -0.484542    27A     -0.450078  
	  28A     -0.437684    29A     -0.369828  

	Virtual:                                                              

	  30A      0.013338    31A      0.031361    32A      0.032339  
	  33A      0.039802    34A      0.049813    35A      0.051906  
	  36A      0.059519    37A      0.065639    38A      0.068119  
	  39A      0.078934    40A      0.087288    41A      0.089852  
	  42A      0.098424    43A      0.099865    44A      0.105232  
	  45A      0.108856    46A      0.115293    47A      0.117198  
	  48A      0.122073    49A      0.125058    50A      0.129285  
	  51A      0.132296    52A      0.137281    53A      0.147938  
	  54A      0.150104    55A      0.153737    56A      0.156792  
	  57A      0.158489    58A      0.167932    59A      0.173100  
	  60A      0.176167    61A      0.182753    62A      0.186169  
	  63A      0.191950    64A      0.198470    65A      0.216290  
	  66A      0.217817    67A      0.226274    68A      0.231535  
	  69A      0.244444    70A      0.249470    71A      0.263169  
	  72A      0.265078    73A      0.272346    74A      0.276720  
	  75A      0.281246    76A      0.285628    77A      0.289627  
	  78A      0.291547    79A      0.297028    80A      0.305946  
	  81A      0.308653    82A      0.314818    83A      0.315637  
	  84A      0.319149    85A      0.325465    86A      0.329470  
	  87A      0.338757    88A      0.342707    89A      0.347842  
	  90A      0.355942    91A      0.362593    92A      0.365944  
	  93A      0.369390    94A      0.374099    95A      0.377990  
	  96A      0.382784    97A      0.387838    98A      0.396182  
	  99A      0.404787   100A      0.407575   101A      0.412475  
	 102A      0.414459   103A      0.420849   104A      0.424861  
	 105A      0.439462   106A      0.441122   107A      0.445995  
	 108A      0.454929   109A      0.460611   110A      0.469636  
	 111A      0.470293   112A      0.474498   113A      0.478704  
	 114A      0.485218   115A      0.493469   116A      0.498872  
	 117A      0.504428   118A      0.511021   119A      0.513119  
	 120A      0.516984   121A      0.520305   122A      0.524714  
	 123A      0.534308   124A      0.535751   125A      0.549038  
	 126A      0.556086   127A      0.565857   128A      0.568484  
	 129A      0.572253   130A      0.578471   131A      0.586729  
	 132A      0.588630   133A      0.595801   134A      0.602913  
	 135A      0.612709   136A      0.617248   137A      0.622375  
	 138A      0.628199   139A      0.638671   140A      0.646678  
	 141A      0.654483   142A      0.659269   143A      0.665803  
	 144A      0.671624   145A      0.677988   146A      0.683609  
	 147A      0.692823   148A      0.698074   149A      0.703420  
	 150A      0.708714   151A      0.715683   152A      0.720671  
	 153A      0.728859   154A      0.738154   155A      0.740041  
	 156A      0.754113   157A      0.758058   158A      0.764055  
	 159A      0.772992   160A      0.780779   161A      0.784479  
	 162A      0.790814   163A      0.801012   164A      0.809942  
	 165A      0.815043   166A      0.832690   167A      0.839498  
	 168A      0.849639   169A      0.854556   170A      0.858534  
	 171A      0.865594   172A      0.874602   173A      0.880188  
	 174A      0.887928   175A      0.904081   176A      0.910144  
	 177A      0.919718   178A      0.926482   179A      0.938395  
	 180A      0.942751   181A      0.947720   182A      0.954223  
	 183A      0.962564   184A      0.971890   185A      0.979676  
	 186A      0.986157   187A      0.989661   188A      0.994011  
	 189A      1.003839   190A      1.012911   191A      1.017199  
	 192A      1.024860   193A      1.037835   194A      1.041714  
	 195A      1.047075   196A      1.051325   197A      1.062330  
	 198A      1.074471   199A      1.077355   200A      1.082611  
	 201A      1.102666   202A      1.107028   203A      1.113941  
	 204A      1.119522   205A      1.125734   206A      1.133883  
	 207A      1.135758   208A      1.142169   209A      1.145933  
	 210A      1.153939   211A      1.162366   212A      1.164473  
	 213A      1.175274   214A      1.183051   215A      1.189816  
	 216A      1.192551   217A      1.200840   218A      1.204280  
	 219A      1.210943   220A      1.222260   221A      1.226096  
	 222A      1.239107   223A      1.244719   224A      1.258482  
	 225A      1.260761   226A      1.266327   227A      1.269678  
	 228A      1.278549   229A      1.283563   230A      1.294047  
	 231A      1.299731   232A      1.306655   233A      1.320825  
	 234A      1.332176   235A      1.343002   236A      1.344854  
	 237A      1.356008   238A      1.371880   239A      1.378065  
	 240A      1.384189   241A      1.391863   242A      1.400465  
	 243A      1.402691   244A      1.406893   245A      1.414291  
	 246A      1.421219   247A      1.426386   248A      1.431440  
	 249A      1.440474   250A      1.451529   251A      1.459087  
	 252A      1.471920   253A      1.478244   254A      1.486630  
	 255A      1.496590   256A      1.500691   257A      1.506308  
	 258A      1.525908   259A      1.529297   260A      1.537728  
	 261A      1.547752   262A      1.550212   263A      1.558119  
	 264A      1.564968   265A      1.575702   266A      1.582587  
	 267A      1.585243   268A      1.588395   269A      1.601979  
	 270A      1.610963   271A      1.621100   272A      1.631801  
	 273A      1.641872   274A      1.649308   275A      1.660332  
	 276A      1.676627   277A      1.689013   278A      1.698938  
	 279A      1.708757   280A      1.712631   281A      1.728788  
	 282A      1.739948   283A      1.750321   284A      1.761641  
	 285A      1.766670   286A      1.778607   287A      1.780706  
	 288A      1.802089   289A      1.810789   290A      1.813429  
	 291A      1.824570   292A      1.844330   293A      1.849212  
	 294A      1.859428   295A      1.862264   296A      1.868004  
	 297A      1.889300   298A      1.907292   299A      1.921116  
	 300A      1.923569   301A      1.928330   302A      1.948029  
	 303A      1.956684   304A      1.965892   305A      1.969217  
	 306A      1.976118   307A      1.991130   308A      2.008861  
	 309A      2.016670   310A      2.027122   311A      2.043869  
	 312A      2.050931   313A      2.061445   314A      2.071762  
	 315A      2.097118   316A      2.109984   317A      2.115085  
	 318A      2.124397   319A      2.132503   320A      2.147589  
	 321A      2.158639   322A      2.166201   323A      2.180392  
	 324A      2.183591   325A      2.192755   326A      2.199446  
	 327A      2.209054   328A      2.218401   329A      2.232909  
	 330A      2.241415   331A      2.267781   332A      2.269210  
	 333A      2.285359   334A      2.290674   335A      2.301061  
	 336A      2.304152   337A      2.313925   338A      2.332948  
	 339A      2.355099   340A      2.366967   341A      2.374761  
	 342A      2.404413   343A      2.414900   344A      2.421317  
	 345A      2.429691   346A      2.432550   347A      2.449201  
	 348A      2.461834   349A      2.480079   350A      2.483817  
	 351A      2.493423   352A      2.510544   353A      2.514806  
	 354A      2.520283   355A      2.540117   356A      2.544219  
	 357A      2.565665   358A      2.572548   359A      2.589862  
	 360A      2.596331   361A      2.621999   362A      2.627749  
	 363A      2.637766   364A      2.650999   365A      2.655736  
	 366A      2.657824   367A      2.673115   368A      2.689618  
	 369A      2.700608   370A      2.717873   371A      2.737650  
	 372A      2.743447   373A      2.755591   374A      2.764981  
	 375A      2.779626   376A      2.791623   377A      2.802234  
	 378A      2.819669   379A      2.829927   380A      2.843142  
	 381A      2.863661   382A      2.869884   383A      2.878004  
	 384A      2.904481   385A      2.917093   386A      2.920155  
	 387A      2.944680   388A      2.979736   389A      2.984445  
	 390A      2.988960   391A      3.011115   392A      3.044680  
	 393A      3.073109   394A      3.103274   395A      3.109349  
	 396A      3.133810   397A      3.146696   398A      3.173939  
	 399A      3.209641   400A      3.236324   401A      3.253190  
	 402A      3.285523   403A      3.294731   404A      3.312595  
	 405A      3.351339   406A      3.363443   407A      3.369294  
	 408A      3.418104   409A      3.433277   410A      3.469688  
	 411A      3.481147   412A      3.494570   413A      3.528040  
	 414A      3.543213   415A      3.560018   416A      3.582616  
	 417A      3.605279   418A      3.607124   419A      3.623679  
	 420A      3.673391   421A      3.679281   422A      3.693441  
	 423A      3.715388   424A      3.729215   425A      3.745616  
	 426A      3.770726   427A      3.780423   428A      3.806621  
	 429A      3.814081   430A      3.835090   431A      3.854499  
	 432A      3.877452   433A      3.886016   434A      3.891604  
	 435A      3.912202   436A      3.936964   437A      3.945842  
	 438A      3.958864   439A      3.966968   440A      4.002080  
	 441A      4.032736   442A      4.043516   443A      4.049212  
	 444A      4.054040   445A      4.089468   446A      4.102805  
	 447A      4.112280   448A      4.124118   449A      4.167546  
	 450A      4.183597   451A      4.194024   452A      4.195616  
	 453A      4.212872   454A      4.226951   455A      4.239291  
	 456A      4.245167   457A      4.263567   458A      4.285339  
	 459A      4.301089   460A      4.315217   461A      4.322807  
	 462A      4.332269   463A      4.357627   464A      4.361330  
	 465A      4.381851   466A      4.394799   467A      4.405214  
	 468A      4.411449   469A      4.419691   470A      4.436974  
	 471A      4.457642   472A      4.469548   473A      4.487891  
	 474A      4.505769   475A      4.509270   476A      4.528288  
	 477A      4.533386   478A      4.569228   479A      4.581951  
	 480A      4.583330   481A      4.591895   482A      4.622336  
	 483A      4.637498   484A      4.651293   485A      4.665603  
	 486A      4.678127   487A      4.687901   488A      4.710254  
	 489A      4.722952   490A      4.728281   491A      4.737674  
	 492A      4.759321   493A      4.769098   494A      4.785631  
	 495A      4.802647   496A      4.813736   497A      4.820178  
	 498A      4.827294   499A      4.860800   500A      4.871366  
	 501A      4.911287   502A      4.920079   503A      4.942954  
	 504A      4.950577   505A      4.958243   506A      4.978525  
	 507A      4.999941   508A      5.023926   509A      5.037331  
	 510A      5.043864   511A      5.056994   512A      5.079747  
	 513A      5.094787   514A      5.107736   515A      5.120701  
	 516A      5.145352   517A      5.157467   518A      5.164834  
	 519A      5.175119   520A      5.198603   521A      5.205435  
	 522A      5.228745   523A      5.233635   524A      5.250591  
	 525A      5.284936   526A      5.290742   527A      5.328888  
	 528A      5.366828   529A      5.373752   530A      5.403068  
	 531A      5.415772   532A      5.449377   533A      5.449721  
	 534A      5.460561   535A      5.468303   536A      5.499695  
	 537A      5.520150   538A      5.533454   539A      5.546667  
	 540A      5.562945   541A      5.577534   542A      5.586345  
	 543A      5.600457   544A      5.617397   545A      5.649290  
	 546A      5.676148   547A      5.682037   548A      5.701186  
	 549A      5.730007   550A      5.745254   551A      5.749282  
	 552A      5.785089   553A      5.805961   554A      5.830840  
	 555A      5.834917   556A      5.838862   557A      5.861472  
	 558A      5.878602   559A      5.914990   560A      5.926089  
	 561A      5.948651   562A      5.964782   563A      6.001256  
	 564A      6.046717   565A      6.066914   566A      6.073378  
	 567A      6.099795   568A      6.114746   569A      6.140207  
	 570A      6.167636   571A      6.189194   572A      6.201101  
	 573A      6.221384   574A      6.241357   575A      6.259766  
	 576A      6.267206   577A      6.292652   578A      6.315656  
	 579A      6.357590   580A      6.400434   581A      6.434351  
	 582A      6.557656   583A      6.599234   584A      6.644547  
	 585A      6.659398   586A      6.700752   587A      6.774846  
	 588A      6.776707   589A      6.787933   590A      6.810040  
	 591A      6.829262   592A      6.864828   593A      6.887107  
	 594A      6.909933   595A      6.923552   596A      6.999607  
	 597A      7.025635   598A      7.074856   599A      7.087661  
	 600A      7.104722   601A      7.129117   602A      7.166248  
	 603A      7.217487   604A      7.251391   605A      7.307715  
	 606A      7.398521   607A      7.428987   608A      7.466761  
	 609A      7.488488   610A      7.528394   611A      7.546720  
	 612A      7.598859   613A      7.610357   614A      7.626898  
	 615A      7.670450   616A      7.762774   617A      7.791805  
	 618A      7.851288   619A      7.870431   620A      7.877731  
	 621A      7.919439   622A      7.929735   623A      7.992083  
	 624A      8.018058   625A      8.030102   626A      8.058137  
	 627A      8.074315   628A      8.135259   629A      8.293906  
	 630A      8.452170   631A      8.463945   632A      9.129414  
	 633A     10.763684   634A     11.271638   635A     16.402847  
	 636A     16.772005   637A     17.014348   638A     17.343363  
	 639A     18.761884   640A     19.988628   641A     20.482338  
	 642A     21.252230   643A     53.498975   644A     55.280429  

	Final Occupation by Irrep:
	          A 
	DOCC [    29 ]

  Energy converged.

  @RHF Final Energy:  -412.62501365120806

   => Energetics <=

    Nuclear Repulsion Energy =            357.1872674820945122
    One-Electron Energy =               -1270.7507731153762052
    Two-Electron Energy =                 500.9384919820749928
    DFT Exchange-Correlation Energy =       0.0000000000000000
    Empirical Dispersion Energy =           0.0000000000000000
    Total Energy =                       -412.6250136512067002



Properties will be evaluated at   0.000000,   0.000000,   0.000000 Bohr
  ==> Properties <==


Properties computed using the SCF density density matrix
  Nuclear Dipole Moment: (a.u.)
     X:    -1.4327      Y:     1.9585      Z:   -53.3450

  Electronic Dipole Moment: (a.u.)
     X:     1.9568      Y:    -0.0498      Z:    53.3264

  Dipole Moment: (a.u.)
     X:     0.5241      Y:     1.9087      Z:    -0.0185     Total:     1.9794

  Dipole Moment: (Debye)
     X:     1.3321      Y:     4.8514      Z:    -0.0471     Total:     5.0312


  Saving occupied orbitals to File 180.

  Saving SAPT 2-MONOMER_A file.

*** tstop() called on pharma.bme.utexas.edu at Thu Feb 27 09:42:56 2014
Module time:
	user time   =     837.70 seconds =      13.96 minutes
	system time =       5.13 seconds =       0.09 minutes
	total time  =        224 seconds =       3.73 minutes
Total time:
	user time   =    1762.10 seconds =      29.37 minutes
	system time =      11.82 seconds =       0.20 minutes
	total time  =        481 seconds =       8.02 minutes

  //>>>>>>>>>>>>>>>>>>>>>>>>>>>>>>>>>>>//
  //            Monomer B HF           //
  //<<<<<<<<<<<<<<<<<<<<<<<<<<<<<<<<<<<//


  No DF_BASIS_SCF auxiliary basis selected, defaulting to aug-cc-pvtz-jkfit


*** tstart() called on pharma.bme.utexas.edu
*** at Thu Feb 27 09:42:56 2014


         ---------------------------------------------------------
                                   SCF
            by Justin Turney, Rob Parrish, and Andy Simmonett
                              RHF Reference
                        4 Threads,  30000 MiB Core
         ---------------------------------------------------------

  ==> Geometry <==

    Molecular point group: c1
    Full point group: C1

    Geometry (in Angstrom), charge = 0, multiplicity = 1:

       Center              X                  Y                   Z       
    ------------   -----------------  -----------------  -----------------
           N(Gh)     -0.036726378435    -0.958842336545    -0.511671476639
           H(Gh)     -0.039074772435    -1.969454812545    -0.495812001639
           C(Gh)     -1.294665880435    -0.340637451545    -0.541607712639
           O(Gh)     -2.313072721435    -1.011315992545    -0.551462534639
           C(Gh)     -1.222671213435     1.109287220455    -0.557858072639
           H(Gh)     -2.138591696435     1.672699371455    -0.600408096639
           C(Gh)     -0.021047055435     1.719074773455    -0.511928837639
           H(Gh)      0.084513632565     2.793714676455    -0.513751430639
           N(Gh)      1.148676405565     1.011521435455    -0.453789055639
           H(Gh)      2.037867595565     1.478011111455    -0.389940897639
           C(Gh)      1.207333267565    -0.370593939545    -0.429858546639
           O(Gh)      2.250545243565    -0.989949333545    -0.351448046639
           C          0.716431477565     0.016100692455     1.967261560361
           H          1.233549214565    -0.854887203545     1.590034965361
           H          1.322042482565     0.803094736455     2.394575894361
           C         -0.612345023435     0.116691140455     1.918014631361
           H         -1.224347910435    -0.670788449545     1.501113913361
           H         -1.124170014435     0.987760731455     2.302014396361

  Running in c1 symmetry.

  Nuclear repulsion =   33.404091764994341

  Charge       = 0
  Multiplicity = 1
  Electrons    = 16
  Nalpha       = 8
  Nbeta        = 8

  ==> Algorithm <==

  SCF Algorithm Type is DF.
  DIIS enabled.
  MOM disabled.
  Fractional occupation disabled.
  Guess Type is CORE.
  Energy threshold   = 1.00e-08
  Density threshold  = 1.00e-08
  Integral threshold = 0.00e+00

  ==> Primary Basis <==

  Basis Set: AUG-CC-PVTZ
    Number of shells: 212
    Number of basis function: 644
    Number of Cartesian functions: 750
    Spherical Harmonics?: true
    Max angular momentum: 3

  ==> Pre-Iterations <==

   -------------------------------------------------------
    Irrep   Nso     Nmo     Nalpha   Nbeta   Ndocc  Nsocc
   -------------------------------------------------------
     A        644     644       0       0       0       0
   -------------------------------------------------------
    Total     644     644       8       8       8       0
   -------------------------------------------------------

 OEINTS: Wrapper to libmints.
   by Justin Turney

   Calculation information:
      Number of atoms:                  18
      Number of AO shells:             212
      Number of SO shells:             212
      Number of primitives:            388
      Number of atomic orbitals:       750
      Number of basis functions:       644

      Number of irreps:                  1
      Number of functions per irrep: [ 644 ]

      Overlap, kinetic, potential, dipole, and quadrupole integrals
        stored in file 35.

  ==> Integral Setup <==

  ==> DFJK: Density-Fitted J/K Matrices <==

    J tasked:                  Yes
    K tasked:                  Yes
    wK tasked:                  No
    OpenMP threads:              4
    Integrals threads:           4
    Memory (MB):             21457
    Algorithm:                Core
    Integral Cache:           LOAD
    Schwarz Cutoff:          0E+00
    Fitting Condition:       1E-12

   => Auxiliary Basis Set <=

  Basis Set: aug-cc-pvtz-jkfit
    Number of shells: 412
    Number of basis function: 1408
    Number of Cartesian functions: 1750
    Spherical Harmonics?: true
    Max angular momentum: 4

  Minimum eigenvalue in the overlap matrix is 2.1269625163E-06.
  Using Symmetric Orthogonalization.
  SCF Guess: Core (One-Electron) Hamiltonian.

  Guess energy:   -60.98069219991587

  ==> Iterations <==

                        Total Energy        Delta E     RMS |[F,P]|

   @RHF iter   1:   -56.77537704024784   -5.67754e+01   1.07639e-02 
   @RHF iter   2:   -60.61008230476816   -3.83471e+00   4.51640e-03 DIIS
   @RHF iter   3:   -75.62593964917923   -1.50159e+01   3.31116e-03 DIIS
   @RHF iter   4:   -77.70496385671885   -2.07902e+00   1.16806e-03 DIIS
   @RHF iter   5:   -78.05998866885918   -3.55025e-01   1.09270e-04 DIIS
   @RHF iter   6:   -78.06450657417042   -4.51791e-03   3.58443e-05 DIIS
   @RHF iter   7:   -78.06479240640073   -2.85832e-04   1.39541e-05 DIIS
   @RHF iter   8:   -78.06484463838157   -5.22320e-05   2.21290e-06 DIIS
   @RHF iter   9:   -78.06484702540394   -2.38702e-06   2.79502e-07 DIIS
   @RHF iter  10:   -78.06484706362309   -3.82192e-08   7.21626e-08 DIIS
   @RHF iter  11:   -78.06484706598141   -2.35832e-09   2.18327e-08 DIIS
   @RHF iter  12:   -78.06484706625685   -2.75435e-10   6.03243e-09 DIIS

  ==> Post-Iterations <==

	Orbital Energies (a.u.)
	-----------------------

	Doubly Occupied:                                                      

	   1A    -11.231565     2A    -11.229852     3A     -1.034330  
	   4A     -0.793779     5A     -0.644427     6A     -0.588060  
	   7A     -0.508499     8A     -0.376986  

	Virtual:                                                              

	   9A      0.022395    10A      0.032876    11A      0.033529  
	  12A      0.042471    13A      0.050881    14A      0.054124  
	  15A      0.056611    16A      0.058444    17A      0.072812  
	  18A      0.082041    19A      0.087177    20A      0.089658  
	  21A      0.099476    22A      0.102776    23A      0.106562  
	  24A      0.107969    25A      0.115314    26A      0.118716  
	  27A      0.120842    28A      0.123771    29A      0.132885  
	  30A      0.145953    31A      0.149005    32A      0.150466  
	  33A      0.153955    34A      0.158127    35A      0.162487  
	  36A      0.165122    37A      0.166258    38A      0.178245  
	  39A      0.185792    40A      0.188080    41A      0.193174  
	  42A      0.196569    43A      0.203509    44A      0.206864  
	  45A      0.210067    46A      0.220701    47A      0.230177  
	  48A      0.239306    49A      0.243183    50A      0.251233  
	  51A      0.256263    52A      0.260747    53A      0.266026  
	  54A      0.273613    55A      0.277485    56A      0.287026  
	  57A      0.292321    58A      0.297033    59A      0.301866  
	  60A      0.312435    61A      0.316486    62A      0.322328  
	  63A      0.336640    64A      0.341253    65A      0.352244  
	  66A      0.354438    67A      0.360051    68A      0.367173  
	  69A      0.374223    70A      0.377567    71A      0.381482  
	  72A      0.385932    73A      0.386657    74A      0.392017  
	  75A      0.398083    76A      0.402286    77A      0.406272  
	  78A      0.408568    79A      0.415886    80A      0.417727  
	  81A      0.426812    82A      0.429821    83A      0.437111  
	  84A      0.444581    85A      0.446985    86A      0.453565  
	  87A      0.455499    88A      0.464800    89A      0.468884  
	  90A      0.478758    91A      0.482781    92A      0.490984  
	  93A      0.496910    94A      0.506670    95A      0.507563  
	  96A      0.516189    97A      0.522203    98A      0.526513  
	  99A      0.533137   100A      0.538813   101A      0.543061  
	 102A      0.547872   103A      0.555203   104A      0.565990  
	 105A      0.570315   106A      0.573732   107A      0.579421  
	 108A      0.586700   109A      0.591498   110A      0.594683  
	 111A      0.601691   112A      0.607762   113A      0.614371  
	 114A      0.633209   115A      0.638900   116A      0.642099  
	 117A      0.643896   118A      0.657399   119A      0.658492  
	 120A      0.670697   121A      0.675110   122A      0.686298  
	 123A      0.688463   124A      0.694265   125A      0.704113  
	 126A      0.708485   127A      0.722087   128A      0.731520  
	 129A      0.736642   130A      0.742700   131A      0.757016  
	 132A      0.762433   133A      0.763586   134A      0.774356  
	 135A      0.784351   136A      0.795754   137A      0.802040  
	 138A      0.812405   139A      0.826957   140A      0.829162  
	 141A      0.836148   142A      0.852013   143A      0.855532  
	 144A      0.869544   145A      0.875346   146A      0.883523  
	 147A      0.888592   148A      0.900150   149A      0.903627  
	 150A      0.909633   151A      0.918759   152A      0.930212  
	 153A      0.933786   154A      0.940798   155A      0.946203  
	 156A      0.949105   157A      0.954755   158A      0.962386  
	 159A      0.967626   160A      0.977535   161A      0.988160  
	 162A      0.997299   163A      1.005644   164A      1.011945  
	 165A      1.015353   166A      1.020187   167A      1.029476  
	 168A      1.033642   169A      1.039109   170A      1.049288  
	 171A      1.063985   172A      1.066308   173A      1.077628  
	 174A      1.080034   175A      1.085790   176A      1.095808  
	 177A      1.099187   178A      1.105716   179A      1.114127  
	 180A      1.118473   181A      1.125108   182A      1.129565  
	 183A      1.138261   184A      1.144194   185A      1.150379  
	 186A      1.154460   187A      1.164259   188A      1.175159  
	 189A      1.177942   190A      1.191237   191A      1.193678  
	 192A      1.201987   193A      1.207720   194A      1.214809  
	 195A      1.222371   196A      1.230434   197A      1.235993  
	 198A      1.238488   199A      1.244173   200A      1.246646  
	 201A      1.251995   202A      1.259330   203A      1.269726  
	 204A      1.282181   205A      1.291205   206A      1.304956  
	 207A      1.306192   208A      1.323576   209A      1.331048  
	 210A      1.333253   211A      1.347348   212A      1.353941  
	 213A      1.369274   214A      1.371411   215A      1.377027  
	 216A      1.387896   217A      1.401350   218A      1.402258  
	 219A      1.423962   220A      1.434964   221A      1.438063  
	 222A      1.443328   223A      1.453282   224A      1.456265  
	 225A      1.464428   226A      1.476646   227A      1.483240  
	 228A      1.488218   229A      1.501341   230A      1.519641  
	 231A      1.524956   232A      1.533616   233A      1.535680  
	 234A      1.552817   235A      1.569457   236A      1.575887  
	 237A      1.589526   238A      1.607008   239A      1.615640  
	 240A      1.624109   241A      1.628214   242A      1.636181  
	 243A      1.655809   244A      1.656205   245A      1.665425  
	 246A      1.677126   247A      1.679678   248A      1.699946  
	 249A      1.706236   250A      1.710555   251A      1.719407  
	 252A      1.729275   253A      1.735900   254A      1.747657  
	 255A      1.757780   256A      1.760129   257A      1.777488  
	 258A      1.784311   259A      1.791266   260A      1.797138  
	 261A      1.806742   262A      1.822233   263A      1.822890  
	 264A      1.836550   265A      1.850944   266A      1.859218  
	 267A      1.871970   268A      1.879153   269A      1.886500  
	 270A      1.900586   271A      1.912089   272A      1.927201  
	 273A      1.933016   274A      1.934806   275A      1.941259  
	 276A      1.955631   277A      1.970147   278A      1.976064  
	 279A      1.990468   280A      2.004412   281A      2.017439  
	 282A      2.027888   283A      2.032530   284A      2.039487  
	 285A      2.041587   286A      2.057012   287A      2.063379  
	 288A      2.072913   289A      2.077685   290A      2.086237  
	 291A      2.097783   292A      2.108137   293A      2.111582  
	 294A      2.134720   295A      2.150984   296A      2.156485  
	 297A      2.169709   298A      2.187411   299A      2.202992  
	 300A      2.216125   301A      2.223262   302A      2.237909  
	 303A      2.246394   304A      2.254756   305A      2.275719  
	 306A      2.286953   307A      2.291839   308A      2.300929  
	 309A      2.308660   310A      2.324376   311A      2.332486  
	 312A      2.351583   313A      2.372140   314A      2.377320  
	 315A      2.382134   316A      2.402069   317A      2.413247  
	 318A      2.427156   319A      2.436564   320A      2.445835  
	 321A      2.461847   322A      2.476054   323A      2.502215  
	 324A      2.519329   325A      2.532809   326A      2.539349  
	 327A      2.546705   328A      2.554400   329A      2.580221  
	 330A      2.585213   331A      2.603728   332A      2.614432  
	 333A      2.640558   334A      2.648850   335A      2.663851  
	 336A      2.683628   337A      2.684525   338A      2.691818  
	 339A      2.706183   340A      2.709947   341A      2.728346  
	 342A      2.750122   343A      2.763054   344A      2.777280  
	 345A      2.786653   346A      2.792155   347A      2.808282  
	 348A      2.821015   349A      2.838860   350A      2.846762  
	 351A      2.873338   352A      2.881240   353A      2.892420  
	 354A      2.902742   355A      2.912984   356A      2.924188  
	 357A      2.938108   358A      2.946267   359A      2.965655  
	 360A      2.978894   361A      2.980480   362A      3.001326  
	 363A      3.004900   364A      3.051679   365A      3.056608  
	 366A      3.074920   367A      3.100880   368A      3.114023  
	 369A      3.136356   370A      3.166900   371A      3.185007  
	 372A      3.214998   373A      3.230666   374A      3.247997  
	 375A      3.262091   376A      3.289394   377A      3.305616  
	 378A      3.327520   379A      3.345271   380A      3.376696  
	 381A      3.379643   382A      3.408356   383A      3.426481  
	 384A      3.448190   385A      3.453930   386A      3.460011  
	 387A      3.505444   388A      3.550479   389A      3.558739  
	 390A      3.569293   391A      3.585523   392A      3.618339  
	 393A      3.632590   394A      3.645685   395A      3.673936  
	 396A      3.684464   397A      3.699444   398A      3.717449  
	 399A      3.734473   400A      3.741914   401A      3.764401  
	 402A      3.784762   403A      3.801022   404A      3.816048  
	 405A      3.823695   406A      3.850896   407A      3.863114  
	 408A      3.875732   409A      3.886308   410A      3.913401  
	 411A      3.927326   412A      3.957041   413A      3.976420  
	 414A      3.980453   415A      3.989817   416A      4.005359  
	 417A      4.018228   418A      4.039628   419A      4.055255  
	 420A      4.065881   421A      4.078717   422A      4.101577  
	 423A      4.139789   424A      4.143968   425A      4.158299  
	 426A      4.176563   427A      4.202743   428A      4.215782  
	 429A      4.235310   430A      4.252774   431A      4.264523  
	 432A      4.268521   433A      4.299213   434A      4.318925  
	 435A      4.336944   436A      4.358137   437A      4.370627  
	 438A      4.382981   439A      4.409117   440A      4.414858  
	 441A      4.426563   442A      4.435548   443A      4.481818  
	 444A      4.485757   445A      4.504136   446A      4.509657  
	 447A      4.537356   448A      4.552614   449A      4.567750  
	 450A      4.585875   451A      4.593617   452A      4.629127  
	 453A      4.651644   454A      4.672344   455A      4.684069  
	 456A      4.711441   457A      4.727272   458A      4.747620  
	 459A      4.762975   460A      4.777177   461A      4.795190  
	 462A      4.824029   463A      4.844503   464A      4.857887  
	 465A      4.861650   466A      4.883521   467A      4.895148  
	 468A      4.931902   469A      4.952193   470A      4.962549  
	 471A      4.977448   472A      4.988809   473A      4.995749  
	 474A      5.001576   475A      5.025877   476A      5.043231  
	 477A      5.055468   478A      5.065924   479A      5.074758  
	 480A      5.087168   481A      5.123162   482A      5.127135  
	 483A      5.150418   484A      5.157532   485A      5.167697  
	 486A      5.188538   487A      5.204526   488A      5.222114  
	 489A      5.232731   490A      5.234680   491A      5.263994  
	 492A      5.280622   493A      5.294317   494A      5.319748  
	 495A      5.322601   496A      5.344176   497A      5.382989  
	 498A      5.389282   499A      5.398608   500A      5.410074  
	 501A      5.424888   502A      5.448053   503A      5.485465  
	 504A      5.488143   505A      5.505339   506A      5.507807  
	 507A      5.550666   508A      5.567760   509A      5.591192  
	 510A      5.607415   511A      5.623899   512A      5.634402  
	 513A      5.642585   514A      5.645669   515A      5.665617  
	 516A      5.682972   517A      5.698855   518A      5.738451  
	 519A      5.749164   520A      5.782495   521A      5.792905  
	 522A      5.805207   523A      5.877497   524A      5.887618  
	 525A      5.917234   526A      5.937708   527A      5.964138  
	 528A      5.985496   529A      6.002025   530A      6.006060  
	 531A      6.069110   532A      6.114168   533A      6.131902  
	 534A      6.160625   535A      6.244039   536A      6.246955  
	 537A      6.276541   538A      6.305534   539A      6.361657  
	 540A      6.425110   541A      6.506691   542A      6.523193  
	 543A      6.542375   544A      6.591839   545A      6.599727  
	 546A      6.624447   547A      6.675816   548A      6.689804  
	 549A      6.720339   550A      6.757385   551A      6.772391  
	 552A      6.803031   553A      6.841470   554A      6.871214  
	 555A      6.909670   556A      6.925255   557A      6.973586  
	 558A      6.989128   559A      7.022482   560A      7.030179  
	 561A      7.095488   562A      7.209922   563A      7.289259  
	 564A      7.318632   565A      7.346343   566A      7.427335  
	 567A      7.501733   568A      7.541489   569A      7.628127  
	 570A      7.641425   571A      7.660385   572A      7.670113  
	 573A      7.683283   574A      7.714090   575A      7.741852  
	 576A      7.774781   577A      7.791258   578A      7.813298  
	 579A      7.880183   580A      7.894431   581A      7.923039  
	 582A      7.987823   583A      7.989167   584A      8.022219  
	 585A      8.034805   586A      8.059748   587A      8.093123  
	 588A      8.121825   589A      8.263487   590A      8.280925  
	 591A      8.311531   592A      8.348234   593A      8.383947  
	 594A      8.468010   595A      8.602544   596A      8.730338  
	 597A      8.748314   598A      8.792405   599A      8.942760  
	 600A      9.085196   601A      9.137490   602A      9.271781  
	 603A      9.342934   604A      9.589571   605A      9.736355  
	 606A      9.760341   607A     10.000665   608A     10.033375  
	 609A     10.077191   610A     10.082939   611A     10.129441  
	 612A     10.322009   613A     10.358666   614A     10.392652  
	 615A     10.451589   616A     10.500170   617A     10.576820  
	 618A     10.654314   619A     11.075065   620A     11.326519  
	 621A     11.397390   622A     11.572227   623A     12.129425  
	 624A     12.181877   625A     12.213252   626A     12.289340  
	 627A     12.441171   628A     12.611830   629A     12.748321  
	 630A     12.937048   631A     13.458620   632A     13.750010  
	 633A     14.248856   634A     14.278357   635A     18.199493  
	 636A     19.343617   637A     52.661311   638A     52.864376  
	 639A     55.709056   640A     57.014578   641A     61.257466  
	 642A     62.031467   643A     69.930098   644A     70.620328  

	Final Occupation by Irrep:
	          A 
	DOCC [     8 ]

  Energy converged.

  @RHF Final Energy:   -78.06484706625685

   => Energetics <=

    Nuclear Repulsion Energy =             33.4040917649943410
    One-Electron Energy =                -170.1228861423832655
    Two-Electron Energy =                  58.6539473111321215
    DFT Exchange-Correlation Energy =       0.0000000000000000
    Empirical Dispersion Energy =           0.0000000000000000
    Total Energy =                        -78.0648470662567888



Properties will be evaluated at   0.000000,   0.000000,   0.000000 Bohr
  ==> Properties <==


Properties computed using the SCF density density matrix
  Nuclear Dipole Moment: (a.u.)
     X:     1.5715      Y:     2.0068      Z:    58.7693

  Electronic Dipole Moment: (a.u.)
     X:    -1.5719      Y:    -2.0088      Z:   -58.7648

  Dipole Moment: (a.u.)
     X:    -0.0004      Y:    -0.0021      Z:     0.0045     Total:     0.0050

  Dipole Moment: (Debye)
     X:    -0.0011      Y:    -0.0053      Z:     0.0115     Total:     0.0127


  Saving occupied orbitals to File 180.

  Saving SAPT 2-MONOMER_B file.

*** tstop() called on pharma.bme.utexas.edu at Thu Feb 27 09:44:31 2014
Module time:
	user time   =     340.90 seconds =       5.68 minutes
	system time =       3.76 seconds =       0.06 minutes
	total time  =         95 seconds =       1.58 minutes
Total time:
	user time   =    2103.03 seconds =      35.05 minutes
	system time =      15.58 seconds =       0.26 minutes
	total time  =        576 seconds =       9.60 minutes
  No DF_BASIS_SAPT auxiliary basis selected, defaulting to aug-cc-pvtz-ri

  //>>>>>>>>>>>>>>>>>>>>>>>>>>>>>>>>>>>//
  //               SAPT2+              //
  //<<<<<<<<<<<<<<<<<<<<<<<<<<<<<<<<<<<//


*** tstart() called on pharma.bme.utexas.edu
*** at Thu Feb 27 09:44:31 2014

        SAPT2+  
    Ed Hohenstein
     6 June 2009

      Orbital Information
  --------------------------
    NSO        =       644
    NMO        =       644
    NRI        =      1428
    NOCC A     =        29
    NOCC B     =         8
    FOCC A     =         8
    FOCC B     =         2
    NVIR A     =       615
    NVIR B     =       636

    Estimated memory usage: 12785.3 MB

    Elst10,r            =    -0.054422535532 H
    Exch10 (S^2)        =     0.119998251820 H
    Exch10              =     0.124378700719 H
    Ind20,r (A<-B)      =    -0.013784815227 H
    Ind20,r (B<-A)      =    -0.072693537428 H
    Ind20,r             =    -0.086478352655 H
    Exch-Ind20,r (A<-B) =     0.011609439317 H
    Exch-Ind20,r (B<-A) =     0.064706378708 H
    Exch-Ind20,r        =     0.076315818026 H
    Disp20              =    -0.051483859098 H
    Exch-Disp20         =     0.012283666251 H
    Elst12,r            =     0.000728364458 H
    Exch11              =     0.002652910256 H
    Exch12              =    -0.002254892240 H
    Ind22               =     0.003819311984 H
    Disp21              =     0.010850386386 H
    Disp22 (SDQ)        =     0.001283346129 H

    (i =   1 of   6)      30272 seconds
    (i =   2 of   6)      60554 seconds
    (i =   3 of   6)      90898 seconds
    (i =   4 of   6)     121077 seconds
    (i =   5 of   6)     151290 seconds
    (i =   6 of   6)     181534 seconds

    Disp220 (T)         =    -0.005388904543 H

    (i =   1 of  21)       3768 seconds
    (i =   2 of  21)       7538 seconds
    (i =   3 of  21)      11279 seconds
    (i =   4 of  21)      15094 seconds
    (i =   5 of  21)      18876 seconds
    (i =   6 of  21)      22594 seconds
    (i =   7 of  21)      26358 seconds
    (i =   8 of  21)      30105 seconds
    (i =   9 of  21)      33914 seconds
    (i =  10 of  21)      37699 seconds
    (i =  11 of  21)      41458 seconds
    (i =  12 of  21)      45251 seconds
    (i =  13 of  21)      49021 seconds
    (i =  14 of  21)      52801 seconds
    (i =  15 of  21)      56547 seconds
    (i =  16 of  21)      60340 seconds
    (i =  17 of  21)      64108 seconds
    (i =  18 of  21)      67851 seconds
    (i =  19 of  21)      71627 seconds
    (i =  20 of  21)      75402 seconds
    (i =  21 of  21)      79224 seconds

    Disp202 (T)         =    -0.003574125633 H

    Disp22 (T)          =    -0.008963030176 H

    SAPT Results  
  -----------------------------------------------------------------------
    Electrostatics         -53.69417107 mH     -33.69360244 kcal mol^-1
      Elst10,r             -54.42253553 mH     -34.15065806 kcal mol^-1
      Elst12,r               0.72836446 mH       0.45705562 kcal mol^-1

    Exchange               124.77671873 mH      78.29857638 kcal mol^-1
      Exch10               124.37870072 mH      78.04881630 kcal mol^-1
      Exch10(S^2)          119.99825182 mH      75.30004300 kcal mol^-1
      Exch11(S^2)            2.65291026 mH       1.66472639 kcal mol^-1
      Exch12(S^2)           -2.25489224 mH      -1.41496630 kcal mol^-1

    Induction              -12.27505377 mH      -7.70271285 kcal mol^-1
      Ind20,r              -86.47835266 mH     -54.26598784 kcal mol^-1
      Ind22                  3.81931198 mH       2.39665455 kcal mol^-1
      Exch-Ind20,r          76.31581803 mH      47.88890081 kcal mol^-1
      Exch-Ind22            -3.37048417 mH      -2.11501083 kcal mol^-1
      delta HF,r (2)        -2.56134696 mH      -1.60726955 kcal mol^-1

    Dispersion             -36.02949051 mH     -22.60884757 kcal mol^-1
      Disp20               -51.48385910 mH     -32.30661068 kcal mol^-1
      Disp21                10.85038639 mH       6.80872054 kcal mol^-1
      Disp22 (SDQ)           1.28334613 mH       0.80531189 kcal mol^-1
      Disp22 (T)            -8.96303018 mH      -5.62438658 kcal mol^-1
      Exch-Disp20           12.28366625 mH       7.70811727 kcal mol^-1

    Total HF                57.23228360 mH      35.91380167 kcal mol^-1
    Total SAPT0             18.03209075 mH      11.31530825 kcal mol^-1
    Total SAPT2             19.60730104 mH      12.30376768 kcal mol^-1
    Total SAPT2+            22.77800338 mH      14.29341351 kcal mol^-1

*** tstop() called on pharma.bme.utexas.edu at Mon Mar  3 04:36:35 2014
Module time:
	user time   = 1167695.58 seconds =   19461.59 minutes
	system time =    1048.77 seconds =      17.48 minutes
	total time  =     327124 seconds =    5452.07 minutes
Total time:
	user time   = 1169798.62 seconds =   19496.64 minutes
	system time =    1064.35 seconds =      17.74 minutes
	total time  =     327700 seconds =    5461.67 minutes

*** PSI4 exiting successfully. Buy a developer a beer!
    -----------------------------------------------------------------------
          PSI4: An Open-Source Ab Initio Electronic Structure Package
                              PSI 4.0.0-beta4 Driver

    J. M. Turney, A. C. Simmonett, R. M. Parrish, E. G. Hohenstein,
    F. A. Evangelista, J. T. Fermann, B. J. Mintz, L. A. Burns, J. J. Wilke,
    M. L. Abrams, N. J. Russ, M. L. Leininger, C. L. Janssen, E. T. Seidl,
    W. D. Allen, H. F. Schaefer, R. A. King, E. F. Valeev, C. D. Sherrill,
    and T. D. Crawford, WIREs Comput. Mol. Sci., (2011) (doi: 10.1002/wcms.93)

                         Additional Contributions by
    A. E. DePrince, M. Saitow, U. Bozkaya, A. Yu. Sokolov
    -----------------------------------------------------------------------

    Process ID:   6995
    PSI4DATADIR: /home/xzhu216/psi4/psi4-install/share/psi

    Using LocalCommunicator (Number of processes = 1)

    Memory level set to 256.000 MB

  ==> Input File <==

--------------------------------------------------------------------------
#psi4
#
memory 30 gb

molecule Uracil_Ethene {
0 1
    N    -0.050873655    -0.980081266     0.033962193
    H    -0.053222049    -1.990693742     0.049821668
    C    -1.308813157    -0.361876381     0.004025957
    O    -2.327219998    -1.032554922    -0.005828865
    C    -1.236818490     1.088048291    -0.012224403
    H    -2.152738973     1.651460442    -0.054774427
    C    -0.035194332     1.697835844     0.033704832
    H     0.070366356     2.772475747     0.031882239
    N     1.134529129     0.990282506     0.091844614
    H     2.023720319     1.456772182     0.155692772
    C     1.193185991    -0.391832869     0.115775123
    O     2.236397967    -1.011188263     0.194185623
--
0 1
    C     0.710334972     0.005107775     2.813333322
    H     1.227452709    -0.865880121     2.436106727
    H     1.315945977     0.792101819     3.240647656
    C    -0.618441529     0.105698223     2.764086393
    H    -1.230444416    -0.681781367     2.347185675
    H    -1.130266520     0.976767814     3.148086158
units angstrom
no_reorient  #important for SAPT in psi4, default
symmetry c1  #important for SAPT in psi4, default
}

set {
basis aug-cc-pVTZ
scf_type DF
freeze_core True
}
energy('sapt2+')
--------------------------------------------------------------------------

  Memory set to  30.000 GiB by Python script.

  //>>>>>>>>>>>>>>>>>>>>>>>>>>>>>>>>>>>//
  //              Dimer HF             //
  //<<<<<<<<<<<<<<<<<<<<<<<<<<<<<<<<<<<//


  No DF_BASIS_SCF auxiliary basis selected, defaulting to aug-cc-pvtz-jkfit


*** tstart() called on pharma.bme.utexas.edu
*** at Thu Feb 27 09:37:19 2014


         ---------------------------------------------------------
                                   SCF
            by Justin Turney, Rob Parrish, and Andy Simmonett
                              RHF Reference
                        4 Threads,  30000 MiB Core
         ---------------------------------------------------------

  ==> Geometry <==

    Molecular point group: c1
    Full point group: C1

    Geometry (in Angstrom), charge = 0, multiplicity = 1:

       Center              X                  Y                   Z       
    ------------   -----------------  -----------------  -----------------
           N         -0.038337658387    -0.960892971662    -0.571801105804
           H         -0.040686052387    -1.971505447662    -0.555941630804
           C         -1.296277160387    -0.342688086662    -0.601737341804
           O         -2.314684001387    -1.013366627662    -0.611592163804
           C         -1.224282493387     1.107236585338    -0.617987701804
           H         -2.140202976387     1.670648736338    -0.660537725804
           C         -0.022658335387     1.717024138338    -0.572058466804
           H          0.082902352613     2.791664041338    -0.573881059804
           N          1.147065125613     1.009470800338    -0.513918684804
           H          2.036256315613     1.475960476338    -0.450070526804
           C          1.205721987613    -0.372644574662    -0.489988175804
           O          2.248933963613    -0.991999968662    -0.411577675804
           C          0.722870968613     0.024296069338     2.207570023196
           H          1.239988705613    -0.846691826662     1.830343428196
           H          1.328481973613     0.811290113338     2.634884357196
           C         -0.605905532387     0.124886517338     2.158323094196
           H         -1.217908419387    -0.662593072662     1.741422376196
           H         -1.117730523387     0.995956108338     2.542322859196

  Running in c1 symmetry.

  Nuclear repulsion =  537.824354366716420

  Charge       = 0
  Multiplicity = 1
  Electrons    = 74
  Nalpha       = 37
  Nbeta        = 37

  ==> Algorithm <==

  SCF Algorithm Type is DF.
  DIIS enabled.
  MOM disabled.
  Fractional occupation disabled.
  Guess Type is CORE.
  Energy threshold   = 1.00e-08
  Density threshold  = 1.00e-08
  Integral threshold = 0.00e+00

  ==> Primary Basis <==

  Basis Set: AUG-CC-PVTZ
    Number of shells: 212
    Number of basis function: 644
    Number of Cartesian functions: 750
    Spherical Harmonics?: true
    Max angular momentum: 3

  ==> Pre-Iterations <==

   -------------------------------------------------------
    Irrep   Nso     Nmo     Nalpha   Nbeta   Ndocc  Nsocc
   -------------------------------------------------------
     A        644     644       0       0       0       0
   -------------------------------------------------------
    Total     644     644      37      37      37       0
   -------------------------------------------------------

 OEINTS: Wrapper to libmints.
   by Justin Turney

   Calculation information:
      Number of atoms:                  18
      Number of AO shells:             212
      Number of SO shells:             212
      Number of primitives:            388
      Number of atomic orbitals:       750
      Number of basis functions:       644

      Number of irreps:                  1
      Number of functions per irrep: [ 644 ]

      Overlap, kinetic, potential, dipole, and quadrupole integrals
        stored in file 35.

  ==> Integral Setup <==

  ==> DFJK: Density-Fitted J/K Matrices <==

    J tasked:                  Yes
    K tasked:                  Yes
    wK tasked:                  No
    OpenMP threads:              4
    Integrals threads:           4
    Memory (MB):             21457
    Algorithm:                Core
    Integral Cache:           SAVE
    Schwarz Cutoff:          0E+00
    Fitting Condition:       1E-12

   => Auxiliary Basis Set <=

  Basis Set: aug-cc-pvtz-jkfit
    Number of shells: 412
    Number of basis function: 1408
    Number of Cartesian functions: 1750
    Spherical Harmonics?: true
    Max angular momentum: 4

  Minimum eigenvalue in the overlap matrix is 2.3975193861E-06.
  Using Symmetric Orthogonalization.
  SCF Guess: Core (One-Electron) Hamiltonian.

  Guess energy:  -403.63454640424891

  ==> Iterations <==

                        Total Energy        Delta E     RMS |[F,P]|

   @RHF iter   1:  -339.66707345895247   -3.39667e+02   2.77578e-02 
   @RHF iter   2:  -130.79169868852921    2.08875e+02   3.01697e-02 DIIS
   @RHF iter   3:  -401.44521059709678   -2.70654e+02   1.50001e-02 DIIS
[...]
     174A      0.973624   175A      0.977821   176A      0.982821  
     177A      0.993361   178A      0.996730   179A      1.013966  
     180A      1.020379   181A      1.024338   182A      1.031720  
     183A      1.038896   184A      1.039770   185A      1.043357  
     186A      1.056033   187A      1.059119   188A      1.066028  
     189A      1.069455   190A      1.073623   191A      1.081540  
     192A      1.092347   193A      1.097053   194A      1.104805  
     195A      1.105835   196A      1.115205   197A      1.118491  
     198A      1.125618   199A      1.125981   200A      1.136565  
     201A      1.139158   202A      1.142759   203A      1.148341  
     204A      1.160686   205A      1.163618   206A      1.167813  
     207A      1.171214   208A      1.178333   209A      1.179445  
     210A      1.183994   211A      1.191375   212A      1.202397  
     213A      1.215804   214A      1.219392   215A      1.227570  
     216A      1.237467   217A      1.243171   218A      1.266548  
     219A      1.273259   220A      1.292500   221A      1.301666  
     222A      1.305317   223A      1.310498   224A      1.314905  
     225A      1.333176   226A      1.343144   227A      1.349441  
     228A      1.354386   229A      1.359881   230A      1.360150  
     231A      1.369349   232A      1.380235   233A      1.384693  
     234A      1.394716   235A      1.407649   236A      1.415742  
     237A      1.416358   238A      1.458574   239A      1.470742  
     240A      1.475982   241A      1.482034   242A      1.493562  
     243A      1.505555   244A      1.514277   245A      1.525810  
     246A      1.539718   247A      1.554679   248A      1.572616  
     249A      1.574193   250A      1.590891   251A      1.593770  
     252A      1.605413   253A      1.619810   254A      1.624426  
     255A      1.630645   256A      1.637213   257A      1.661257  
     258A      1.675488   259A      1.687677   260A      1.692190  
     261A      1.693233   262A      1.698756   263A      1.708043  
     264A      1.717223   265A      1.731994   266A      1.735431  
     267A      1.738248   268A      1.741826   269A      1.748648  
     270A      1.761052   271A      1.765498   272A      1.772735  
     273A      1.781460   274A      1.782884   275A      1.785851  
     276A      1.791033   277A      1.820851   278A      1.826041  
     279A      1.827184   280A      1.834340   281A      1.848782  
     282A      1.854827   283A      1.867193   284A      1.872181  
     285A      1.878237   286A      1.891383   287A      1.900942  
     288A      1.930441   289A      1.937574   290A      1.937956  
     291A      1.958053   292A      1.974117   293A      1.984626  
     294A      1.995521   295A      2.002174   296A      2.010762  
     297A      2.019117   298A      2.035926   299A      2.056205  
     300A      2.069042   301A      2.074114   302A      2.094075  
     303A      2.106998   304A      2.114140   305A      2.121858  
     306A      2.132587   307A      2.135009   308A      2.150413  
     309A      2.159846   310A      2.179069   311A      2.213505  
     312A      2.221275   313A      2.227490   314A      2.232874  
     315A      2.242384   316A      2.257294   317A      2.261853  
     318A      2.283818   319A      2.285801   320A      2.306170  
     321A      2.314683   322A      2.322167   323A      2.327194  
     324A      2.346698   325A      2.355552   326A      2.358049  
     327A      2.388590   328A      2.426473   329A      2.432463  
     330A      2.437680   331A      2.490784   332A      2.508917  
     333A      2.511804   334A      2.522852   335A      2.536651  
     336A      2.564628   337A      2.566970   338A      2.569678  
     339A      2.589819   340A      2.594965   341A      2.613906  
     342A      2.630466   343A      2.640562   344A      2.642901  
     345A      2.663677   346A      2.679075   347A      2.681443  
     348A      2.710096   349A      2.732163   350A      2.732418  
     351A      2.736640   352A      2.758058   353A      2.762814  
     354A      2.769482   355A      2.785196   356A      2.800182  
     357A      2.800951   358A      2.843645   359A      2.848003  
     360A      2.860060   361A      2.872783   362A      2.880702  
     363A      2.893270   364A      2.926178   365A      2.939326  
     366A      2.958447   367A      2.979945   368A      3.009618  
     369A      3.022152   370A      3.026043   371A      3.032774  
     372A      3.057123   373A      3.065338   374A      3.076555  
     375A      3.132055   376A      3.145309   377A      3.156612  
     378A      3.189307   379A      3.210195   380A      3.216666  
     381A      3.237644   382A      3.244283   383A      3.256229  
     384A      3.265148   385A      3.270859   386A      3.284783  
     387A      3.314012   388A      3.333235   389A      3.348592  
     390A      3.350720   391A      3.374590   392A      3.415489  
     393A      3.429830   394A      3.459216   395A      3.473387  
     396A      3.482905   397A      3.485782   398A      3.492200  
     399A      3.553281   400A      3.588412   401A      3.593757  
     402A      3.607434   403A      3.620813   404A      3.631264  
     405A      3.654542   406A      3.663963   407A      3.695676  
     408A      3.712242   409A      3.721680   410A      3.745785  
     411A      3.747385   412A      3.763189   413A      3.771956  
     414A      3.778568   415A      3.795625   416A      3.818865  
     417A      3.851638   418A      3.859698   419A      3.881463  
     420A      3.931964   421A      3.974337   422A      3.987673  
     423A      3.997811   424A      4.016082   425A      4.023094  
     426A      4.046342   427A      4.059680   428A      4.083133  
     429A      4.094362   430A      4.102378   431A      4.114599  
     432A      4.123368   433A      4.128403   434A      4.164716  
     435A      4.183403   436A      4.192794   437A      4.202020  
     438A      4.236748   439A      4.241134   440A      4.248838  
     441A      4.295959   442A      4.322966   443A      4.326215  
     444A      4.328974   445A      4.339637   446A      4.373030  
     447A      4.382043   448A      4.385633   449A      4.394576  
     450A      4.401244   451A      4.479079   452A      4.488133  
     453A      4.497249   454A      4.515665   455A      4.544828  
     456A      4.568775   457A      4.573840   458A      4.587595  
     459A      4.590544   460A      4.610269   461A      4.628427  
     462A      4.646984   463A      4.688648   464A      4.699363  
     465A      4.713107   466A      4.717225   467A      4.747483  
     468A      4.768729   469A      4.800236   470A      4.815257  
     471A      4.838181   472A      4.840484   473A      4.852753  
     474A      4.871677   475A      4.893944   476A      4.922964  
     477A      4.923440   478A      4.944401   479A      4.950237  
     480A      4.951061   481A      4.957174   482A      4.978134  
     483A      4.983165   484A      4.990110   485A      4.997066  
     486A      5.004258   487A      5.020380   488A      5.027582  
     489A      5.052260   490A      5.065037   491A      5.113293  
     492A      5.124282   493A      5.134959   494A      5.150917  
     495A      5.167750   496A      5.201171   497A      5.244952  
     498A      5.251657   499A      5.264961   500A      5.273103  
     501A      5.276561   502A      5.288435   503A      5.291557  
     504A      5.294095   505A      5.297802   506A      5.345904  
     507A      5.383688   508A      5.385441   509A      5.420242  
     510A      5.450618   511A      5.491930   512A      5.501157  
     513A      5.529398   514A      5.542104   515A      5.566424  
     516A      5.581024   517A      5.586614   518A      5.592542  
     519A      5.621066   520A      5.624611   521A      5.633832  
     522A      5.673881   523A      5.692957   524A      5.730729  
     525A      5.818148   526A      5.841971   527A      5.865026  
     528A      5.908029   529A      5.918062   530A      5.946420  
     531A      5.978520   532A      6.003648   533A      6.059834  
     534A      6.095913   535A      6.098350   536A      6.121554  
     537A      6.211868   538A      6.235486   539A      6.238631  
     540A      6.341845   541A      6.399387   542A      6.438805  
     543A      6.460911   544A      6.481259   545A      6.504418  
     546A      6.530098   547A      6.574170   548A      6.582009  
     549A      6.584147   550A      6.600590   551A      6.652609  
     552A      6.670573   553A      6.704947   554A      6.742184  
     555A      6.755432   556A      6.798359   557A      6.843542  
     558A      6.867812   559A      6.902302   560A      6.910774  
     561A      6.956990   562A      6.987732   563A      7.105202  
     564A      7.120171   565A      7.272164   566A      7.333531  
     567A      7.366969   568A      7.432884   569A      7.531188  
     570A      7.549720   571A      7.561556   572A      7.581984  
     573A      7.588888   574A      7.624040   575A      7.640358  
     576A      7.651012   577A      7.659461   578A      7.710750  
     579A      7.748270   580A      7.820128   581A      7.835951  
     582A      7.866187   583A      7.889554   584A      7.903940  
     585A      7.965379   586A      7.979426   587A      8.011721  
     588A      8.022801   589A      8.129061   590A      8.182582  
     591A      8.249764   592A      8.262726   593A      8.334333  
     594A      8.430596   595A      8.565325   596A      8.651444  
     597A      8.712298   598A      8.736555   599A      8.894353  
     600A      9.043453   601A      9.099743   602A      9.238386  
     603A      9.297141   604A      9.425974   605A      9.508564  
     606A      9.531671   607A      9.753517   608A      9.859219  
     609A      9.953698   610A      9.960396   611A     10.038866  
     612A     10.115612   613A     10.157967   614A     10.244093  
     615A     10.393994   616A     10.443974   617A     10.522597  
     618A     10.546378   619A     10.992202   620A     11.230569  
     621A     11.309704   622A     11.446676   623A     12.010410  
     624A     12.038554   625A     12.043965   626A     12.054209  
     627A     12.266659   628A     12.483376   629A     12.702102  
     630A     12.900858   631A     13.309075   632A     13.530378  
     633A     14.179254   634A     14.221471   635A     16.930301  
     636A     17.304259   637A     51.675457   638A     51.907769  
     639A     54.060195   640A     55.100590   641A     60.108427  
     642A     60.842636   643A     69.051628   644A     69.573574  

    Final Occupation by Irrep:
              A 
    DOCC [     8 ]

  @DF-RHF Final Energy:   -78.06467056688744

   => Energetics <=

    Nuclear Repulsion Energy =             33.4040971434768323
    One-Electron Energy =                -170.1216754288994082
    Two-Electron Energy =                  58.6529077185351326
    Total Energy =                        -78.0646705668874432

Computation Completed


Properties will be evaluated at   0.000000,   0.000000,   0.000000 [a0]

Properties computed using the SCF density matrix

  Nuclear Dipole Moment: [e a0]
     X:     3.9086      Y:     4.9811      Z:   145.9865

  Electronic Dipole Moment: [e a0]
     X:    -3.9090      Y:    -4.9829      Z:  -145.9818

  Dipole Moment: [e a0]
     X:    -0.0004      Y:    -0.0018      Z:     0.0046     Total:     0.0050

  Dipole Moment: [D]
     X:    -0.0010      Y:    -0.0046      Z:     0.0118     Total:     0.0127


*** tstop() called on node43.bme.utexas.edu at Fri Apr 24 01:28:09 2020
Module time:
	user time   =      94.02 seconds =       1.57 minutes
	system time =       2.89 seconds =       0.05 minutes
	total time  =         15 seconds =       0.25 minutes
Total time:
	user time   =     597.71 seconds =       9.96 minutes
	system time =      14.32 seconds =       0.24 minutes
	total time  =         86 seconds =       1.43 minutes
  Constructing Basis Sets for SAPT...

   => Loading Basis Set <=

    Name: (AUG-CC-PVTZ AUX)
    Role: RIFIT
    Keyword: DF_BASIS_SAPT
    atoms 1, 9                      entry N          line   206 file /home/liuchw/anaconda3/envs/psi4env/share/psi4/basis/aug-cc-pvtz-ri.gbs 
    atoms 2, 6, 8, 10, 14-15, 17-18 entry H          line    30 file /home/liuchw/anaconda3/envs/psi4env/share/psi4/basis/aug-cc-pvtz-ri.gbs 
    atoms 3, 5, 7, 11, 13, 16       entry C          line   148 file /home/liuchw/anaconda3/envs/psi4env/share/psi4/basis/aug-cc-pvtz-ri.gbs 
    atoms 4, 12                     entry O          line   264 file /home/liuchw/anaconda3/envs/psi4env/share/psi4/basis/aug-cc-pvtz-ri.gbs 


  //>>>>>>>>>>>>>>>>>>>>>>>>>>>>>>>>>>>//
  //               SAPT2+              //
  //<<<<<<<<<<<<<<<<<<<<<<<<<<<<<<<<<<<//


*** tstart() called on node43.bme.utexas.edu
*** at Fri Apr 24 01:28:09 2020

        SAPT2+  
    Ed Hohenstein
     6 June 2009

      Orbital Information
  --------------------------
    NSO        =       644
    NMO        =       644
    NRI        =      1428
    NOCC A     =        29
    NOCC B     =         8
    FOCC A     =         8
    FOCC B     =         2
    NVIR A     =       615
    NVIR B     =       636

    Estimated memory usage: 12785.3 MB

    Natural Orbital Cutoff:   1.000E-06
    Disp(T3) Truncation:            Yes
    CCD (vv|vv) Truncation:         Yes
    MBPT T2 Truncation:             Yes

    Monomer A: 227 virtual orbitals dropped
    Monomer B: 482 virtual orbitals dropped

    Elst10,r            =    -0.000329425120 [Eh]
    Exch10 (S^2)        =     0.000002275567 [Eh]
    Exch10              =     0.000002275579 [Eh]
    Ind20,r (A<-B)      =    -0.000003049947 [Eh]
    Ind20,r (B<-A)      =    -0.000013901925 [Eh]
    Ind20,r             =    -0.000016951872 [Eh]
    Exch-Ind20,r (A<-B) =     0.000000048820 [Eh]
    Exch-Ind20,r (B<-A) =     0.000001128602 [Eh]
    Exch-Ind20,r        =     0.000001177422 [Eh]
    Disp20              =    -0.000305398544 [Eh]
    Disp20 (NO)         =    -0.000296482393 [Eh]
    Exch-Disp20         =     0.000000755359 [Eh]
    Elst12,r            =     0.000110750680 [Eh]
    Exch11              =     0.000000036846 [Eh]
    Exch12              =    -0.000000270366 [Eh]
    Ind22               =     0.000005351882 [Eh]
    Disp21              =     0.000073674681 [Eh]
    Disp22 (SDQ)        =     0.000014738264 [Eh]

    (i =   1 of   6)        366 seconds
    (i =   2 of   6)        739 seconds
    (i =   3 of   6)       1111 seconds
    (i =   4 of   6)       1486 seconds
    (i =   5 of   6)       1857 seconds
    (i =   6 of   6)       2229 seconds

    Disp220 (T)         =    -0.000038366883 [Eh]

    (i =   1 of  21)         17 seconds
    (i =   2 of  21)         34 seconds
    (i =   3 of  21)         50 seconds
    (i =   4 of  21)         67 seconds
    (i =   5 of  21)         84 seconds
    (i =   6 of  21)        100 seconds
    (i =   7 of  21)        117 seconds
    (i =   8 of  21)        133 seconds
    (i =   9 of  21)        150 seconds
    (i =  10 of  21)        167 seconds
    (i =  11 of  21)        183 seconds
    (i =  12 of  21)        200 seconds
    (i =  13 of  21)        217 seconds
    (i =  14 of  21)        233 seconds
    (i =  15 of  21)        250 seconds
    (i =  16 of  21)        266 seconds
    (i =  17 of  21)        283 seconds
    (i =  18 of  21)        300 seconds
    (i =  19 of  21)        317 seconds
    (i =  20 of  21)        334 seconds
    (i =  21 of  21)        350 seconds

    Disp202 (T)         =    -0.000024771945 [Eh]

    Disp22 (T)          =    -0.000063138827 [Eh]

    Est. Disp220 (T)    =    -0.000039520695 [Eh]
    Est. Disp202 (T)    =    -0.000025516914 [Eh]

    Est. Disp22 (T)     =    -0.000065037609 [Eh]

    SAPT Results 
  --------------------------------------------------------------------------------------------------------
    Electrostatics                 -0.21867444 [mEh]      -0.13722028 [kcal/mol]      -0.57412966 [kJ/mol]
      Elst10,r                     -0.32942512 [mEh]      -0.20671738 [kcal/mol]      -0.86490553 [kJ/mol]
      Elst12,r                      0.11075068 [mEh]       0.06949710 [kcal/mol]       0.29077587 [kJ/mol]

    Exchange                        0.00204206 [mEh]       0.00128141 [kcal/mol]       0.00536143 [kJ/mol]
      Exch10                        0.00227558 [mEh]       0.00142795 [kcal/mol]       0.00597453 [kJ/mol]
      Exch10(S^2)                   0.00227557 [mEh]       0.00142794 [kcal/mol]       0.00597450 [kJ/mol]
      Exch11(S^2)                   0.00003685 [mEh]       0.00002312 [kcal/mol]       0.00009674 [kJ/mol]
      Exch12(S^2)                  -0.00027037 [mEh]      -0.00016966 [kcal/mol]      -0.00070985 [kJ/mol]

    Induction                      -0.01169878 [mEh]      -0.00734110 [kcal/mol]      -0.03071515 [kJ/mol]
      Ind20,r                      -0.01695187 [mEh]      -0.01063746 [kcal/mol]      -0.04450713 [kJ/mol]
      Ind22                         0.00535188 [mEh]       0.00335836 [kcal/mol]       0.01405137 [kJ/mol]
      Exch-Ind20,r                  0.00117742 [mEh]       0.00073884 [kcal/mol]       0.00309132 [kJ/mol]
      Exch-Ind22                   -0.00037172 [mEh]      -0.00023326 [kcal/mol]      -0.00097596 [kJ/mol]
      delta HF,r (2)               -0.00090449 [mEh]      -0.00056758 [kcal/mol]      -0.00237474 [kJ/mol]

    Dispersion                     -0.28126785 [mEh]      -0.17649824 [kcal/mol]      -0.73846863 [kJ/mol]
      Disp20                       -0.30539854 [mEh]      -0.19164048 [kcal/mol]      -0.80182377 [kJ/mol]
      Disp21                        0.07367468 [mEh]       0.04623156 [kcal/mol]       0.19343285 [kJ/mol]
      Disp22 (SDQ)                  0.01473826 [mEh]       0.00924840 [kcal/mol]       0.03869531 [kJ/mol]
      Disp22 (T)                   -0.06313883 [mEh]      -0.03962021 [kcal/mol]      -0.16577097 [kJ/mol]
      Est. Disp22 (T)              -0.06503761 [mEh]      -0.04081172 [kcal/mol]      -0.17075622 [kJ/mol]
      Exch-Disp20                   0.00075536 [mEh]       0.00047400 [kcal/mol]       0.00198320 [kJ/mol]

  Total HF                         -0.34382848 [mEh]      -0.21575563 [kcal/mol]      -0.90272156 [kJ/mol]
  Total SAPT0                      -0.64847167 [mEh]      -0.40692211 [kcal/mol]      -1.70256213 [kJ/mol]
  Total SAPT2                      -0.53297435 [mEh]      -0.33444645 [kcal/mol]      -1.39932396 [kJ/mol]
  Total SAPT2+                     -0.50959901 [mEh]      -0.31977821 [kcal/mol]      -1.33795202 [kJ/mol]

  Special recipe for scaled SAPT0 (see Manual):
    Electrostatics sSAPT0          -0.32942512 [mEh]      -0.20671738 [kcal/mol]      -0.86490553 [kJ/mol]
    Exchange sSAPT0                 0.00227558 [mEh]       0.00142795 [kcal/mol]       0.00597453 [kJ/mol]
    Induction sSAPT0               -0.01667894 [mEh]      -0.01046619 [kcal/mol]      -0.04379056 [kJ/mol]
    Dispersion sSAPT0              -0.30464318 [mEh]      -0.19116648 [kcal/mol]      -0.79984057 [kJ/mol]
  Total sSAPT0                     -0.64847167 [mEh]      -0.40692211 [kcal/mol]      -1.70256213 [kJ/mol]
  --------------------------------------------------------------------------------------------------------

*** tstop() called on node43.bme.utexas.edu at Fri Apr 24 02:33:46 2020
Module time:
	user time   =   27298.41 seconds =     454.97 minutes
	system time =     369.94 seconds =       6.17 minutes
	total time  =       3937 seconds =      65.62 minutes
Total time:
	user time   =   27897.03 seconds =     464.95 minutes
	system time =     384.33 seconds =       6.41 minutes
	total time  =       4023 seconds =      67.05 minutes

    Psi4 stopped on: Friday, 24 April 2020 02:33AM
    Psi4 wall time for execution: 1:07:02.92

*** Psi4 exiting successfully. Buy a developer a beer!
