    -----------------------------------------------------------------------
          PSI4: An Open-Source Ab Initio Electronic Structure Package
                              PSI 4.0.0-beta4 Driver

    J. M. Turney, A. C. Simmonett, R. M. Parrish, E. G. Hohenstein,
    F. A. Evangelista, J. T. Fermann, B. J. Mintz, L. A. Burns, J. J. Wilke,
    M. L. Abrams, N. J. Russ, M. L. Leininger, C. L. Janssen, E. T. Seidl,
    W. D. Allen, H. F. Schaefer, R. A. King, E. F. Valeev, C. D. Sherrill,
    and T. D. Crawford, WIREs Comput. Mol. Sci., (2011) (doi: 10.1002/wcms.93)

                         Additional Contributions by
    A. E. DePrince, M. Saitow, U. Bozkaya, A. Yu. Sokolov
    -----------------------------------------------------------------------

    Process ID:  21261
    PSI4DATADIR: /home/xzhu216/psi4/psi4-install/share/psi

    Using LocalCommunicator (Number of processes = 1)

    Memory level set to 256.000 MB

  ==> Input File <==

--------------------------------------------------------------------------
#psi4
#
memory 30 gb

molecule Pentane_Pentane {
0 1
C   -2.533308650  -0.294879067   0.713148758
H   -2.563626820  -0.977081809  -0.136422641
H   -2.566978352  -0.895875900   1.621731768
H   -3.434426110   0.315957131   0.684104472
C   -1.271884866   0.557655468   0.674354677
H   -1.271026303   1.256565714   1.514319405
H   -1.266632549   1.167895814  -0.231826531
C   -0.000135043  -0.278418218   0.719603148
H   -0.000159375  -0.887229516   1.628637086
H   -0.000365425  -0.980714184  -0.119404392
C    1.271894760   0.557382187   0.674061079
H    1.270971755   1.256633312   1.513705410
H    1.266636490   1.167182502  -0.232386925
C    2.533403758  -0.294941760   0.713280149
H    2.563919186  -0.977774101  -0.135778362
H    3.434309555   0.316254316   0.683599450
H    2.567558205  -0.895208868   1.622328649
--
0 1
C    2.533556307   0.288772640   4.819828122
H    2.568140794   0.888579338   3.910502574
H    2.564059618   0.971979217   5.668572943
H    3.434236998  -0.322724666   4.850037062
C    1.271730105  -0.563114631   4.859132374
H    1.266286395  -1.172842344   5.765629334
H    1.270599593  -1.262468375   4.019551312
C   -0.000044885   0.272984469   4.813515934
H   -0.000199812   0.975294447   5.652500408
H    0.000032011   0.881760888   3.904446299
C   -1.271805724  -0.563157510   4.858787472
H   -1.266423484  -1.173266959   5.765037575
H   -1.270699384  -1.262180402   4.018923819
C   -2.533524954   0.288888799   4.819809766
H   -2.567718256   0.889422467   3.910933008
H   -3.434326930  -0.322409556   4.849322948
H   -2.564064488   0.971475039   5.669071156
units angstrom
no_reorient  #important for SAPT in psi4, default
symmetry c1  #important for SAPT in psi4, default
}

set {
basis aug-cc-pVTZ
scf_type DF
freeze_core True
}
energy('sapt2+')
--------------------------------------------------------------------------

  Memory set to  30.000 GiB by Python script.

  //>>>>>>>>>>>>>>>>>>>>>>>>>>>>>>>>>>>//
  //              Dimer HF             //
  //<<<<<<<<<<<<<<<<<<<<<<<<<<<<<<<<<<<//


  No DF_BASIS_SCF auxiliary basis selected, defaulting to aug-cc-pvtz-jkfit


*** tstart() called on bigdata.bme.utexas.edu
*** at Tue Jan 14 12:55:56 2014


         ---------------------------------------------------------
                                   SCF
            by Justin Turney, Rob Parrish, and Andy Simmonett
                              RHF Reference
                        8 Threads,  30000 MiB Core
         ---------------------------------------------------------

  ==> Geometry <==

    Molecular point group: c1
    Full point group: C1

    Geometry (in Angstrom), charge = 0, multiplicity = 1:

       Center              X                  Y                   Z       
    ------------   -----------------  -----------------  -----------------
           C         -2.533299452387    -0.291985189729    -2.053402581037
           H         -2.563617622387    -0.974187931729    -2.902973980037
           H         -2.566969154387    -0.892982022729    -1.144819571037
           H         -3.434416912387     0.318851008271    -2.082446867037
           C         -1.271875668387     0.560549345271    -2.092196662037
           H         -1.271017105387     1.259459591271    -1.252231934037
           H         -1.266623351387     1.170789691271    -2.998377870037
           C         -0.000125845387    -0.275524340729    -2.046948191037
           H         -0.000150177387    -0.884335638729    -1.137914253037
           H         -0.000356227387    -0.977820306729    -2.885955731037
           C          1.271903957613     0.560276064271    -2.092490260037
           H          1.270980952613     1.259527189271    -1.252845929037
           H          1.266645687613     1.170076379271    -2.998938264037
           C          2.533412955613    -0.292047882729    -2.053271190037
           H          2.563928383613    -0.974880223729    -2.902329701037
           H          3.434318752613     0.319148193271    -2.082951889037
           H          2.567567402613    -0.892314990729    -1.144222690037
           C          2.533565504613     0.291666517271     2.053276782963
           H          2.568149991613     0.891473215271     1.143951234963
           H          2.564068815613     0.974873094271     2.902021603963
           H          3.434246195613    -0.319830788729     2.083485722963
           C          1.271739302613    -0.560220753729     2.092581034963
           H          1.266295592613    -1.169948466729     2.999077994963
           H          1.270608790613    -1.259574497729     1.252999972963
           C         -0.000035687387     0.275878346271     2.046964594963
           H         -0.000190614387     0.978188324271     2.885949068963
           H          0.000041208613     0.884654765271     1.137894959963
           C         -1.271796526387    -0.560263632729     2.092236132963
           H         -1.266414286387    -1.170373081729     2.998486235963
           H         -1.270690186387    -1.259286524729     1.252372479963
           C         -2.533515756387     0.291782676271     2.053258426963
           H         -2.567709058387     0.892316344271     1.144381668963
           H         -3.434317732387    -0.319515678729     2.082771608963
           H         -2.564055290387     0.974368916271     2.902519816963

  Running in c1 symmetry.

  Nuclear repulsion =  566.018559765397868

  Charge       = 0
  Multiplicity = 1
  Electrons    = 84
  Nalpha       = 42
  Nbeta        = 42

  ==> Algorithm <==

  SCF Algorithm Type is DF.
  DIIS enabled.
  MOM disabled.
  Fractional occupation disabled.
  Guess Type is CORE.
  Energy threshold   = 1.00e-08
  Density threshold  = 1.00e-08
  Integral threshold = 0.00e+00

  ==> Primary Basis <==

  Basis Set: AUG-CC-PVTZ
    Number of shells: 356
    Number of basis function: 1012
    Number of Cartesian functions: 1150
    Spherical Harmonics?: true
    Max angular momentum: 3

  ==> Pre-Iterations <==

   -------------------------------------------------------
    Irrep   Nso     Nmo     Nalpha   Nbeta   Ndocc  Nsocc
   -------------------------------------------------------
     A       1012    1012       0       0       0       0
   -------------------------------------------------------
    Total    1012    1012      42      42      42       0
   -------------------------------------------------------

 OEINTS: Wrapper to libmints.
   by Justin Turney

   Calculation information:
      Number of atoms:                  34
      Number of AO shells:             356
      Number of SO shells:             356
      Number of primitives:            564
      Number of atomic orbitals:      1150
      Number of basis functions:      1012

      Number of irreps:                  1
      Number of functions per irrep: [1012 ]

      Overlap, kinetic, potential, dipole, and quadrupole integrals
        stored in file 35.

  ==> Integral Setup <==

  ==> DFJK: Density-Fitted J/K Matrices <==

    J tasked:                  Yes
    K tasked:                  Yes
    wK tasked:                  No
    OpenMP threads:              8
    Integrals threads:           8
    Memory (MB):             21457
    Algorithm:                Core
    Integral Cache:           SAVE
    Schwarz Cutoff:          0E+00
    Fitting Condition:       1E-12

   => Auxiliary Basis Set <=

  Basis Set: aug-cc-pvtz-jkfit
    Number of shells: 636
    Number of basis function: 2144
    Number of Cartesian functions: 2630
    Spherical Harmonics?: true
    Max angular momentum: 4

  Minimum eigenvalue in the overlap matrix is 1.6739642572E-06.
  Using Symmetric Orthogonalization.
  SCF Guess: Core (One-Electron) Hamiltonian.

  Guess energy:  -332.40437570446329

  ==> Iterations <==

                        Total Energy        Delta E     RMS |[F,P]|

   @RHF iter   1:  -227.93243573361724   -2.27932e+02   1.78991e-02 
   @RHF iter   2:  -264.79964778628096   -3.68672e+01   8.61555e-03 DIIS
   @RHF iter   3:  -297.19924241367778   -3.23996e+01   1.02503e-02 DIIS
   @RHF iter   4:  -383.48423422345672   -8.62850e+01   3.88370e-03 DIIS
   @RHF iter   5:  -391.69975347506625   -8.21552e+00   1.23872e-03 DIIS
   @RHF iter   6:  -392.72254490317891   -1.02279e+00   3.21130e-04 DIIS
   @RHF iter   7:  -392.80151071289538   -7.89658e-02   7.75730e-05 DIIS
   @RHF iter   8:  -392.80623448860888   -4.72378e-03   2.31209e-05 DIIS
   @RHF iter   9:  -392.80674012551981   -5.05637e-04   6.77784e-06 DIIS
   @RHF iter  10:  -392.80678769748113   -4.75720e-05   1.83818e-06 DIIS
   @RHF iter  11:  -392.80679081256994   -3.11509e-06   3.81753e-07 DIIS
   @RHF iter  12:  -392.80679095024561   -1.37676e-07   7.59096e-08 DIIS
   @RHF iter  13:  -392.80679095658047   -6.33486e-09   2.02453e-08 DIIS
   @RHF iter  14:  -392.80679095700930   -4.28827e-10   4.13586e-09 DIIS

  ==> Post-Iterations <==

	Orbital Energies (a.u.)
	-----------------------

	Doubly Occupied:                                                      

	   1A    -11.213251     2A    -11.213250     3A    -11.213181  
	   4A    -11.213179     5A    -11.210749     6A    -11.210748  
	   7A    -11.207311     8A    -11.207308     9A    -11.207307  
	  10A    -11.207306    11A     -1.083206    12A     -1.080750  
	  13A     -1.017103    14A     -1.014824    15A     -0.920635  
	  16A     -0.918387    17A     -0.820447    18A     -0.820431  
	  19A     -0.787492    20A     -0.784182    21A     -0.656597  
	  22A     -0.639969    23A     -0.600622    24A     -0.599930  
	  25A     -0.597947    26A     -0.586654    27A     -0.555058  
	  28A     -0.553903    29A     -0.547888    30A     -0.547618  
	  31A     -0.531469    32A     -0.521286    33A     -0.495864  
	  34A     -0.494069    35A     -0.478168    36A     -0.474993  
	  37A     -0.466203    38A     -0.465756    39A     -0.458859  
	  40A     -0.453626    41A     -0.447665    42A     -0.446970  

	Virtual:                                                              

	  43A      0.029602    44A      0.031795    45A      0.032970  
	  46A      0.033657    47A      0.042789    48A      0.045437  
	  49A      0.046438    50A      0.048639    51A      0.056715  
	  52A      0.061113    53A      0.063341    54A      0.064133  
	  55A      0.067220    56A      0.071769    57A      0.078135  
	  58A      0.081678    59A      0.084445    60A      0.086109  
	  61A      0.088865    62A      0.092396    63A      0.102414  
	  64A      0.102848    65A      0.111156    66A      0.112670  
	  67A      0.116695    68A      0.117273    69A      0.124647  
	  70A      0.126297    71A      0.126995    72A      0.128091  
	  73A      0.135646    74A      0.136783    75A      0.140265  
	  76A      0.145572    77A      0.145870    78A      0.148354  
	  79A      0.149057    80A      0.154827    81A      0.158993  
	  82A      0.161706    83A      0.165084    84A      0.166411  
	  85A      0.169480    86A      0.169507    87A      0.177279  
	  88A      0.181317    89A      0.184697    90A      0.185356  
	  91A      0.189867    92A      0.192143    93A      0.192895  
	  94A      0.197790    95A      0.203911    96A      0.207290  
	  97A      0.214081    98A      0.218053    99A      0.218990  
	 100A      0.228270   101A      0.231682   102A      0.232331  
	 103A      0.236622   104A      0.253127   105A      0.255107  
	 106A      0.257002   107A      0.261970   108A      0.263138  
	 109A      0.264150   110A      0.274894   111A      0.281998  
	 112A      0.285158   113A      0.289530   114A      0.291236  
	 115A      0.298447   116A      0.299283   117A      0.300458  
	 118A      0.309626   119A      0.310601   120A      0.314188  
	 121A      0.316808   122A      0.322377   123A      0.324616  
	 124A      0.326508   125A      0.332916   126A      0.333804  
	 127A      0.339073   128A      0.344372   129A      0.345483  
	 130A      0.353469   131A      0.353540   132A      0.353574  
	 133A      0.354657   134A      0.359294   135A      0.362037  
	 136A      0.365917   137A      0.366534   138A      0.369888  
	 139A      0.374844   140A      0.375318   141A      0.377478  
	 142A      0.385195   143A      0.388495   144A      0.390617  
	 145A      0.392756   146A      0.393513   147A      0.395503  
	 148A      0.399721   149A      0.405820   150A      0.406161  
	 151A      0.409924   152A      0.414076   153A      0.415110  
	 154A      0.424053   155A      0.426091   156A      0.430750  
	 157A      0.433077   158A      0.433518   159A      0.434678  
	 160A      0.438610   161A      0.447731   162A      0.453548  
	 163A      0.453749   164A      0.454454   165A      0.458636  
	 166A      0.459202   167A      0.460289   168A      0.465643  
	 169A      0.472791   170A      0.472866   171A      0.474431  
	 172A      0.482149   173A      0.482385   174A      0.485537  
	 175A      0.489034   176A      0.493662   177A      0.498446  
	 178A      0.499719   179A      0.502086   180A      0.504723  
	 181A      0.508576   182A      0.511590   183A      0.511782  
	 184A      0.516626   185A      0.517902   186A      0.521705  
	 187A      0.522914   188A      0.529469   189A      0.531982  
	 190A      0.532614   191A      0.542635   192A      0.542867  
	 193A      0.542933   194A      0.547584   195A      0.547858  
	 196A      0.553724   197A      0.558843   198A      0.562148  
	 199A      0.564031   200A      0.564223   201A      0.570434  
	 202A      0.571173   203A      0.577312   204A      0.580258  
	 205A      0.586516   206A      0.590618   207A      0.592294  
	 208A      0.597671   209A      0.600625   210A      0.604099  
	 211A      0.609677   212A      0.609899   213A      0.610795  
	 214A      0.620722   215A      0.626207   216A      0.626868  
	 217A      0.630678   218A      0.637123   219A      0.640463  
	 220A      0.649401   221A      0.649531   222A      0.653651  
	 223A      0.656679   224A      0.661923   225A      0.669808  
	 226A      0.672513   227A      0.675681   228A      0.678537  
	 229A      0.684173   230A      0.692024   231A      0.694063  
	 232A      0.695333   233A      0.696795   234A      0.707031  
	 235A      0.707240   236A      0.708106   237A      0.710446  
	 238A      0.710530   239A      0.722072   240A      0.722198  
	 241A      0.724167   242A      0.727948   243A      0.728722  
	 244A      0.732178   245A      0.737652   246A      0.749324  
	 247A      0.754725   248A      0.759751   249A      0.768527  
	 250A      0.768922   251A      0.772871   252A      0.774444  
	 253A      0.778360   254A      0.787363   255A      0.799204  
	 256A      0.809833   257A      0.812191   258A      0.815419  
	 259A      0.821568   260A      0.823667   261A      0.828090  
	 262A      0.828774   263A      0.831431   264A      0.837505  
	 265A      0.841326   266A      0.850644   267A      0.863221  
	 268A      0.865067   269A      0.867845   270A      0.871194  
	 271A      0.878757   272A      0.880319   273A      0.881513  
	 274A      0.885255   275A      0.887877   276A      0.891958  
	 277A      0.896041   278A      0.901244   279A      0.903922  
	 280A      0.907451   281A      0.908453   282A      0.911361  
	 283A      0.914986   284A      0.925633   285A      0.925641  
	 286A      0.930708   287A      0.935669   288A      0.936296  
	 289A      0.940033   290A      0.948576   291A      0.948706  
	 292A      0.952304   293A      0.958097   294A      0.958284  
	 295A      0.962034   296A      0.965164   297A      0.968800  
	 298A      0.973015   299A      0.974615   300A      0.986125  
	 301A      0.987519   302A      0.993932   303A      1.002184  
	 304A      1.003514   305A      1.005157   306A      1.019396  
	 307A      1.022199   308A      1.024683   309A      1.025636  
	 310A      1.028483   311A      1.042099   312A      1.045574  
	 313A      1.049434   314A      1.050548   315A      1.050894  
	 316A      1.054214   317A      1.055449   318A      1.062764  
	 319A      1.074802   320A      1.075177   321A      1.075315  
	 322A      1.080473   323A      1.085782   324A      1.086572  
	 325A      1.090195   326A      1.090455   327A      1.100640  
	 328A      1.104685   329A      1.107716   330A      1.113779  
	 331A      1.115221   332A      1.116501   333A      1.119632  
	 334A      1.128667   335A      1.131554   336A      1.137920  
	 337A      1.138520   338A      1.144078   339A      1.150551  
	 340A      1.151809   341A      1.159508   342A      1.159773  
	 343A      1.164502   344A      1.164898   345A      1.166753  
	 346A      1.170796   347A      1.178880   348A      1.180547  
	 349A      1.182859   350A      1.190409   351A      1.199546  
	 352A      1.202792   353A      1.206034   354A      1.209180  
	 355A      1.214926   356A      1.222377   357A      1.222695  
	 358A      1.227307   359A      1.227846   360A      1.234812  
	 361A      1.236347   362A      1.239965   363A      1.241133  
	 364A      1.249508   365A      1.252248   366A      1.253707  
	 367A      1.254564   368A      1.266858   369A      1.271105  
	 370A      1.274433   371A      1.276903   372A      1.284089  
	 373A      1.285524   374A      1.290989   375A      1.296166  
	 376A      1.297405   377A      1.303258   378A      1.309397  
	 379A      1.312035   380A      1.313967   381A      1.315549  
	 382A      1.326856   383A      1.329834   384A      1.330559  
	 385A      1.344271   386A      1.344318   387A      1.349177  
	 388A      1.353387   389A      1.368574   390A      1.368993  
	 391A      1.374081   392A      1.375604   393A      1.377438  
	 394A      1.387184   395A      1.392552   396A      1.396879  
	 397A      1.397402   398A      1.404483   399A      1.405700  
	 400A      1.417548   401A      1.424037   402A      1.431099  
	 403A      1.435599   404A      1.438888   405A      1.439882  
	 406A      1.442518   407A      1.445477   408A      1.448279  
	 409A      1.449666   410A      1.454218   411A      1.466820  
	 412A      1.475350   413A      1.475592   414A      1.478619  
	 415A      1.482578   416A      1.497477   417A      1.505162  
	 418A      1.511665   419A      1.515634   420A      1.518411  
	 421A      1.519176   422A      1.520603   423A      1.533977  
	 424A      1.539317   425A      1.542291   426A      1.546120  
	 427A      1.553078   428A      1.557155   429A      1.558196  
	 430A      1.568345   431A      1.581498   432A      1.590373  
	 433A      1.601040   434A      1.602379   435A      1.603503  
	 436A      1.608335   437A      1.612580   438A      1.623427  
	 439A      1.626135   440A      1.631288   441A      1.642219  
	 442A      1.644375   443A      1.651164   444A      1.652061  
	 445A      1.652688   446A      1.654417   447A      1.664096  
	 448A      1.667090   449A      1.679779   450A      1.680556  
	 451A      1.683756   452A      1.684796   453A      1.691155  
	 454A      1.694560   455A      1.700198   456A      1.704515  
	 457A      1.712509   458A      1.712782   459A      1.716610  
	 460A      1.719990   461A      1.720848   462A      1.722640  
	 463A      1.729250   464A      1.750372   465A      1.754149  
	 466A      1.765610   467A      1.772491   468A      1.776263  
	 469A      1.776511   470A      1.782040   471A      1.785963  
	 472A      1.787253   473A      1.788232   474A      1.788478  
	 475A      1.790100   476A      1.805200   477A      1.805357  
	 478A      1.805546   479A      1.811306   480A      1.813436  
	 481A      1.816771   482A      1.817187   483A      1.831339  
	 484A      1.831633   485A      1.848132   486A      1.855452  
	 487A      1.858417   488A      1.858478   489A      1.864057  
	 490A      1.871746   491A      1.872050   492A      1.877128  
	 493A      1.885066   494A      1.898849   495A      1.899513  
	 496A      1.901054   497A      1.905944   498A      1.907839  
	 499A      1.916860   500A      1.918066   501A      1.935906  
	 502A      1.936941   503A      1.944786   504A      1.947078  
	 505A      1.948112   506A      1.954173   507A      1.956458  
	 508A      1.963665   509A      1.967562   510A      1.969892  
	 511A      1.972543   512A      1.978799   513A      1.987583  
	 514A      1.989119   515A      1.994468   516A      1.998272  
	 517A      2.001129   518A      2.005559   519A      2.014950  
	 520A      2.018514   521A      2.033846   522A      2.039863  
	 523A      2.044695   524A      2.047932   525A      2.051718  
	 526A      2.053217   527A      2.054240   528A      2.057044  
	 529A      2.065536   530A      2.066326   531A      2.080948  
	 532A      2.084732   533A      2.088020   534A      2.114437  
	 535A      2.115908   536A      2.117269   537A      2.127637  
	 538A      2.131850   539A      2.141575   540A      2.146002  
	 541A      2.158131   542A      2.159383   543A      2.169399  
	 544A      2.181867   545A      2.187916   546A      2.189912  
	 547A      2.199614   548A      2.200738   549A      2.206664  
	 550A      2.207363   551A      2.221178   552A      2.227512  
	 553A      2.232300   554A      2.238246   555A      2.241261  
	 556A      2.242755   557A      2.246482   558A      2.246728  
	 559A      2.256600   560A      2.257555   561A      2.276858  
	 562A      2.281270   563A      2.290662   564A      2.293318  
	 565A      2.295104   566A      2.301156   567A      2.313752  
	 568A      2.314472   569A      2.324773   570A      2.327526  
	 571A      2.328309   572A      2.342444   573A      2.346218  
	 574A      2.353164   575A      2.375763   576A      2.375813  
	 577A      2.376970   578A      2.395948   579A      2.399594  
	 580A      2.403403   581A      2.409615   582A      2.414401  
	 583A      2.430182   584A      2.438614   585A      2.444757  
	 586A      2.457063   587A      2.460957   588A      2.463158  
	 589A      2.468173   590A      2.486580   591A      2.487914  
	 592A      2.490612   593A      2.493312   594A      2.498950  
	 595A      2.515600   596A      2.521267   597A      2.524747  
	 598A      2.527012   599A      2.530706   600A      2.547291  
	 601A      2.554988   602A      2.565230   603A      2.573876  
	 604A      2.580275   605A      2.581587   606A      2.597689  
	 607A      2.605720   608A      2.613116   609A      2.632827  
	 610A      2.658844   611A      2.666436   612A      2.669212  
	 613A      2.684065   614A      2.702004   615A      2.721200  
	 616A      2.734441   617A      2.740403   618A      2.746018  
	 619A      2.754655   620A      2.766356   621A      2.774915  
	 622A      2.775738   623A      2.839512   624A      2.857345  
	 625A      2.891759   626A      2.904180   627A      2.917412  
	 628A      2.977896   629A      2.978097   630A      2.983769  
	 631A      2.989958   632A      3.006928   633A      3.088717  
	 634A      3.106496   635A      3.195702   636A      3.246239  
	 637A      3.308056   638A      3.313731   639A      3.320702  
	 640A      3.328603   641A      3.367915   642A      3.388922  
	 643A      3.420709   644A      3.421529   645A      3.479792  
	 646A      3.484261   647A      3.497566   648A      3.498006  
	 649A      3.502346   650A      3.505306   651A      3.521517  
	 652A      3.537141   653A      3.556504   654A      3.564068  
	 655A      3.565764   656A      3.572825   657A      3.591777  
	 658A      3.592098   659A      3.596915   660A      3.609602  
	 661A      3.611593   662A      3.633189   663A      3.633914  
	 664A      3.636247   665A      3.647435   666A      3.649175  
	 667A      3.657412   668A      3.663100   669A      3.686771  
	 670A      3.692237   671A      3.700869   672A      3.702529  
	 673A      3.705060   674A      3.716239   675A      3.719113  
	 676A      3.730842   677A      3.730927   678A      3.731101  
	 679A      3.743221   680A      3.745207   681A      3.749381  
	 682A      3.765306   683A      3.780022   684A      3.788160  
	 685A      3.788575   686A      3.799027   687A      3.806403  
	 688A      3.812495   689A      3.813997   690A      3.818586  
	 691A      3.823611   692A      3.827981   693A      3.831226  
	 694A      3.831435   695A      3.841077   696A      3.847752  
	 697A      3.878477   698A      3.887861   699A      3.891715  
	 700A      3.897486   701A      3.907728   702A      3.908981  
	 703A      3.911674   704A      3.926620   705A      3.933961  
	 706A      3.934195   707A      3.941213   708A      3.943552  
	 709A      3.951910   710A      3.955323   711A      3.962016  
	 712A      3.963395   713A      3.977379   714A      3.978524  
	 715A      3.979145   716A      3.987795   717A      3.992200  
	 718A      3.996963   719A      4.005086   720A      4.009065  
	 721A      4.014779   722A      4.026532   723A      4.043153  
	 724A      4.047089   725A      4.047388   726A      4.050566  
	 727A      4.051574   728A      4.055061   729A      4.074957  
	 730A      4.080176   731A      4.085575   732A      4.087725  
	 733A      4.091731   734A      4.092094   735A      4.093312  
	 736A      4.095332   737A      4.105018   738A      4.111075  
	 739A      4.118924   740A      4.119670   741A      4.124099  
	 742A      4.124725   743A      4.125159   744A      4.151344  
	 745A      4.151827   746A      4.163270   747A      4.167273  
	 748A      4.170625   749A      4.177709   750A      4.181660  
	 751A      4.188255   752A      4.213691   753A      4.214532  
	 754A      4.220678   755A      4.232777   756A      4.242854  
	 757A      4.245660   758A      4.258563   759A      4.261992  
	 760A      4.264596   761A      4.280876   762A      4.291835  
	 763A      4.291939   764A      4.295361   765A      4.300274  
	 766A      4.308034   767A      4.310537   768A      4.310686  
	 769A      4.312068   770A      4.339337   771A      4.339383  
	 772A      4.343164   773A      4.345195   774A      4.361858  
	 775A      4.363139   776A      4.366387   777A      4.377764  
	 778A      4.384038   779A      4.391941   780A      4.401673  
	 781A      4.410090   782A      4.421236   783A      4.433314  
	 784A      4.442366   785A      4.444790   786A      4.447398  
	 787A      4.476940   788A      4.478642   789A      4.486906  
	 790A      4.490700   791A      4.490937   792A      4.511251  
	 793A      4.516378   794A      4.526655   795A      4.527623  
	 796A      4.570428   797A      4.571174   798A      4.571284  
	 799A      4.585138   800A      4.609412   801A      4.612432  
	 802A      4.616847   803A      4.620483   804A      4.640665  
	 805A      4.662907   806A      4.663780   807A      4.680317  
	 808A      4.689435   809A      4.693165   810A      4.698149  
	 811A      4.705172   812A      4.718060   813A      4.724505  
	 814A      4.725336   815A      4.726425   816A      4.734869  
	 817A      4.735569   818A      4.747411   819A      4.749009  
	 820A      4.754401   821A      4.763243   822A      4.781622  
	 823A      4.787705   824A      4.787786   825A      4.800384  
	 826A      4.815599   827A      4.832643   828A      4.836872  
	 829A      4.853348   830A      4.858298   831A      4.862403  
	 832A      4.884216   833A      4.885176   834A      4.889181  
	 835A      4.901697   836A      4.917228   837A      4.918417  
	 838A      4.921380   839A      4.929796   840A      4.939557  
	 841A      4.940345   842A      4.947133   843A      4.954384  
	 844A      4.955739   845A      4.970807   846A      4.976676  
	 847A      4.989817   848A      5.030939   849A      5.031579  
	 850A      5.036767   851A      5.041502   852A      5.048540  
	 853A      5.049009   854A      5.073588   855A      5.089549  
	 856A      5.100401   857A      5.102466   858A      5.103386  
	 859A      5.105254   860A      5.132453   861A      5.134210  
	 862A      5.143867   863A      5.152461   864A      5.160374  
	 865A      5.168735   866A      5.191138   867A      5.200695  
	 868A      5.212396   869A      5.215207   870A      5.221025  
	 871A      5.230097   872A      5.239532   873A      5.256321  
	 874A      5.257142   875A      5.273146   876A      5.284481  
	 877A      5.288606   878A      5.288980   879A      5.303458  
	 880A      5.312854   881A      5.313805   882A      5.314192  
	 883A      5.317138   884A      5.336577   885A      5.351731  
	 886A      5.354978   887A      5.361610   888A      5.368237  
	 889A      5.370813   890A      5.370968   891A      5.377604  
	 892A      5.392691   893A      5.402807   894A      5.410686  
	 895A      5.414889   896A      5.416461   897A      5.433776  
	 898A      5.433889   899A      5.441585   900A      5.442532  
	 901A      5.467744   902A      5.469288   903A      5.474379  
	 904A      5.483399   905A      5.485430   906A      5.492920  
	 907A      5.504790   908A      5.523592   909A      5.528203  
	 910A      5.532357   911A      5.548480   912A      5.561862  
	 913A      5.563396   914A      5.570056   915A      5.601020  
	 916A      5.612929   917A      5.618209   918A      5.627932  
	 919A      5.631431   920A      5.638877   921A      5.640933  
	 922A      5.655419   923A      5.669146   924A      5.673006  
	 925A      5.707124   926A      5.717324   927A      5.723154  
	 928A      5.724019   929A      5.732500   930A      5.750256  
	 931A      5.764076   932A      5.773639   933A      5.779550  
	 934A      5.785425   935A      5.808245   936A      5.810540  
	 937A      5.817437   938A      5.846808   939A      5.848682  
	 940A      5.853034   941A      5.853493   942A      5.863827  
	 943A      5.874352   944A      5.877582   945A      5.899216  
	 946A      5.909082   947A      5.928640   948A      5.933232  
	 949A      5.956498   950A      5.970569   951A      5.988254  
	 952A      6.014706   953A      6.017552   954A      6.029075  
	 955A      6.048256   956A      6.052961   957A      6.102190  
	 958A      6.127269   959A      6.165960   960A      6.176801  
	 961A      6.205249   962A      6.222429   963A      6.231723  
	 964A      6.244789   965A      6.263919   966A      6.264245  
	 967A      6.278101   968A      6.282680   969A      6.283210  
	 970A      6.294682   971A      6.314017   972A      6.340036  
	 973A      6.342422   974A      6.344050   975A      6.345155  
	 976A      6.361900   977A      6.361986   978A      6.409753  
	 979A      6.426639   980A      6.453190   981A      6.454535  
	 982A      6.486979   983A      6.543456   984A      6.555862  
	 985A      6.727249   986A      6.727662   987A      6.744129  
	 988A      6.763597   989A      6.842372   990A      6.883888  
	 991A      6.889544   992A      6.891452   993A      6.897100  
	 994A      6.912941   995A      6.936999   996A      6.976970  
	 997A      6.977281   998A      7.003250   999A      7.081774  
	1000A      7.092243  1001A      7.152850  1002A      7.164530  
	1003A     17.991381  1004A     18.088650  1005A     18.241242  
	1006A     18.283936  1007A     18.350870  1008A     18.534441  
	1009A     18.697700  1010A     18.749623  1011A     19.538580  
	1012A     19.573181  

	Final Occupation by Irrep:
	          A 
	DOCC [    42 ]

  Energy converged.

  @RHF Final Energy:  -392.80679095700930

   => Energetics <=

    Nuclear Repulsion Energy =            566.0185597653978675
    One-Electron Energy =               -1651.7064076036642746
    Two-Electron Energy =                 692.8810568812566544
    DFT Exchange-Correlation Energy =       0.0000000000000000
    Empirical Dispersion Energy =           0.0000000000000000
    Total Energy =                       -392.8067909570097527



Properties will be evaluated at   0.000000,   0.000000,   0.000000 Bohr
  ==> Properties <==


Properties computed using the SCF density density matrix
  Nuclear Dipole Moment: (a.u.)
     X:     0.0003      Y:    -0.0012      Z:    -0.0001

  Electronic Dipole Moment: (a.u.)
     X:    -0.0003      Y:     0.0012      Z:     0.0001

  Dipole Moment: (a.u.)
     X:    -0.0000      Y:    -0.0000      Z:     0.0000     Total:     0.0000

  Dipole Moment: (Debye)
     X:    -0.0000      Y:    -0.0000      Z:     0.0000     Total:     0.0000


  Saving occupied orbitals to File 180.

  Saving SAPT 2-DIMER file.

*** tstop() called on bigdata.bme.utexas.edu at Tue Jan 14 13:00:47 2014
Module time:
	user time   =    1943.72 seconds =      32.40 minutes
	system time =      26.08 seconds =       0.43 minutes
	total time  =        291 seconds =       4.85 minutes
Total time:
	user time   =    1943.72 seconds =      32.40 minutes
	system time =      26.08 seconds =       0.43 minutes
	total time  =        291 seconds =       4.85 minutes

  //>>>>>>>>>>>>>>>>>>>>>>>>>>>>>>>>>>>//
  //            Monomer A HF           //
  //<<<<<<<<<<<<<<<<<<<<<<<<<<<<<<<<<<<//


  No DF_BASIS_SCF auxiliary basis selected, defaulting to aug-cc-pvtz-jkfit


*** tstart() called on bigdata.bme.utexas.edu
*** at Tue Jan 14 13:00:47 2014


         ---------------------------------------------------------
                                   SCF
            by Justin Turney, Rob Parrish, and Andy Simmonett
                              RHF Reference
                        8 Threads,  30000 MiB Core
         ---------------------------------------------------------

  ==> Geometry <==

    Molecular point group: c1
    Full point group: C1

    Geometry (in Angstrom), charge = 0, multiplicity = 1:

       Center              X                  Y                   Z       
    ------------   -----------------  -----------------  -----------------
           C         -2.533299452387    -0.291985189729    -2.053402581037
           H         -2.563617622387    -0.974187931729    -2.902973980037
           H         -2.566969154387    -0.892982022729    -1.144819571037
           H         -3.434416912387     0.318851008271    -2.082446867037
           C         -1.271875668387     0.560549345271    -2.092196662037
           H         -1.271017105387     1.259459591271    -1.252231934037
           H         -1.266623351387     1.170789691271    -2.998377870037
           C         -0.000125845387    -0.275524340729    -2.046948191037
           H         -0.000150177387    -0.884335638729    -1.137914253037
           H         -0.000356227387    -0.977820306729    -2.885955731037
           C          1.271903957613     0.560276064271    -2.092490260037
           H          1.270980952613     1.259527189271    -1.252845929037
           H          1.266645687613     1.170076379271    -2.998938264037
           C          2.533412955613    -0.292047882729    -2.053271190037
           H          2.563928383613    -0.974880223729    -2.902329701037
           H          3.434318752613     0.319148193271    -2.082951889037
           H          2.567567402613    -0.892314990729    -1.144222690037
           C(Gh)      2.533565504613     0.291666517271     2.053276782963
           H(Gh)      2.568149991613     0.891473215271     1.143951234963
           H(Gh)      2.564068815613     0.974873094271     2.902021603963
           H(Gh)      3.434246195613    -0.319830788729     2.083485722963
           C(Gh)      1.271739302613    -0.560220753729     2.092581034963
           H(Gh)      1.266295592613    -1.169948466729     2.999077994963
           H(Gh)      1.270608790613    -1.259574497729     1.252999972963
           C(Gh)     -0.000035687387     0.275878346271     2.046964594963
           H(Gh)     -0.000190614387     0.978188324271     2.885949068963
           H(Gh)      0.000041208613     0.884654765271     1.137894959963
           C(Gh)     -1.271796526387    -0.560263632729     2.092236132963
           H(Gh)     -1.266414286387    -1.170373081729     2.998486235963
           H(Gh)     -1.270690186387    -1.259286524729     1.252372479963
           C(Gh)     -2.533515756387     0.291782676271     2.053258426963
           H(Gh)     -2.567709058387     0.892316344271     1.144381668963
           H(Gh)     -3.434317732387    -0.319515678729     2.082771608963
           H(Gh)     -2.564055290387     0.974368916271     2.902519816963

  Running in c1 symmetry.

  Nuclear repulsion =  185.636650020946433

  Charge       = 0
  Multiplicity = 1
  Electrons    = 42
  Nalpha       = 21
  Nbeta        = 21

  ==> Algorithm <==

  SCF Algorithm Type is DF.
  DIIS enabled.
  MOM disabled.
  Fractional occupation disabled.
  Guess Type is CORE.
  Energy threshold   = 1.00e-08
  Density threshold  = 1.00e-08
  Integral threshold = 0.00e+00

  ==> Primary Basis <==

  Basis Set: AUG-CC-PVTZ
    Number of shells: 356
    Number of basis function: 1012
    Number of Cartesian functions: 1150
    Spherical Harmonics?: true
    Max angular momentum: 3

  ==> Pre-Iterations <==

   -------------------------------------------------------
    Irrep   Nso     Nmo     Nalpha   Nbeta   Ndocc  Nsocc
   -------------------------------------------------------
     A       1012    1012       0       0       0       0
   -------------------------------------------------------
    Total    1012    1012      21      21      21       0
   -------------------------------------------------------

 OEINTS: Wrapper to libmints.
   by Justin Turney

   Calculation information:
      Number of atoms:                  34
      Number of AO shells:             356
      Number of SO shells:             356
      Number of primitives:            564
      Number of atomic orbitals:      1150
      Number of basis functions:      1012

      Number of irreps:                  1
      Number of functions per irrep: [1012 ]

      Overlap, kinetic, potential, dipole, and quadrupole integrals
        stored in file 35.

  ==> Integral Setup <==

  ==> DFJK: Density-Fitted J/K Matrices <==

    J tasked:                  Yes
    K tasked:                  Yes
    wK tasked:                  No
    OpenMP threads:              8
    Integrals threads:           8
    Memory (MB):             21457
    Algorithm:                Core
    Integral Cache:           LOAD
    Schwarz Cutoff:          0E+00
    Fitting Condition:       1E-12

   => Auxiliary Basis Set <=

  Basis Set: aug-cc-pvtz-jkfit
    Number of shells: 636
    Number of basis function: 2144
    Number of Cartesian functions: 2630
    Spherical Harmonics?: true
    Max angular momentum: 4

  Minimum eigenvalue in the overlap matrix is 1.6739642572E-06.
  Using Symmetric Orthogonalization.
  SCF Guess: Core (One-Electron) Hamiltonian.

  Guess energy:  -163.70113959832815

  ==> Iterations <==

                        Total Energy        Delta E     RMS |[F,P]|

   @RHF iter   1:  -132.14868576788848   -1.32149e+02   1.19729e-02 
   @RHF iter   2:  -135.50513473046317   -3.35645e+00   4.80886e-03 DIIS
   @RHF iter   3:  -147.26066658090377   -1.17555e+01   8.13062e-03 DIIS
   @RHF iter   4:  -178.67878540175388   -3.14181e+01   5.24460e-03 DIIS
   @RHF iter   5:  -191.75162705455858   -1.30728e+01   2.77648e-03 DIIS
   @RHF iter   6:  -194.77379954162257   -3.02217e+00   1.61099e-03 DIIS
   @RHF iter   7:  -196.16904961395272   -1.39525e+00   5.61767e-04 DIIS
   @RHF iter   8:  -196.38725914712234   -2.18210e-01   1.44578e-04 DIIS
   @RHF iter   9:  -196.40383198120668   -1.65728e-02   2.77382e-05 DIIS
   @RHF iter  10:  -196.40437535741063   -5.43376e-04   7.36869e-06 DIIS
   @RHF iter  11:  -196.40442773542230   -5.23780e-05   1.55674e-06 DIIS
   @RHF iter  12:  -196.40443115627011   -3.42085e-06   3.37783e-07 DIIS
   @RHF iter  13:  -196.40443127762393   -1.21354e-07   7.10952e-08 DIIS
   @RHF iter  14:  -196.40443128199894   -4.37501e-09   2.31390e-08 DIIS
   @RHF iter  15:  -196.40443128248154   -4.82601e-10   4.62582e-09 DIIS

  ==> Post-Iterations <==

	Orbital Energies (a.u.)
	-----------------------

	Doubly Occupied:                                                      

	   1A    -11.212600     2A    -11.212527     3A    -11.210160  
	   4A    -11.207081     5A    -11.207076     6A     -1.081206  
	   7A     -1.015350     8A     -0.918959     9A     -0.819830  
	  10A     -0.784969    11A     -0.647297    12A     -0.598321  
	  13A     -0.592873    14A     -0.553788    15A     -0.547349  
	  16A     -0.525754    17A     -0.494465    18A     -0.475858  
	  19A     -0.461724    20A     -0.459061    21A     -0.446772  

	Virtual:                                                              

	  22A      0.019888    23A      0.027968    24A      0.031537  
	  25A      0.032233    26A      0.041096    27A      0.044617  
	  28A      0.045101    29A      0.047514    30A      0.052187  
	  31A      0.060277    32A      0.062783    33A      0.063560  
	  34A      0.066802    35A      0.070992    36A      0.071812  
	  37A      0.074188    38A      0.081522    39A      0.084900  
	  40A      0.088158    41A      0.090543    42A      0.091939  
	  43A      0.092008    44A      0.101876    45A      0.102818  
	  46A      0.106103    47A      0.114631    48A      0.115921  
	  49A      0.118983    50A      0.121488    51A      0.123423  
	  52A      0.125683    53A      0.132321    54A      0.132896  
	  55A      0.137753    56A      0.139706    57A      0.144747  
	  58A      0.145729    59A      0.146091    60A      0.150300  
	  61A      0.158741    62A      0.159597    63A      0.160984  
	  64A      0.167009    65A      0.170535    66A      0.174731  
	  67A      0.180434    68A      0.180860    69A      0.181518  
	  70A      0.186550    71A      0.187754    72A      0.190063  
	  73A      0.191774    74A      0.192854    75A      0.196974  
	  76A      0.207180    77A      0.209912    78A      0.210867  
	  79A      0.217724    80A      0.222669    81A      0.228116  
	  82A      0.229748    83A      0.230254    84A      0.240358  
	  85A      0.252034    86A      0.257850    87A      0.259512  
	  88A      0.265156    89A      0.269022    90A      0.272277  
	  91A      0.279714    92A      0.285739    93A      0.286907  
	  94A      0.288128    95A      0.294294    96A      0.302794  
	  97A      0.303358    98A      0.303376    99A      0.308601  
	 100A      0.308961   101A      0.318118   102A      0.320408  
	 103A      0.327340   104A      0.334318   105A      0.334446  
	 106A      0.335484   107A      0.340398   108A      0.343475  
	 109A      0.346313   110A      0.349631   111A      0.351517  
	 112A      0.354831   113A      0.359008   114A      0.361305  
	 115A      0.364053   116A      0.366147   117A      0.369024  
	 118A      0.369863   119A      0.371851   120A      0.377274  
	 121A      0.378213   122A      0.388686   123A      0.389168  
	 124A      0.390264   125A      0.392225   126A      0.395165  
	 127A      0.401403   128A      0.403576   129A      0.406615  
	 130A      0.412574   131A      0.414979   132A      0.418463  
	 133A      0.419140   134A      0.421524   135A      0.422528  
	 136A      0.430403   137A      0.432076   138A      0.437816  
	 139A      0.438387   140A      0.443068   141A      0.443565  
	 142A      0.447238   143A      0.456268   144A      0.458037  
	 145A      0.462304   146A      0.465191   147A      0.466019  
	 148A      0.471669   149A      0.473384   150A      0.476587  
	 151A      0.479715   152A      0.481265   153A      0.485580  
	 154A      0.487911   155A      0.490842   156A      0.501659  
	 157A      0.504468   158A      0.505436   159A      0.506682  
	 160A      0.509455   161A      0.510493   162A      0.516898  
	 163A      0.518961   164A      0.524647   165A      0.527132  
	 166A      0.532483   167A      0.536013   168A      0.540802  
	 169A      0.543668   170A      0.545507   171A      0.547933  
	 172A      0.550571   173A      0.551256   174A      0.564639  
	 175A      0.567125   176A      0.567511   177A      0.569923  
	 178A      0.576553   179A      0.578259   180A      0.584336  
	 181A      0.588350   182A      0.591290   183A      0.599407  
	 184A      0.601071   185A      0.604008   186A      0.607120  
	 187A      0.607675   188A      0.613239   189A      0.615713  
	 190A      0.619955   191A      0.626511   192A      0.635929  
	 193A      0.636929   194A      0.639053   195A      0.643711  
	 196A      0.648263   197A      0.654575   198A      0.656212  
	 199A      0.657829   200A      0.661760   201A      0.666061  
	 202A      0.668068   203A      0.674241   204A      0.675305  
	 205A      0.681563   206A      0.682369   207A      0.690859  
	 208A      0.691935   209A      0.696606   210A      0.700741  
	 211A      0.704292   212A      0.706561   213A      0.711423  
	 214A      0.714347   215A      0.718607   216A      0.721043  
	 217A      0.725418   218A      0.729829   219A      0.736411  
	 220A      0.737156   221A      0.742339   222A      0.746164  
	 223A      0.753034   224A      0.753292   225A      0.756335  
	 226A      0.758536   227A      0.767142   228A      0.770571  
	 229A      0.772348   230A      0.780881   231A      0.786121  
	 232A      0.787022   233A      0.790147   234A      0.790722  
	 235A      0.798817   236A      0.808288   237A      0.810425  
	 238A      0.814677   239A      0.817901   240A      0.823407  
	 241A      0.825551   242A      0.834076   243A      0.837350  
	 244A      0.840679   245A      0.849718   246A      0.850820  
	 247A      0.856035   248A      0.860487   249A      0.862181  
	 250A      0.865375   251A      0.869769   252A      0.880505  
	 253A      0.881731   254A      0.890838   255A      0.896567  
	 256A      0.898451   257A      0.899536   258A      0.910483  
	 259A      0.911814   260A      0.918773   261A      0.921244  
	 262A      0.922721   263A      0.932652   264A      0.934401  
	 265A      0.938890   266A      0.945818   267A      0.947475  
	 268A      0.949428   269A      0.954295   270A      0.959561  
	 271A      0.959642   272A      0.972830   273A      0.977103  
	 274A      0.983651   275A      0.986771   276A      0.996486  
	 277A      0.999132   278A      1.001504   279A      1.008243  
	 280A      1.022480   281A      1.023624   282A      1.024024  
	 283A      1.026648   284A      1.032769   285A      1.039196  
	 286A      1.044308   287A      1.049167   288A      1.053972  
	 289A      1.057252   290A      1.061622   291A      1.065142  
	 292A      1.068371   293A      1.072597   294A      1.076444  
	 295A      1.080463   296A      1.090982   297A      1.093398  
	 298A      1.099631   299A      1.104262   300A      1.109340  
	 301A      1.112490   302A      1.115812   303A      1.123808  
	 304A      1.126620   305A      1.130975   306A      1.132945  
	 307A      1.134252   308A      1.140697   309A      1.141200  
	 310A      1.145367   311A      1.152002   312A      1.157073  
	 313A      1.158886   314A      1.166688   315A      1.172687  
	 316A      1.173107   317A      1.179116   318A      1.181372  
	 319A      1.181989   320A      1.188834   321A      1.189965  
	 322A      1.198581   323A      1.200577   324A      1.208743  
	 325A      1.209380   326A      1.218403   327A      1.224308  
	 328A      1.225812   329A      1.227286   330A      1.236937  
	 331A      1.237315   332A      1.246864   333A      1.248766  
	 334A      1.249971   335A      1.252981   336A      1.258992  
	 337A      1.259176   338A      1.265091   339A      1.275434  
	 340A      1.277980   341A      1.279090   342A      1.283128  
	 343A      1.286570   344A      1.287963   345A      1.290024  
	 346A      1.294616   347A      1.294783   348A      1.299362  
	 349A      1.299769   350A      1.307776   351A      1.311339  
	 352A      1.315581   353A      1.321168   354A      1.329051  
	 355A      1.334903   356A      1.340147   357A      1.345291  
	 358A      1.354404   359A      1.356078   360A      1.357907  
	 361A      1.358497   362A      1.358662   363A      1.366710  
	 364A      1.369806   365A      1.373896   366A      1.378377  
	 367A      1.379356   368A      1.388697   369A      1.394470  
	 370A      1.400133   371A      1.402005   372A      1.407930  
	 373A      1.413846   374A      1.416882   375A      1.425791  
	 376A      1.429633   377A      1.432445   378A      1.441030  
	 379A      1.443369   380A      1.448167   381A      1.451560  
	 382A      1.453435   383A      1.458491   384A      1.461969  
	 385A      1.462850   386A      1.468169   387A      1.480080  
	 388A      1.489548   389A      1.491410   390A      1.493519  
	 391A      1.503245   392A      1.504626   393A      1.507746  
	 394A      1.513045   395A      1.518910   396A      1.525889  
	 397A      1.528427   398A      1.529620   399A      1.537165  
	 400A      1.539133   401A      1.545631   402A      1.547945  
	 403A      1.555431   404A      1.561701   405A      1.562205  
	 406A      1.571444   407A      1.576004   408A      1.578568  
	 409A      1.581552   410A      1.581803   411A      1.587113  
	 412A      1.595881   413A      1.596190   414A      1.599431  
	 415A      1.609935   416A      1.613291   417A      1.615253  
	 418A      1.616332   419A      1.633949   420A      1.635242  
	 421A      1.637148   422A      1.644960   423A      1.648905  
	 424A      1.653545   425A      1.666097   426A      1.669165  
	 427A      1.675512   428A      1.678704   429A      1.683641  
	 430A      1.687013   431A      1.688818   432A      1.694541  
	 433A      1.704576   434A      1.714057   435A      1.717634  
	 436A      1.724635   437A      1.729748   438A      1.735387  
	 439A      1.737966   440A      1.738335   441A      1.750684  
	 442A      1.751120   443A      1.756206   444A      1.763947  
	 445A      1.764729   446A      1.781813   447A      1.784303  
	 448A      1.788851   449A      1.790914   450A      1.798690  
	 451A      1.802128   452A      1.802236   453A      1.809619  
	 454A      1.817716   455A      1.819928   456A      1.826896  
	 457A      1.827706   458A      1.833377   459A      1.839017  
	 460A      1.852092   461A      1.852595   462A      1.854033  
	 463A      1.863651   464A      1.863777   465A      1.867894  
	 466A      1.877482   467A      1.881136   468A      1.882684  
	 469A      1.898596   470A      1.906828   471A      1.908748  
	 472A      1.915208   473A      1.919611   474A      1.921735  
	 475A      1.925373   476A      1.928360   477A      1.931294  
	 478A      1.932946   479A      1.938363   480A      1.953512  
	 481A      1.958065   482A      1.972987   483A      1.975174  
	 484A      1.987012   485A      1.988277   486A      1.988986  
	 487A      2.000756   488A      2.009617   489A      2.012258  
	 490A      2.015985   491A      2.016370   492A      2.032205  
	 493A      2.033401   494A      2.046598   495A      2.048675  
	 496A      2.058928   497A      2.061263   498A      2.076569  
	 499A      2.077915   500A      2.087274   501A      2.091885  
	 502A      2.097047   503A      2.098328   504A      2.100028  
	 505A      2.118495   506A      2.125039   507A      2.132575  
	 508A      2.146471   509A      2.151925   510A      2.157184  
	 511A      2.157828   512A      2.161596   513A      2.169848  
	 514A      2.171445   515A      2.183120   516A      2.188247  
	 517A      2.198027   518A      2.206755   519A      2.209636  
	 520A      2.214747   521A      2.221900   522A      2.230069  
	 523A      2.235600   524A      2.243835   525A      2.244239  
	 526A      2.251827   527A      2.257516   528A      2.261274  
	 529A      2.262478   530A      2.271422   531A      2.275805  
	 532A      2.276591   533A      2.290467   534A      2.291417  
	 535A      2.293724   536A      2.299411   537A      2.304411  
	 538A      2.313707   539A      2.317199   540A      2.322291  
	 541A      2.327163   542A      2.332330   543A      2.341422  
	 544A      2.344517   545A      2.345356   546A      2.354609  
	 547A      2.369489   548A      2.373649   549A      2.378936  
	 550A      2.385168   551A      2.395060   552A      2.398064  
	 553A      2.407415   554A      2.414064   555A      2.423199  
	 556A      2.434064   557A      2.436681   558A      2.450011  
	 559A      2.452506   560A      2.463983   561A      2.471057  
	 562A      2.481128   563A      2.493054   564A      2.497937  
	 565A      2.510065   566A      2.514623   567A      2.517710  
	 568A      2.524210   569A      2.525076   570A      2.534731  
	 571A      2.549562   572A      2.560411   573A      2.568666  
	 574A      2.573409   575A      2.580222   576A      2.581409  
	 577A      2.610354   578A      2.613383   579A      2.621810  
	 580A      2.625125   581A      2.649919   582A      2.657715  
	 583A      2.664332   584A      2.667017   585A      2.676255  
	 586A      2.680209   587A      2.689208   588A      2.703129  
	 589A      2.718120   590A      2.732287   591A      2.733670  
	 592A      2.740755   593A      2.746508   594A      2.747425  
	 595A      2.765793   596A      2.780696   597A      2.796138  
	 598A      2.828657   599A      2.831045   600A      2.838994  
	 601A      2.840882   602A      2.861068   603A      2.861492  
	 604A      2.866082   605A      2.883595   606A      2.899363  
	 607A      2.924265   608A      2.930293   609A      2.933941  
	 610A      2.946239   611A      2.952492   612A      2.955433  
	 613A      2.986392   614A      2.988669   615A      3.007505  
	 616A      3.027924   617A      3.037806   618A      3.042731  
	 619A      3.043914   620A      3.091105   621A      3.101508  
	 622A      3.127624   623A      3.152009   624A      3.163351  
	 625A      3.232940   626A      3.264731   627A      3.314806  
	 628A      3.318865   629A      3.327778   630A      3.353940  
	 631A      3.366010   632A      3.386642   633A      3.438840  
	 634A      3.477537   635A      3.492738   636A      3.498399  
	 637A      3.516354   638A      3.518122   639A      3.544844  
	 640A      3.571941   641A      3.589372   642A      3.597555  
	 643A      3.599339   644A      3.636892   645A      3.643456  
	 646A      3.669807   647A      3.675960   648A      3.689297  
	 649A      3.697481   650A      3.715390   651A      3.733609  
	 652A      3.734925   653A      3.746576   654A      3.756015  
	 655A      3.787417   656A      3.810779   657A      3.817037  
	 658A      3.831313   659A      3.833626   660A      3.845879  
	 661A      3.878888   662A      3.880375   663A      3.912763  
	 664A      3.914472   665A      3.916378   666A      3.923800  
	 667A      3.935602   668A      3.946411   669A      3.962593  
	 670A      3.968511   671A      3.972438   672A      3.984946  
	 673A      3.996046   674A      4.010256   675A      4.017904  
	 676A      4.027443   677A      4.036778   678A      4.047135  
	 679A      4.047350   680A      4.064423   681A      4.066856  
	 682A      4.073886   683A      4.090592   684A      4.091487  
	 685A      4.100857   686A      4.107274   687A      4.115414  
	 688A      4.121115   689A      4.124553   690A      4.135529  
	 691A      4.140513   692A      4.153857   693A      4.158577  
	 694A      4.177575   695A      4.187664   696A      4.188604  
	 697A      4.196506   698A      4.203271   699A      4.214205  
	 700A      4.233957   701A      4.238980   702A      4.241727  
	 703A      4.247262   704A      4.250706   705A      4.263327  
	 706A      4.269011   707A      4.270345   708A      4.285311  
	 709A      4.289956   710A      4.296361   711A      4.296725  
	 712A      4.300353   713A      4.303928   714A      4.313142  
	 715A      4.319978   716A      4.339599   717A      4.340696  
	 718A      4.342024   719A      4.343908   720A      4.348649  
	 721A      4.360409   722A      4.366514   723A      4.374800  
	 724A      4.375145   725A      4.378822   726A      4.392464  
	 727A      4.394287   728A      4.404946   729A      4.416570  
	 730A      4.417490   731A      4.427833   732A      4.447717  
	 733A      4.455991   734A      4.465551   735A      4.471038  
	 736A      4.485891   737A      4.491755   738A      4.493169  
	 739A      4.514694   740A      4.524405   741A      4.535687  
	 742A      4.548661   743A      4.558096   744A      4.574319  
	 745A      4.590290   746A      4.592418   747A      4.596573  
	 748A      4.597678   749A      4.606476   750A      4.615602  
	 751A      4.623115   752A      4.627723   753A      4.648835  
	 754A      4.666074   755A      4.683422   756A      4.684312  
	 757A      4.695475   758A      4.706342   759A      4.712295  
	 760A      4.717582   761A      4.718970   762A      4.733995  
	 763A      4.740952   764A      4.746805   765A      4.753752  
	 766A      4.761011   767A      4.761302   768A      4.775787  
	 769A      4.783323   770A      4.794465   771A      4.799641  
	 772A      4.807526   773A      4.808038   774A      4.809383  
	 775A      4.821517   776A      4.838873   777A      4.857468  
	 778A      4.865870   779A      4.871820   780A      4.891231  
	 781A      4.896927   782A      4.904123   783A      4.907859  
	 784A      4.916392   785A      4.920842   786A      4.923129  
	 787A      4.929785   788A      4.930334   789A      4.940213  
	 790A      4.945264   791A      4.953837   792A      4.956889  
	 793A      4.972618   794A      4.975524   795A      4.981404  
	 796A      4.992240   797A      5.001843   798A      5.007244  
	 799A      5.010652   800A      5.019388   801A      5.020877  
	 802A      5.026054   803A      5.032928   804A      5.050891  
	 805A      5.051804   806A      5.053286   807A      5.072197  
	 808A      5.079435   809A      5.080565   810A      5.082536  
	 811A      5.099393   812A      5.100791   813A      5.104231  
	 814A      5.110355   815A      5.119984   816A      5.128930  
	 817A      5.137233   818A      5.146827   819A      5.154673  
	 820A      5.159036   821A      5.163736   822A      5.193425  
	 823A      5.202971   824A      5.213047   825A      5.216489  
	 826A      5.225957   827A      5.234197   828A      5.254388  
	 829A      5.257922   830A      5.279069   831A      5.283728  
	 832A      5.287068   833A      5.290978   834A      5.304853  
	 835A      5.327322   836A      5.332160   837A      5.336944  
	 838A      5.346003   839A      5.355748   840A      5.358611  
	 841A      5.370096   842A      5.376249   843A      5.386313  
	 844A      5.395369   845A      5.406629   846A      5.410508  
	 847A      5.418571   848A      5.435632   849A      5.436252  
	 850A      5.459944   851A      5.460857   852A      5.470157  
	 853A      5.472893   854A      5.473811   855A      5.473834  
	 856A      5.490318   857A      5.495599   858A      5.509085  
	 859A      5.515580   860A      5.540141   861A      5.548564  
	 862A      5.561979   863A      5.567577   864A      5.571236  
	 865A      5.571959   866A      5.594996   867A      5.609763  
	 868A      5.614382   869A      5.619338   870A      5.624413  
	 871A      5.630291   872A      5.631369   873A      5.639071  
	 874A      5.647301   875A      5.649232   876A      5.653968  
	 877A      5.669646   878A      5.687986   879A      5.688432  
	 880A      5.701522   881A      5.716567   882A      5.721830  
	 883A      5.731750   884A      5.748302   885A      5.749478  
	 886A      5.765802   887A      5.769827   888A      5.778906  
	 889A      5.793578   890A      5.795977   891A      5.808274  
	 892A      5.810793   893A      5.822187   894A      5.827381  
	 895A      5.838447   896A      5.845847   897A      5.845950  
	 898A      5.849303   899A      5.859910   900A      5.864777  
	 901A      5.868064   902A      5.886355   903A      5.890367  
	 904A      5.905544   905A      5.919340   906A      5.929688  
	 907A      5.942461   908A      5.962876   909A      5.963586  
	 910A      5.999704   911A      6.005302   912A      6.018121  
	 913A      6.026936   914A      6.036847   915A      6.046694  
	 916A      6.052434   917A      6.106483   918A      6.118996  
	 919A      6.129484   920A      6.136517   921A      6.168182  
	 922A      6.176755   923A      6.192459   924A      6.214370  
	 925A      6.219410   926A      6.234969   927A      6.250813  
	 928A      6.271958   929A      6.273120   930A      6.286620  
	 931A      6.286763   932A      6.298835   933A      6.306094  
	 934A      6.324858   935A      6.333717   936A      6.347953  
	 937A      6.356048   938A      6.358074   939A      6.376892  
	 940A      6.411788   941A      6.453578   942A      6.461617  
	 943A      6.468411   944A      6.485610   945A      6.546549  
	 946A      6.553637   947A      6.585173   948A      6.615956  
	 949A      6.710562   950A      6.730636   951A      6.761527  
	 952A      6.869055   953A      6.894597   954A      6.900819  
	 955A      6.916475   956A      6.917264   957A      6.949109  
	 958A      6.968062   959A      6.973338   960A      7.006976  
	 961A      7.025167   962A      7.030273   963A      7.046761  
	 964A      7.088496   965A      7.107232   966A      7.107525  
	 967A      7.143724   968A      7.209914   969A      7.211026  
	 970A      7.332668   971A      7.337540   972A      7.390004  
	 973A      7.456614   974A      7.509595   975A      7.544122  
	 976A      7.720574   977A      7.887473   978A      7.893139  
	 979A      7.897180   980A      7.912812   981A      7.920199  
	 982A      7.969632   983A      7.985661   984A      8.000149  
	 985A      8.112509   986A      8.153775   987A      8.316778  
	 988A      8.379038   989A      8.397385   990A      8.400870  
	 991A      8.509642   992A      8.602656   993A      8.604967  
	 994A      9.067049   995A      9.143850   996A      9.287962  
	 997A      9.699632   998A     10.519323   999A     10.579305  
	1000A     10.596452  1001A     10.770246  1002A     10.970411  
	1003A     18.051591  1004A     18.269906  1005A     18.434892  
	1006A     18.718287  1007A     19.556070  1008A     53.328539  
	1009A     53.991683  1010A     54.269647  1011A     54.652111  
	1012A     56.343144  

	Final Occupation by Irrep:
	          A 
	DOCC [    21 ]

  Energy converged.

  @RHF Final Energy:  -196.40443128248154

   => Energetics <=

    Nuclear Repulsion Energy =            185.6366500209464334
    One-Electron Energy =                -631.1361176034261007
    Two-Electron Energy =                 249.0950362999988386
    DFT Exchange-Correlation Energy =       0.0000000000000000
    Empirical Dispersion Energy =           0.0000000000000000
    Total Energy =                       -196.4044312824808287



Properties will be evaluated at   0.000000,   0.000000,   0.000000 Bohr
  ==> Properties <==


Properties computed using the SCF density density matrix
  Nuclear Dipole Moment: (a.u.)
     X:     0.0007      Y:     2.7759      Z:  -164.0582

  Electronic Dipole Moment: (a.u.)
     X:    -0.0007      Y:    -2.7428      Z:   164.0565

  Dipole Moment: (a.u.)
     X:     0.0000      Y:     0.0331      Z:    -0.0017     Total:     0.0331

  Dipole Moment: (Debye)
     X:     0.0000      Y:     0.0841      Z:    -0.0043     Total:     0.0842


  Saving occupied orbitals to File 180.

  Saving SAPT 2-MONOMER_A file.

*** tstop() called on bigdata.bme.utexas.edu at Tue Jan 14 13:03:58 2014
Module time:
	user time   =    1297.74 seconds =      21.63 minutes
	system time =      15.41 seconds =       0.26 minutes
	total time  =        191 seconds =       3.18 minutes
Total time:
	user time   =    3241.49 seconds =      54.02 minutes
	system time =      41.49 seconds =       0.69 minutes
	total time  =        482 seconds =       8.03 minutes

  //>>>>>>>>>>>>>>>>>>>>>>>>>>>>>>>>>>>//
  //            Monomer B HF           //
  //<<<<<<<<<<<<<<<<<<<<<<<<<<<<<<<<<<<//


  No DF_BASIS_SCF auxiliary basis selected, defaulting to aug-cc-pvtz-jkfit


*** tstart() called on bigdata.bme.utexas.edu
*** at Tue Jan 14 13:03:58 2014


         ---------------------------------------------------------
                                   SCF
            by Justin Turney, Rob Parrish, and Andy Simmonett
                              RHF Reference
                        8 Threads,  30000 MiB Core
         ---------------------------------------------------------

  ==> Geometry <==

    Molecular point group: c1
    Full point group: C1

    Geometry (in Angstrom), charge = 0, multiplicity = 1:

       Center              X                  Y                   Z       
    ------------   -----------------  -----------------  -----------------
           C(Gh)     -2.533299452387    -0.291985189729    -2.053402581037
           H(Gh)     -2.563617622387    -0.974187931729    -2.902973980037
           H(Gh)     -2.566969154387    -0.892982022729    -1.144819571037
           H(Gh)     -3.434416912387     0.318851008271    -2.082446867037
           C(Gh)     -1.271875668387     0.560549345271    -2.092196662037
           H(Gh)     -1.271017105387     1.259459591271    -1.252231934037
           H(Gh)     -1.266623351387     1.170789691271    -2.998377870037
           C(Gh)     -0.000125845387    -0.275524340729    -2.046948191037
           H(Gh)     -0.000150177387    -0.884335638729    -1.137914253037
           H(Gh)     -0.000356227387    -0.977820306729    -2.885955731037
           C(Gh)      1.271903957613     0.560276064271    -2.092490260037
           H(Gh)      1.270980952613     1.259527189271    -1.252845929037
           H(Gh)      1.266645687613     1.170076379271    -2.998938264037
           C(Gh)      2.533412955613    -0.292047882729    -2.053271190037
           H(Gh)      2.563928383613    -0.974880223729    -2.902329701037
           H(Gh)      3.434318752613     0.319148193271    -2.082951889037
           H(Gh)      2.567567402613    -0.892314990729    -1.144222690037
           C          2.533565504613     0.291666517271     2.053276782963
           H          2.568149991613     0.891473215271     1.143951234963
           H          2.564068815613     0.974873094271     2.902021603963
           H          3.434246195613    -0.319830788729     2.083485722963
           C          1.271739302613    -0.560220753729     2.092581034963
           H          1.266295592613    -1.169948466729     2.999077994963
           H          1.270608790613    -1.259574497729     1.252999972963
           C         -0.000035687387     0.275878346271     2.046964594963
           H         -0.000190614387     0.978188324271     2.885949068963
           H          0.000041208613     0.884654765271     1.137894959963
           C         -1.271796526387    -0.560263632729     2.092236132963
           H         -1.266414286387    -1.170373081729     2.998486235963
           H         -1.270690186387    -1.259286524729     1.252372479963
           C         -2.533515756387     0.291782676271     2.053258426963
           H         -2.567709058387     0.892316344271     1.144381668963
           H         -3.434317732387    -0.319515678729     2.082771608963
           H         -2.564055290387     0.974368916271     2.902519816963

  Running in c1 symmetry.

  Nuclear repulsion =  185.635585464437327

  Charge       = 0
  Multiplicity = 1
  Electrons    = 42
  Nalpha       = 21
  Nbeta        = 21

  ==> Algorithm <==

  SCF Algorithm Type is DF.
  DIIS enabled.
  MOM disabled.
  Fractional occupation disabled.
  Guess Type is CORE.
  Energy threshold   = 1.00e-08
  Density threshold  = 1.00e-08
  Integral threshold = 0.00e+00

  ==> Primary Basis <==

  Basis Set: AUG-CC-PVTZ
    Number of shells: 356
    Number of basis function: 1012
    Number of Cartesian functions: 1150
    Spherical Harmonics?: true
    Max angular momentum: 3

  ==> Pre-Iterations <==

   -------------------------------------------------------
    Irrep   Nso     Nmo     Nalpha   Nbeta   Ndocc  Nsocc
   -------------------------------------------------------
     A       1012    1012       0       0       0       0
   -------------------------------------------------------
    Total    1012    1012      21      21      21       0
   -------------------------------------------------------

 OEINTS: Wrapper to libmints.
   by Justin Turney

   Calculation information:
      Number of atoms:                  34
      Number of AO shells:             356
      Number of SO shells:             356
      Number of primitives:            564
      Number of atomic orbitals:      1150
      Number of basis functions:      1012

      Number of irreps:                  1
      Number of functions per irrep: [1012 ]

      Overlap, kinetic, potential, dipole, and quadrupole integrals
        stored in file 35.

  ==> Integral Setup <==

  ==> DFJK: Density-Fitted J/K Matrices <==

    J tasked:                  Yes
    K tasked:                  Yes
    wK tasked:                  No
    OpenMP threads:              8
    Integrals threads:           8
    Memory (MB):             21457
    Algorithm:                Core
    Integral Cache:           LOAD
    Schwarz Cutoff:          0E+00
    Fitting Condition:       1E-12

   => Auxiliary Basis Set <=

  Basis Set: aug-cc-pvtz-jkfit
    Number of shells: 636
    Number of basis function: 2144
    Number of Cartesian functions: 2630
    Spherical Harmonics?: true
    Max angular momentum: 4

  Minimum eigenvalue in the overlap matrix is 1.6739642572E-06.
  Using Symmetric Orthogonalization.
  SCF Guess: Core (One-Electron) Hamiltonian.

  Guess energy:  -163.70158657412480

  ==> Iterations <==

                        Total Energy        Delta E     RMS |[F,P]|

   @RHF iter   1:  -132.14813208789184   -1.32148e+02   1.19730e-02 
   @RHF iter   2:  -135.50514077571887   -3.35701e+00   4.80880e-03 DIIS
   @RHF iter   3:  -147.25760468965177   -1.17525e+01   8.13080e-03 DIIS
   @RHF iter   4:  -178.67563614433863   -3.14180e+01   5.24512e-03 DIIS
   @RHF iter   5:  -191.74980117394585   -1.30742e+01   2.77709e-03 DIIS
   @RHF iter   6:  -194.77286502799416   -3.02306e+00   1.61148e-03 DIIS
   @RHF iter   7:  -196.16894390670546   -1.39608e+00   5.61896e-04 DIIS
   @RHF iter   8:  -196.38723944252030   -2.18296e-01   1.44673e-04 DIIS
   @RHF iter   9:  -196.40383257678786   -1.65931e-02   2.77491e-05 DIIS
   @RHF iter  10:  -196.40437635511591   -5.43778e-04   7.37080e-06 DIIS
   @RHF iter  11:  -196.40442876089946   -5.24058e-05   1.55621e-06 DIIS
   @RHF iter  12:  -196.40443218541833   -3.42452e-06   3.32756e-07 DIIS
   @RHF iter  13:  -196.40443230550159   -1.20083e-07   6.06261e-08 DIIS
   @RHF iter  14:  -196.40443230910000   -3.59842e-09   2.09175e-08 DIIS
   @RHF iter  15:  -196.40443230947614   -3.76133e-10   4.66473e-09 DIIS

  ==> Post-Iterations <==

	Orbital Energies (a.u.)
	-----------------------

	Doubly Occupied:                                                      

	   1A    -11.212598     2A    -11.212526     3A    -11.210161  
	   4A    -11.207079     5A    -11.207078     6A     -1.081206  
	   7A     -1.015342     8A     -0.918974     9A     -0.819819  
	  10A     -0.784970    11A     -0.647297    12A     -0.598306  
	  13A     -0.592868    14A     -0.553806    15A     -0.547354  
	  16A     -0.525768    17A     -0.494453    18A     -0.475850  
	  19A     -0.461723    20A     -0.459062    21A     -0.446772  

	Virtual:                                                              

	  22A      0.019887    23A      0.027969    24A      0.031537  
	  25A      0.032232    26A      0.041096    27A      0.044617  
	  28A      0.045101    29A      0.047514    30A      0.052187  
	  31A      0.060278    32A      0.062783    33A      0.063560  
	  34A      0.066801    35A      0.070990    36A      0.071816  
	  37A      0.074186    38A      0.081521    39A      0.084900  
	  40A      0.088164    41A      0.090549    42A      0.091933  
	  43A      0.092006    44A      0.101877    45A      0.102813  
	  46A      0.106103    47A      0.114631    48A      0.115911  
	  49A      0.118992    50A      0.121490    51A      0.123423  
	  52A      0.125680    53A      0.132320    54A      0.132894  
	  55A      0.137756    56A      0.139708    57A      0.144755  
	  58A      0.145729    59A      0.146085    60A      0.150300  
	  61A      0.158737    62A      0.159596    63A      0.160985  
	  64A      0.167007    65A      0.170535    66A      0.174737  
	  67A      0.180436    68A      0.180862    69A      0.181523  
	  70A      0.186534    71A      0.187743    72A      0.190057  
	  73A      0.191781    74A      0.192885    75A      0.196962  
	  76A      0.207166    77A      0.209915    78A      0.210867  
	  79A      0.217736    80A      0.222673    81A      0.228116  
	  82A      0.229756    83A      0.230235    84A      0.240364  
	  85A      0.252037    86A      0.257856    87A      0.259514  
	  88A      0.265141    89A      0.268998    90A      0.272295  
	  91A      0.279708    92A      0.285741    93A      0.286916  
	  94A      0.288129    95A      0.294294    96A      0.302805  
	  97A      0.303353    98A      0.303380    99A      0.308594  
	 100A      0.308944   101A      0.318110   102A      0.320396  
	 103A      0.327350   104A      0.334321   105A      0.334449  
	 106A      0.335491   107A      0.340412   108A      0.343467  
	 109A      0.346315   110A      0.349647   111A      0.351527  
	 112A      0.354835   113A      0.358995   114A      0.361298  
	 115A      0.364054   116A      0.366145   117A      0.369036  
	 118A      0.369866   119A      0.371861   120A      0.377261  
	 121A      0.378219   122A      0.388695   123A      0.389155  
	 124A      0.390266   125A      0.392228   126A      0.395159  
	 127A      0.401396   128A      0.403568   129A      0.406614  
	 130A      0.412566   131A      0.414987   132A      0.418468  
	 133A      0.419141   134A      0.421532   135A      0.422531  
	 136A      0.430384   137A      0.432066   138A      0.437799  
	 139A      0.438390   140A      0.443069   141A      0.443585  
	 142A      0.447235   143A      0.456272   144A      0.458049  
	 145A      0.462314   146A      0.465192   147A      0.466028  
	 148A      0.471654   149A      0.473378   150A      0.476585  
	 151A      0.479708   152A      0.481267   153A      0.485584  
	 154A      0.487914   155A      0.490834   156A      0.501667  
	 157A      0.504460   158A      0.505444   159A      0.506677  
	 160A      0.509439   161A      0.510502   162A      0.516885  
	 163A      0.518980   164A      0.524657   165A      0.527142  
	 166A      0.532498   167A      0.536002   168A      0.540807  
	 169A      0.543673   170A      0.545487   171A      0.547939  
	 172A      0.550575   173A      0.551268   174A      0.564658  
	 175A      0.567119   176A      0.567483   177A      0.569903  
	 178A      0.576540   179A      0.578235   180A      0.584325  
	 181A      0.588355   182A      0.591273   183A      0.599405  
	 184A      0.601071   185A      0.604008   186A      0.607107  
	 187A      0.607675   188A      0.613235   189A      0.615747  
	 190A      0.619972   191A      0.626537   192A      0.635924  
	 193A      0.636959   194A      0.639041   195A      0.643700  
	 196A      0.648215   197A      0.654563   198A      0.656206  
	 199A      0.657834   200A      0.661751   201A      0.666053  
	 202A      0.668061   203A      0.674227   204A      0.675304  
	 205A      0.681615   206A      0.682385   207A      0.690846  
	 208A      0.691967   209A      0.696639   210A      0.700770  
	 211A      0.704307   212A      0.706537   213A      0.711434  
	 214A      0.714335   215A      0.718612   216A      0.721022  
	 217A      0.725411   218A      0.729805   219A      0.736402  
	 220A      0.737192   221A      0.742355   222A      0.746220  
	 223A      0.752993   224A      0.753249   225A      0.756342  
	 226A      0.758567   227A      0.767136   228A      0.770552  
	 229A      0.772337   230A      0.780876   231A      0.786118  
	 232A      0.787022   233A      0.790173   234A      0.790710  
	 235A      0.798825   236A      0.808302   237A      0.810444  
	 238A      0.814644   239A      0.817893   240A      0.823387  
	 241A      0.825511   242A      0.834104   243A      0.837327  
	 244A      0.840663   245A      0.849745   246A      0.850852  
	 247A      0.856026   248A      0.860456   249A      0.862183  
	 250A      0.865395   251A      0.869769   252A      0.880495  
	 253A      0.881742   254A      0.890827   255A      0.896547  
	 256A      0.898450   257A      0.899573   258A      0.910515  
	 259A      0.911808   260A      0.918813   261A      0.921260  
	 262A      0.922709   263A      0.932684   264A      0.934417  
	 265A      0.938911   266A      0.945837   267A      0.947464  
	 268A      0.949406   269A      0.954316   270A      0.959508  
	 271A      0.959653   272A      0.972852   273A      0.977120  
	 274A      0.983655   275A      0.986741   276A      0.996506  
	 277A      0.999125   278A      1.001475   279A      1.008236  
	 280A      1.022418   281A      1.023615   282A      1.024011  
	 283A      1.026647   284A      1.032771   285A      1.039197  
	 286A      1.044295   287A      1.049226   288A      1.053998  
	 289A      1.057226   290A      1.061553   291A      1.065122  
	 292A      1.068342   293A      1.072572   294A      1.076438  
	 295A      1.080434   296A      1.091000   297A      1.093408  
	 298A      1.099663   299A      1.104242   300A      1.109333  
	 301A      1.112487   302A      1.115799   303A      1.123811  
	 304A      1.126735   305A      1.130983   306A      1.132966  
	 307A      1.134258   308A      1.140722   309A      1.141208  
	 310A      1.145344   311A      1.151995   312A      1.157015  
	 313A      1.158829   314A      1.166661   315A      1.172636  
	 316A      1.173104   317A      1.179074   318A      1.181390  
	 319A      1.182014   320A      1.188810   321A      1.189950  
	 322A      1.198578   323A      1.200559   324A      1.208754  
	 325A      1.209396   326A      1.218457   327A      1.224261  
	 328A      1.225832   329A      1.227295   330A      1.236942  
	 331A      1.237325   332A      1.246898   333A      1.248738  
	 334A      1.249998   335A      1.253017   336A      1.259035  
	 337A      1.259213   338A      1.265098   339A      1.275432  
	 340A      1.277906   341A      1.279081   342A      1.283117  
	 343A      1.286642   344A      1.287961   345A      1.290095  
	 346A      1.294594   347A      1.294837   348A      1.299378  
	 349A      1.299860   350A      1.307788   351A      1.311333  
	 352A      1.315601   353A      1.321183   354A      1.329079  
	 355A      1.334838   356A      1.340084   357A      1.345301  
	 358A      1.354378   359A      1.356091   360A      1.357856  
	 361A      1.358503   362A      1.358718   363A      1.366653  
	 364A      1.369803   365A      1.373820   366A      1.378358  
	 367A      1.379324   368A      1.388651   369A      1.394460  
	 370A      1.400158   371A      1.401990   372A      1.407937  
	 373A      1.413798   374A      1.416878   375A      1.425793  
	 376A      1.429616   377A      1.432470   378A      1.440990  
	 379A      1.443352   380A      1.448123   381A      1.451520  
	 382A      1.453464   383A      1.458598   384A      1.461929  
[...]
	 406A      1.571400   407A      1.576034   408A      1.578569  
	 409A      1.581484   410A      1.581845   411A      1.587104  
	 412A      1.595835   413A      1.596211   414A      1.599502  
	 415A      1.610002   416A      1.613332   417A      1.615357  
	 418A      1.616333   419A      1.633990   420A      1.635256  
	 421A      1.637102   422A      1.644827   423A      1.648816  
	 424A      1.653556   425A      1.666156   426A      1.669178  
	 427A      1.675506   428A      1.678702   429A      1.683737  
	 430A      1.687052   431A      1.688815   432A      1.694493  
	 433A      1.704522   434A      1.714074   435A      1.717657  
	 436A      1.724604   437A      1.729701   438A      1.735388  
	 439A      1.737930   440A      1.738296   441A      1.750671  
	 442A      1.751145   443A      1.756151   444A      1.763999  
	 445A      1.764693   446A      1.781817   447A      1.784310  
	 448A      1.788817   449A      1.790911   450A      1.798663  
	 451A      1.802131   452A      1.802272   453A      1.809576  
	 454A      1.817643   455A      1.819907   456A      1.826889  
	 457A      1.827795   458A      1.833348   459A      1.838973  
	 460A      1.852105   461A      1.852610   462A      1.854095  
	 463A      1.863651   464A      1.863755   465A      1.867853  
	 466A      1.877471   467A      1.881289   468A      1.882709  
	 469A      1.898608   470A      1.906835   471A      1.908767  
	 472A      1.915240   473A      1.919602   474A      1.921760  
	 475A      1.925449   476A      1.928345   477A      1.931287  
	 478A      1.933002   479A      1.938368   480A      1.953461  
	 481A      1.958100   482A      1.972889   483A      1.975085  
	 484A      1.986975   485A      1.988274   486A      1.988928  
	 487A      2.000715   488A      2.009601   489A      2.012324  
	 490A      2.015966   491A      2.016406   492A      2.032229  
	 493A      2.033411   494A      2.046566   495A      2.048609  
	 496A      2.058939   497A      2.061260   498A      2.076553  
	 499A      2.077910   500A      2.087309   501A      2.091941  
	 502A      2.097057   503A      2.098319   504A      2.100016  
	 505A      2.118526   506A      2.125083   507A      2.132638  
	 508A      2.146398   509A      2.151954   510A      2.157109  
	 511A      2.157794   512A      2.161484   513A      2.169766  
	 514A      2.171493   515A      2.183144   516A      2.188197  
	 517A      2.198058   518A      2.206710   519A      2.209673  
	 520A      2.214705   521A      2.221913   522A      2.230054  
	 523A      2.235550   524A      2.243781   525A      2.244264  
	 526A      2.251859   527A      2.257523   528A      2.261321  
	 529A      2.262515   530A      2.271420   531A      2.275847  
	 532A      2.276614   533A      2.290601   534A      2.291396  
	 535A      2.293800   536A      2.299412   537A      2.304329  
	 538A      2.313711   539A      2.317256   540A      2.322242  
	 541A      2.327112   542A      2.332399   543A      2.341472  
	 544A      2.344525   545A      2.345301   546A      2.354563  
	 547A      2.369489   548A      2.373678   549A      2.379022  
	 550A      2.385194   551A      2.395127   552A      2.397998  
	 553A      2.407441   554A      2.413963   555A      2.423160  
	 556A      2.434116   557A      2.436746   558A      2.450042  
	 559A      2.452487   560A      2.464088   561A      2.471019  
	 562A      2.481089   563A      2.493028   564A      2.497963  
	 565A      2.510088   566A      2.514617   567A      2.517647  
	 568A      2.524212   569A      2.525143   570A      2.534696  
	 571A      2.549562   572A      2.560393   573A      2.568701  
	 574A      2.573343   575A      2.580132   576A      2.581424  
	 577A      2.610297   578A      2.613395   579A      2.621814  
	 580A      2.625200   581A      2.650005   582A      2.657755  
	 583A      2.664327   584A      2.666950   585A      2.676277  
	 586A      2.680351   587A      2.689191   588A      2.703120  
	 589A      2.718129   590A      2.732197   591A      2.733687  
	 592A      2.740818   593A      2.746599   594A      2.747483  
	 595A      2.765718   596A      2.780678   597A      2.796136  
	 598A      2.828626   599A      2.831004   600A      2.839024  
	 601A      2.840821   602A      2.861142   603A      2.861424  
	 604A      2.866082   605A      2.883645   606A      2.899296  
	 607A      2.924275   608A      2.930245   609A      2.933975  
	 610A      2.946104   611A      2.952485   612A      2.955490  
	 613A      2.986468   614A      2.988631   615A      3.007559  
	 616A      3.027895   617A      3.037879   618A      3.042812  
	 619A      3.043830   620A      3.091176   621A      3.101464  
	 622A      3.127649   623A      3.152018   624A      3.163415  
	 625A      3.232797   626A      3.264766   627A      3.314735  
	 628A      3.318897   629A      3.327715   630A      3.353998  
	 631A      3.365945   632A      3.386499   633A      3.438932  
	 634A      3.477534   635A      3.492647   636A      3.498363  
	 637A      3.516438   638A      3.518116   639A      3.544818  
	 640A      3.571996   641A      3.589361   642A      3.597586  
	 643A      3.599285   644A      3.636837   645A      3.643327  
	 646A      3.669802   647A      3.676051   648A      3.689304  
	 649A      3.697466   650A      3.715454   651A      3.733595  
	 652A      3.734971   653A      3.746569   654A      3.756076  
	 655A      3.787339   656A      3.810705   657A      3.817023  
	 658A      3.831306   659A      3.833606   660A      3.845958  
	 661A      3.878903   662A      3.880242   663A      3.912807  
	 664A      3.914557   665A      3.916244   666A      3.923762  
	 667A      3.935602   668A      3.946422   669A      3.962571  
	 670A      3.968568   671A      3.972437   672A      3.984979  
	 673A      3.995952   674A      4.010332   675A      4.017916  
	 676A      4.027390   677A      4.036833   678A      4.047135  
	 679A      4.047326   680A      4.064435   681A      4.066875  
	 682A      4.073949   683A      4.090634   684A      4.091500  
	 685A      4.100931   686A      4.107214   687A      4.115408  
	 688A      4.121122   689A      4.124546   690A      4.135543  
	 691A      4.140465   692A      4.153873   693A      4.158585  
	 694A      4.177582   695A      4.187693   696A      4.188566  
	 697A      4.196455   698A      4.203204   699A      4.214135  
	 700A      4.233884   701A      4.239055   702A      4.241778  
	 703A      4.247230   704A      4.250677   705A      4.263343  
	 706A      4.268983   707A      4.270322   708A      4.285293  
	 709A      4.289956   710A      4.296315   711A      4.296722  
	 712A      4.300388   713A      4.303876   714A      4.313148  
	 715A      4.319996   716A      4.339637   717A      4.340678  
	 718A      4.341976   719A      4.343904   720A      4.348751  
	 721A      4.360482   722A      4.366490   723A      4.374797  
	 724A      4.375162   725A      4.378872   726A      4.392470  
	 727A      4.394228   728A      4.404941   729A      4.416557  
	 730A      4.417479   731A      4.427752   732A      4.447795  
	 733A      4.455965   734A      4.465504   735A      4.471027  
	 736A      4.485922   737A      4.491790   738A      4.493065  
	 739A      4.514674   740A      4.524395   741A      4.535678  
	 742A      4.548610   743A      4.558152   744A      4.574258  
	 745A      4.590206   746A      4.592573   747A      4.596626  
	 748A      4.597614   749A      4.606337   750A      4.615716  
	 751A      4.623118   752A      4.627777   753A      4.648810  
	 754A      4.666041   755A      4.683372   756A      4.684400  
	 757A      4.695501   758A      4.706272   759A      4.712254  
	 760A      4.717516   761A      4.718974   762A      4.733970  
	 763A      4.740914   764A      4.746796   765A      4.753787  
	 766A      4.760994   767A      4.761341   768A      4.775816  
	 769A      4.783300   770A      4.794379   771A      4.799658  
	 772A      4.807518   773A      4.808039   774A      4.809435  
	 775A      4.821525   776A      4.838941   777A      4.857411  
	 778A      4.865835   779A      4.871847   780A      4.891244  
	 781A      4.896974   782A      4.904181   783A      4.907863  
	 784A      4.916410   785A      4.920885   786A      4.923183  
	 787A      4.929786   788A      4.930370   789A      4.940292  
	 790A      4.945294   791A      4.953823   792A      4.956878  
	 793A      4.972600   794A      4.975573   795A      4.981427  
	 796A      4.992224   797A      5.001816   798A      5.007299  
	 799A      5.010658   800A      5.019479   801A      5.020879  
	 802A      5.026066   803A      5.032996   804A      5.050879  
	 805A      5.051774   806A      5.053271   807A      5.072228  
	 808A      5.079410   809A      5.080498   810A      5.082481  
	 811A      5.099435   812A      5.100835   813A      5.104222  
	 814A      5.110364   815A      5.120002   816A      5.128976  
	 817A      5.137235   818A      5.146793   819A      5.154668  
	 820A      5.159004   821A      5.163679   822A      5.193449  
	 823A      5.202956   824A      5.212910   825A      5.216351  
	 826A      5.226008   827A      5.234188   828A      5.254466  
	 829A      5.258087   830A      5.279159   831A      5.283781  
	 832A      5.287126   833A      5.290924   834A      5.304828  
	 835A      5.327283   836A      5.332183   837A      5.336999  
	 838A      5.346203   839A      5.355749   840A      5.358657  
	 841A      5.370000   842A      5.376273   843A      5.386359  
	 844A      5.395430   845A      5.406626   846A      5.410464  
	 847A      5.418614   848A      5.435584   849A      5.436334  
	 850A      5.459938   851A      5.460813   852A      5.470184  
	 853A      5.472970   854A      5.473793   855A      5.473966  
	 856A      5.490229   857A      5.495509   858A      5.509069  
	 859A      5.515557   860A      5.540167   861A      5.548571  
	 862A      5.561985   863A      5.567524   864A      5.571243  
	 865A      5.571958   866A      5.594920   867A      5.609799  
	 868A      5.614331   869A      5.619358   870A      5.624457  
	 871A      5.630323   872A      5.631358   873A      5.639072  
	 874A      5.647297   875A      5.649154   876A      5.653941  
	 877A      5.669683   878A      5.687941   879A      5.688469  
	 880A      5.701469   881A      5.716565   882A      5.721773  
	 883A      5.731748   884A      5.748303   885A      5.749500  
	 886A      5.765777   887A      5.769882   888A      5.778823  
	 889A      5.793555   890A      5.795950   891A      5.808217  
	 892A      5.810896   893A      5.822214   894A      5.827479  
	 895A      5.838375   896A      5.845823   897A      5.845944  
	 898A      5.849302   899A      5.859983   900A      5.864805  
	 901A      5.868070   902A      5.886360   903A      5.890391  
	 904A      5.905486   905A      5.919373   906A      5.929661  
	 907A      5.942440   908A      5.962917   909A      5.963552  
	 910A      5.999703   911A      6.005238   912A      6.018105  
	 913A      6.026931   914A      6.036827   915A      6.046686  
	 916A      6.052392   917A      6.106425   918A      6.118983  
	 919A      6.129499   920A      6.136493   921A      6.168171  
	 922A      6.176744   923A      6.192493   924A      6.214416  
	 925A      6.219444   926A      6.234941   927A      6.250794  
	 928A      6.271968   929A      6.273075   930A      6.286626  
	 931A      6.286754   932A      6.298842   933A      6.306082  
	 934A      6.324829   935A      6.333665   936A      6.347969  
	 937A      6.355995   938A      6.358092   939A      6.376868  
	 940A      6.411769   941A      6.453509   942A      6.461670  
	 943A      6.468488   944A      6.485643   945A      6.546490  
	 946A      6.553596   947A      6.585160   948A      6.615947  
	 949A      6.710603   950A      6.730586   951A      6.761622  
	 952A      6.869069   953A      6.894550   954A      6.900821  
	 955A      6.916441   956A      6.917228   957A      6.949061  
	 958A      6.967979   959A      6.973368   960A      7.006929  
	 961A      7.025134   962A      7.030305   963A      7.046768  
	 964A      7.088486   965A      7.107219   966A      7.107598  
	 967A      7.143705   968A      7.209918   969A      7.211006  
	 970A      7.332695   971A      7.337634   972A      7.390085  
	 973A      7.456681   974A      7.509544   975A      7.544151  
	 976A      7.720575   977A      7.887432   978A      7.893120  
	 979A      7.897151   980A      7.912849   981A      7.920206  
	 982A      7.969677   983A      7.985668   984A      8.000162  
	 985A      8.112498   986A      8.153789   987A      8.316779  
	 988A      8.379155   989A      8.397371   990A      8.400976  
	 991A      8.509698   992A      8.602609   993A      8.605031  
	 994A      9.067172   995A      9.143886   996A      9.287838  
	 997A      9.699620   998A     10.519327   999A     10.579426  
	1000A     10.596481  1001A     10.770156  1002A     10.970520  
	1003A     18.051208  1004A     18.269958  1005A     18.434667  
	1006A     18.718781  1007A     19.555781  1008A     53.329258  
	1009A     53.991530  1010A     54.270106  1011A     54.651165  
	1012A     56.343669  

	Final Occupation by Irrep:
	          A 
	DOCC [    21 ]

  Energy converged.

  @RHF Final Energy:  -196.40443230947614

   => Energetics <=

    Nuclear Repulsion Energy =            185.6355854644373267
    One-Electron Energy =                -631.1340012658790783
    Two-Electron Energy =                 249.0939834919653038
    DFT Exchange-Correlation Energy =       0.0000000000000000
    Empirical Dispersion Energy =           0.0000000000000000
    Total Energy =                       -196.4044323094764479



Properties will be evaluated at   0.000000,   0.000000,   0.000000 Bohr
  ==> Properties <==


Properties computed using the SCF density density matrix
  Nuclear Dipole Moment: (a.u.)
     X:    -0.0004      Y:    -2.7771      Z:   164.0581

  Electronic Dipole Moment: (a.u.)
     X:     0.0004      Y:     2.7441      Z:  -164.0564

  Dipole Moment: (a.u.)
     X:    -0.0000      Y:    -0.0331      Z:     0.0017     Total:     0.0331

  Dipole Moment: (Debye)
     X:    -0.0000      Y:    -0.0841      Z:     0.0044     Total:     0.0842


  Saving occupied orbitals to File 180.

  Saving SAPT 2-MONOMER_B file.

*** tstop() called on bigdata.bme.utexas.edu at Tue Jan 14 13:06:58 2014
Module time:
	user time   =    1260.37 seconds =      21.01 minutes
	system time =       9.64 seconds =       0.16 minutes
	total time  =        180 seconds =       3.00 minutes
Total time:
	user time   =    4501.89 seconds =      75.03 minutes
	system time =      51.13 seconds =       0.85 minutes
	total time  =        662 seconds =      11.03 minutes
  No DF_BASIS_SAPT auxiliary basis selected, defaulting to aug-cc-pvtz-ri

  //>>>>>>>>>>>>>>>>>>>>>>>>>>>>>>>>>>>//
  //               SAPT2+              //
  //<<<<<<<<<<<<<<<<<<<<<<<<<<<<<<<<<<<//


*** tstart() called on bigdata.bme.utexas.edu
*** at Tue Jan 14 13:06:58 2014

        SAPT2+  
    Ed Hohenstein
     6 June 2009

      Orbital Information
  --------------------------
    NSO        =      1012
    NMO        =      1012
    NRI        =      2164
    NOCC A     =        21
    NOCC B     =        21
    FOCC A     =         5
    FOCC B     =         5
    NVIR A     =       991
    NVIR B     =       991

    Estimated memory usage: 27396.1 MB

    Elst10,r            =    -0.000935251941 H
    Exch10 (S^2)        =     0.003305096118 H
    Exch10              =     0.003306259020 H
    Ind20,r (A<-B)      =    -0.000222553640 H
    Ind20,r (B<-A)      =    -0.000222631875 H
    Ind20,r             =    -0.000445185514 H
    Exch-Ind20,r (A<-B) =     0.000188098573 H
    Exch-Ind20,r (B<-A) =     0.000188181787 H
    Exch-Ind20,r        =     0.000376280361 H
    Disp20              =    -0.008058162640 H
    Exch-Disp20         =     0.000455208649 H
    Elst12,r            =    -0.000211778235 H
    Exch11              =     0.000091117975 H
    Exch12              =     0.000314892424 H
    Ind22               =    -0.000069170859 H
    Disp21              =     0.000709434462 H
    Disp22 (SDQ)        =     0.000296487921 H

    (i =   1 of  16)      17465 seconds
    (i =   2 of  16)      35582 seconds
    (i =   3 of  16)      53934 seconds
    (i =   4 of  16)      71972 seconds
    (i =   5 of  16)      90002 seconds
    (i =   6 of  16)     107720 seconds
    (i =   7 of  16)     125940 seconds
    (i =   8 of  16)     144075 seconds
    (i =   9 of  16)     162117 seconds
    (i =  10 of  16)     179737 seconds
    (i =  11 of  16)     197909 seconds
    (i =  12 of  16)     215588 seconds
    (i =  13 of  16)     233727 seconds
    (i =  14 of  16)     251959 seconds
    (i =  15 of  16)     270219 seconds
    (i =  16 of  16)     287550 seconds

    Disp220 (T)         =    -0.000634619595 H

    (i =   1 of  16)      17642 seconds
    (i =   2 of  16)      35735 seconds
    (i =   3 of  16)      53628 seconds
    (i =   4 of  16)      71186 seconds
    (i =   5 of  16)      88444 seconds
    (i =   6 of  16)     105588 seconds
    (i =   7 of  16)     123532 seconds
    (i =   8 of  16)     141731 seconds
    (i =   9 of  16)     159900 seconds
    (i =  10 of  16)     178165 seconds
    (i =  11 of  16)     196239 seconds
    (i =  12 of  16)     214468 seconds
    (i =  13 of  16)     232347 seconds
    (i =  14 of  16)     250008 seconds
    (i =  15 of  16)     267959 seconds
    (i =  16 of  16)     285124 seconds

    Disp202 (T)         =    -0.000634614189 H

    Disp22 (T)          =    -0.001269233785 H

    SAPT Results  
  -----------------------------------------------------------------------
    Electrostatics          -1.14703018 mH      -0.71977233 kcal mol^-1
      Elst10,r              -0.93525194 mH      -0.58687948 kcal mol^-1
      Elst12,r              -0.21177823 mH      -0.13289285 kcal mol^-1

    Exchange                 3.71226942 mH       2.32948433 kcal mol^-1
      Exch10                 3.30625902 mH       2.07470894 kcal mol^-1
      Exch10(S^2)            3.30509612 mH       2.07397921 kcal mol^-1
      Exch11(S^2)            0.09111798 mH       0.05717740 kcal mol^-1
      Exch12(S^2)            0.31489242 mH       0.19759799 kcal mol^-1

    Induction               -0.30907829 mH      -0.19394957 kcal mol^-1
      Ind20,r               -0.44518551 mH      -0.27935814 kcal mol^-1
      Ind22                 -0.06917086 mH      -0.04340537 kcal mol^-1
      Exch-Ind20,r           0.37628036 mH       0.23611950 kcal mol^-1
      Exch-Ind22             0.05846470 mH       0.03668715 kcal mol^-1
      delta HF,r (2)        -0.22946698 mH      -0.14399271 kcal mol^-1

    Dispersion              -7.86626539 mH      -4.93615626 kcal mol^-1
      Disp20                -8.05816264 mH      -5.05657361 kcal mol^-1
      Disp21                 0.70943446 mH       0.44517686 kcal mol^-1
      Disp22 (SDQ)           0.29648792 mH       0.18604899 kcal mol^-1
      Disp22 (T)            -1.26923378 mH      -0.79645626 kcal mol^-1
      Exch-Disp20            0.45520865 mH       0.28564775 kcal mol^-1

    Total HF                 2.07263495 mH       1.30059812 kcal mol^-1
    Total SAPT0             -5.53031904 mH      -3.47032774 kcal mol^-1
    Total SAPT2             -5.34679304 mH      -3.35516343 kcal mol^-1
    Total SAPT2+            -5.61010444 mH      -3.52039383 kcal mol^-1

*** tstop() called on bigdata.bme.utexas.edu at Wed Jan 22 03:18:43 2014
Module time:
	user time   = 4202342.43 seconds =   70039.04 minutes
	system time =  287017.46 seconds =    4783.62 minutes
	total time  =     655905 seconds =   10931.75 minutes
Total time:
	user time   = 4206844.33 seconds =   70114.07 minutes
	system time =  287068.59 seconds =    4784.48 minutes
	total time  =     656567 seconds =   10942.78 minutes

*** PSI4 exiting successfully. Buy a developer a beer!
