    -----------------------------------------------------------------------
          PSI4: An Open-Source Ab Initio Electronic Structure Package
                              PSI 4.0.0-beta4 Driver

    J. M. Turney, A. C. Simmonett, R. M. Parrish, E. G. Hohenstein,
    F. A. Evangelista, J. T. Fermann, B. J. Mintz, L. A. Burns, J. J. Wilke,
    M. L. Abrams, N. J. Russ, M. L. Leininger, C. L. Janssen, E. T. Seidl,
    W. D. Allen, H. F. Schaefer, R. A. King, E. F. Valeev, C. D. Sherrill,
    and T. D. Crawford, WIREs Comput. Mol. Sci., (2011) (doi: 10.1002/wcms.93)

                         Additional Contributions by
    A. E. DePrince, M. Saitow, U. Bozkaya, A. Yu. Sokolov
    -----------------------------------------------------------------------

    Process ID:   9445
    PSI4DATADIR: /home/xzhu216/psi4/psi4-install/share/psi

    Using LocalCommunicator (Number of processes = 1)

    Memory level set to 256.000 MB

  ==> Input File <==

--------------------------------------------------------------------------
#psi4
#
memory 40 gb

molecule Cyclopentane_Neopentane {
0 1
    C     0.799914079    -1.022051643     0.687736956
    H     0.853555876    -1.122051012    -0.398014355
    H     1.491402098    -1.744169358     1.119720403
    C     1.116887003     0.424952788     1.099662054
    H     1.838142304     0.890145042     0.430452563
    H     1.555569586     0.439824638     2.097083555
    C    -0.244559155     1.165689590     1.102977140
    H    -0.258077602     2.000863135     0.405323332
    H    -0.448804499     1.576995819     2.090984469
    C    -1.298714178     0.103811907     0.739308994
    H    -1.473560779     0.105243377    -0.338005451
    H    -2.256734278     0.278041178     1.227158427
    C    -0.646879933    -1.220068359     1.136306600
    H    -1.124439184    -2.087627024     0.682993267
    H    -0.686018645    -1.345283315     2.220220065
--
0 1
    C     0.034581030     0.064479659     4.932421982
    C    -0.061763167    -0.087606317     6.448062461
    H     0.930783201    -0.103072521     6.900419682
    H    -0.620687935     0.740278184     6.886497373
    H    -0.568927865    -1.016272396     6.713412051
    C     0.748634273     1.371384773     4.596797102
    H     0.830153819     1.504883905     3.517115228
    H     0.205161886     2.226073208     5.002298486
    H     1.756238816     1.382035188     5.015030103
    C    -1.370430783     0.084304307     4.335102459
    H    -1.333499195     0.201494242     3.251253493
    H    -1.952730315     0.911727865     4.743448379
    H    -1.900333843    -0.843482537     4.556431752
    C     0.822480844    -1.109005245     4.355083809
    H     0.327260528    -2.055995982     4.575326957
    H     0.917324017    -1.021822481     3.271949032
    H     1.827198928    -1.146409883     4.778832265
units angstrom
no_reorient  #important for SAPT in psi4, default
symmetry c1  #important for SAPT in psi4, default
}

set {
basis aug-cc-pVTZ
scf_type DF
freeze_core True
}
energy('sapt2+')
--------------------------------------------------------------------------

  Memory set to  40.000 GiB by Python script.

  //>>>>>>>>>>>>>>>>>>>>>>>>>>>>>>>>>>>//
  //              Dimer HF             //
  //<<<<<<<<<<<<<<<<<<<<<<<<<<<<<<<<<<<//


  No DF_BASIS_SCF auxiliary basis selected, defaulting to aug-cc-pvtz-jkfit


*** tstart() called on node35.bme.utexas.edu
*** at Thu Mar 27 07:17:13 2014


         ---------------------------------------------------------
                                   SCF
            by Justin Turney, Rob Parrish, and Andy Simmonett
                              RHF Reference
                        8 Threads,  40000 MiB Core
         ---------------------------------------------------------

  ==> Geometry <==

    Molecular point group: c1
    Full point group: C1

    Geometry (in Angstrom), charge = 0, multiplicity = 1:

       Center              X                  Y                   Z       
    ------------   -----------------  -----------------  -----------------
           C          0.808987130066    -1.001515470163    -2.283937975264
           H          0.862628927066    -1.101514839163    -3.369689286264
           H          1.500475149066    -1.723633185163    -1.851954528264
           C          1.125960054066     0.445488960837    -1.872012877264
           H          1.847215355066     0.910681214837    -2.541222368264
           H          1.564642637066     0.460360810837    -0.874591376264
           C         -0.235486103934     1.186225762837    -1.868697791264
           H         -0.249004550934     2.021399307837    -2.566351599264
           H         -0.439731447934     1.597531991837    -0.880690462264
           C         -1.289641126934     0.124348079837    -2.232365937264
           H         -1.464487727934     0.125779549837    -3.309680382264
           H         -2.247661226934     0.298577350837    -1.744516504264
           C         -0.637806881934    -1.199532186163    -1.835368331264
           H         -1.115366132934    -2.067090851163    -2.288681664264
           H         -0.676945593934    -1.324747142163    -0.751454866264
           C          0.043654081066     0.085015831837     1.960747050736
           C         -0.052690115934    -0.067070144163     3.476387529736
           H          0.939856252066    -0.082536348163     3.928744750736
           H         -0.611614883934     0.760814356837     3.914822441736
           H         -0.559854813934    -0.995736223163     3.741737119736
           C          0.757707324066     1.391920945837     1.625122170736
           H          0.839226870066     1.525420077837     0.545440296736
           H          0.214234937066     2.246609380837     2.030623554736
           H          1.765311867066     1.402571360837     2.043355171736
           C         -1.361357731934     0.104840479837     1.363427527736
           H         -1.324426143934     0.222030414837     0.279578561736
           H         -1.943657263934     0.932264037837     1.771773447736
           H         -1.891260791934    -0.822946364163     1.584756820736
           C          0.831553895066    -1.088469072163     1.383408877736
           H          0.336333579066    -2.035459809163     1.603652025736
           H          0.926397068066    -1.001286308163     0.300274100736
           H          1.836271979066    -1.125873710163     1.807157333736

  Running in c1 symmetry.

  Nuclear repulsion =  596.911214696533307

  Charge       = 0
  Multiplicity = 1
  Electrons    = 82
  Nalpha       = 41
  Nbeta        = 41

  ==> Algorithm <==

  SCF Algorithm Type is DF.
  DIIS enabled.
  MOM disabled.
  Fractional occupation disabled.
  Guess Type is CORE.
  Energy threshold   = 1.00e-08
  Density threshold  = 1.00e-08
  Integral threshold = 0.00e+00

  ==> Primary Basis <==

  Basis Set: AUG-CC-PVTZ
    Number of shells: 338
    Number of basis function: 966
    Number of Cartesian functions: 1100
    Spherical Harmonics?: true
    Max angular momentum: 3

  ==> Pre-Iterations <==

   -------------------------------------------------------
    Irrep   Nso     Nmo     Nalpha   Nbeta   Ndocc  Nsocc
   -------------------------------------------------------
     A        966     966       0       0       0       0
   -------------------------------------------------------
    Total     966     966      41      41      41       0
   -------------------------------------------------------

 OEINTS: Wrapper to libmints.
   by Justin Turney

   Calculation information:
      Number of atoms:                  32
      Number of AO shells:             338
      Number of SO shells:             338
      Number of primitives:            542
      Number of atomic orbitals:      1100
      Number of basis functions:       966

      Number of irreps:                  1
      Number of functions per irrep: [ 966 ]

      Overlap, kinetic, potential, dipole, and quadrupole integrals
        stored in file 35.

  ==> Integral Setup <==

  ==> DFJK: Density-Fitted J/K Matrices <==

    J tasked:                  Yes
    K tasked:                  Yes
    wK tasked:                  No
    OpenMP threads:              8
    Integrals threads:           8
    Memory (MB):             28610
    Algorithm:                Core
    Integral Cache:           SAVE
    Schwarz Cutoff:          0E+00
    Fitting Condition:       1E-12

   => Auxiliary Basis Set <=

  Basis Set: aug-cc-pvtz-jkfit
    Number of shells: 608
    Number of basis function: 2052
    Number of Cartesian functions: 2520
    Spherical Harmonics?: true
    Max angular momentum: 4

  Minimum eigenvalue in the overlap matrix is 4.2079515476E-07.
  Using Symmetric Orthogonalization.
  SCF Guess: Core (One-Electron) Hamiltonian.

  Guess energy:  -332.93508501299902

  ==> Iterations <==

                        Total Energy        Delta E     RMS |[F,P]|

   @RHF iter   1:  -254.15436859440638   -2.54154e+02   1.71190e-02 
   @RHF iter   2:   -58.48331815518020    1.95671e+02   1.73907e-02 DIIS
   @RHF iter   3:  -262.77802071759925   -2.04295e+02   9.13686e-03 DIIS
   @RHF iter   4:  -162.92276537699104    9.98553e+01   1.45830e-02 DIIS
   @RHF iter   5:  -289.11949511727948   -1.26197e+02   1.01793e-02 DIIS
   @RHF iter   6:  -390.71415529026331   -1.01595e+02   1.29736e-03 DIIS
   @RHF iter   7:  -391.43387630754864   -7.19721e-01   6.19066e-04 DIIS
   @RHF iter   8:  -391.60574764195167   -1.71871e-01   7.61374e-05 DIIS
   @RHF iter   9:  -391.61069332438672   -4.94568e-03   2.50669e-05 DIIS
   @RHF iter  10:  -391.61115566612375   -4.62342e-04   7.60450e-06 DIIS
   @RHF iter  11:  -391.61120212716992   -4.64610e-05   2.79767e-06 DIIS
   @RHF iter  12:  -391.61120738714612   -5.25998e-06   1.03654e-06 DIIS
   @RHF iter  13:  -391.61120824457339   -8.57427e-07   2.40600e-07 DIIS
   @RHF iter  14:  -391.61120829325864   -4.86853e-08   5.26232e-08 DIIS
   @RHF iter  15:  -391.61120829587162   -2.61298e-09   1.71268e-08 DIIS
   @RHF iter  16:  -391.61120829609513   -2.23508e-10   4.01159e-09 DIIS

  ==> Post-Iterations <==

	Orbital Energies (a.u.)
	-----------------------

	Doubly Occupied:                                                      

	   1A    -11.226078     2A    -11.211016     3A    -11.210936  
	   4A    -11.210196     5A    -11.209671     6A    -11.207297  
	   7A    -11.204214     8A    -11.203115     9A    -11.202938  
	  10A    -11.202599    11A     -1.119604    12A     -1.105079  
	  13A     -0.960239    14A     -0.959435    15A     -0.928751  
	  16A     -0.928296    17A     -0.927988    18A     -0.780037  
	  19A     -0.769870    20A     -0.731085    21A     -0.661678  
	  22A     -0.645990    23A     -0.613678    24A     -0.612385  
	  25A     -0.603793    26A     -0.584955    27A     -0.580632  
	  28A     -0.546183    29A     -0.542787    30A     -0.508750  
	  31A     -0.506671    32A     -0.506005    33A     -0.477141  
	  34A     -0.476335    35A     -0.465920    36A     -0.465281  
	  37A     -0.460656    38A     -0.452979    39A     -0.450915  
	  40A     -0.449298    41A     -0.437637  

	Virtual:                                                              

	  42A      0.025911    43A      0.032489    44A      0.033048  
	  45A      0.033886    46A      0.045099    47A      0.046172  
	  48A      0.046879    49A      0.048049    50A      0.049186  
	  51A      0.064338    52A      0.065163    53A      0.068690  
	  54A      0.069791    55A      0.071478    56A      0.077122  
	  57A      0.083932    58A      0.087239    59A      0.091607  
	  60A      0.096681    61A      0.098405    62A      0.106018  
	  63A      0.106440    64A      0.117379    65A      0.119460  
	  66A      0.122100    67A      0.122700    68A      0.128109  
	  69A      0.133012    70A      0.133678    71A      0.135335  
	  72A      0.135551    73A      0.140606    74A      0.142910  
	  75A      0.151414    76A      0.154091    77A      0.157079  
	  78A      0.158502    79A      0.163001    80A      0.164478  
	  81A      0.170127    82A      0.170765    83A      0.177362  
	  84A      0.180165    85A      0.181938    86A      0.182470  
	  87A      0.185984    88A      0.192510    89A      0.192912  
	  90A      0.194789    91A      0.200011    92A      0.204763  
	  93A      0.205288    94A      0.209801    95A      0.217231  
	  96A      0.222049    97A      0.225770    98A      0.237230  
	  99A      0.243009   100A      0.249780   101A      0.258244  
	 102A      0.262082   103A      0.263833   104A      0.274927  
	 105A      0.286896   106A      0.288643   107A      0.290123  
	 108A      0.292599   109A      0.304598   110A      0.308166  
	 111A      0.310521   112A      0.311181   113A      0.312263  
	 114A      0.316569   115A      0.324862   116A      0.325129  
	 117A      0.329367   118A      0.331924   119A      0.334804  
	 120A      0.335280   121A      0.337779   122A      0.341957  
	 123A      0.345582   124A      0.348970   125A      0.350277  
	 126A      0.354591   127A      0.358262   128A      0.362241  
	 129A      0.369537   130A      0.371445   131A      0.374032  
	 132A      0.377010   133A      0.379264   134A      0.381094  
	 135A      0.383479   136A      0.385154   137A      0.388971  
	 138A      0.390881   139A      0.395482   140A      0.397630  
	 141A      0.397927   142A      0.405118   143A      0.409581  
	 144A      0.413957   145A      0.418089   146A      0.419270  
	 147A      0.425536   148A      0.428320   149A      0.437674  
	 150A      0.440628   151A      0.446758   152A      0.448996  
	 153A      0.450364   154A      0.454441   155A      0.456239  
	 156A      0.462605   157A      0.467050   158A      0.470007  
	 159A      0.474390   160A      0.482703   161A      0.483477  
	 162A      0.486810   163A      0.490071   164A      0.495579  
	 165A      0.498675   166A      0.503388   167A      0.503610  
	 168A      0.509425   169A      0.510358   170A      0.515003  
	 171A      0.516449   172A      0.519728   173A      0.521802  
	 174A      0.526805   175A      0.530035   176A      0.531315  
	 177A      0.532180   178A      0.532689   179A      0.537966  
	 180A      0.542761   181A      0.546327   182A      0.549809  
	 183A      0.553748   184A      0.557852   185A      0.561430  
	 186A      0.562165   187A      0.565336   188A      0.569489  
	 189A      0.576433   190A      0.579678   191A      0.581969  
	 192A      0.591674   193A      0.595299   194A      0.596294  
	 195A      0.597168   196A      0.608129   197A      0.611025  
	 198A      0.614244   199A      0.622155   200A      0.624280  
	 201A      0.624619   202A      0.628613   203A      0.634218  
	 204A      0.635850   205A      0.640942   206A      0.642889  
	 207A      0.647567   208A      0.648304   209A      0.651082  
	 210A      0.657135   211A      0.658154   212A      0.661118  
	 213A      0.663761   214A      0.668826   215A      0.670991  
	 216A      0.675878   217A      0.678607   218A      0.686195  
	 219A      0.687072   220A      0.691981   221A      0.697474  
	 222A      0.700212   223A      0.706638   224A      0.709705  
	 225A      0.712668   226A      0.726603   227A      0.731723  
	 228A      0.737413   229A      0.738542   230A      0.741838  
	 231A      0.742567   232A      0.750984   233A      0.757878  
	 234A      0.762631   235A      0.764690   236A      0.768922  
	 237A      0.779269   238A      0.788796   239A      0.793460  
	 240A      0.794008   241A      0.797143   242A      0.804144  
	 243A      0.811153   244A      0.819231   245A      0.822608  
	 246A      0.830648   247A      0.832208   248A      0.840875  
	 249A      0.843607   250A      0.851639   251A      0.856187  
	 252A      0.861538   253A      0.864662   254A      0.871942  
	 255A      0.873574   256A      0.876582   257A      0.885813  
	 258A      0.889449   259A      0.894217   260A      0.901963  
	 261A      0.911474   262A      0.914742   263A      0.916478  
	 264A      0.922500   265A      0.932544   266A      0.936669  
	 267A      0.937680   268A      0.938556   269A      0.944356  
	 270A      0.950920   271A      0.954128   272A      0.955207  
	 273A      0.962329   274A      0.963518   275A      0.967559  
	 276A      0.969488   277A      0.977000   278A      0.980314  
	 279A      0.989039   280A      0.990054   281A      0.994770  
	 282A      1.001644   283A      1.006680   284A      1.012833  
	 285A      1.014930   286A      1.023401   287A      1.024109  
	 288A      1.027696   289A      1.031490   290A      1.035111  
	 291A      1.038385   292A      1.043731   293A      1.047414  
	 294A      1.055320   295A      1.058128   296A      1.059281  
	 297A      1.063539   298A      1.064808   299A      1.065822  
	 300A      1.073071   301A      1.074397   302A      1.076448  
	 303A      1.086414   304A      1.088949   305A      1.098159  
	 306A      1.102023   307A      1.108182   308A      1.109720  
	 309A      1.114238   310A      1.116051   311A      1.121313  
	 312A      1.126561   313A      1.129747   314A      1.134959  
	 315A      1.144897   316A      1.146904   317A      1.149949  
	 318A      1.157540   319A      1.159556   320A      1.161855  
	 321A      1.172414   322A      1.179941   323A      1.187373  
	 324A      1.189295   325A      1.192643   326A      1.193236  
	 327A      1.201974   328A      1.204374   329A      1.204894  
	 330A      1.213404   331A      1.217510   332A      1.222106  
	 333A      1.229707   334A      1.234619   335A      1.241282  
	 336A      1.251740   337A      1.254487   338A      1.259816  
	 339A      1.261999   340A      1.271698   341A      1.277377  
	 342A      1.279039   343A      1.281821   344A      1.286867  
	 345A      1.291543   346A      1.294396   347A      1.301494  
	 348A      1.303386   349A      1.306369   350A      1.316172  
	 351A      1.316969   352A      1.322963   353A      1.334892  
	 354A      1.337338   355A      1.340984   356A      1.350498  
	 357A      1.353043   358A      1.356059   359A      1.366992  
	 360A      1.376456   361A      1.377096   362A      1.385604  
	 363A      1.388101   364A      1.393714   365A      1.400803  
	 366A      1.402403   367A      1.405845   368A      1.409572  
	 369A      1.411150   370A      1.425129   371A      1.427359  
	 372A      1.431056   373A      1.436706   374A      1.439902  
	 375A      1.446403   376A      1.453572   377A      1.459558  
	 378A      1.474371   379A      1.477614   380A      1.483257  
	 381A      1.487001   382A      1.495519   383A      1.502144  
	 384A      1.508396   385A      1.508943   386A      1.514165  
	 387A      1.516254   388A      1.523919   389A      1.529904  
	 390A      1.537770   391A      1.544053   392A      1.553842  
	 393A      1.557784   394A      1.568060   395A      1.568887  
	 396A      1.572291   397A      1.576761   398A      1.581743  
	 399A      1.583468   400A      1.592004   401A      1.593707  
	 402A      1.599353   403A      1.601852   404A      1.606304  
	 405A      1.618040   406A      1.620891   407A      1.624573  
	 408A      1.629276   409A      1.632580   410A      1.639868  
	 411A      1.641351   412A      1.650445   413A      1.655105  
	 414A      1.661232   415A      1.664673   416A      1.670360  
	 417A      1.674217   418A      1.679401   419A      1.684748  
	 420A      1.687932   421A      1.693925   422A      1.701012  
	 423A      1.710098   424A      1.712136   425A      1.713513  
	 426A      1.718265   427A      1.729612   428A      1.731337  
	 429A      1.738671   430A      1.745240   431A      1.747420  
	 432A      1.754527   433A      1.762294   434A      1.767429  
	 435A      1.773080   436A      1.775084   437A      1.778413  
	 438A      1.784317   439A      1.789818   440A      1.791716  
	 441A      1.803665   442A      1.806729   443A      1.808222  
	 444A      1.814422   445A      1.825101   446A      1.828557  
	 447A      1.833945   448A      1.839382   449A      1.846617  
	 450A      1.849154   451A      1.854715   452A      1.859230  
	 453A      1.861590   454A      1.864710   455A      1.873672  
	 456A      1.874569   457A      1.881779   458A      1.888443  
	 459A      1.892539   460A      1.898289   461A      1.905376  
	 462A      1.912646   463A      1.913394   464A      1.915897  
	 465A      1.920523   466A      1.921966   467A      1.933570  
	 468A      1.939209   469A      1.940633   470A      1.943673  
	 471A      1.953096   472A      1.954932   473A      1.961743  
	 474A      1.968029   475A      1.969939   476A      1.976975  
	 477A      1.981971   478A      1.985524   479A      1.986773  
	 480A      2.001759   481A      2.009298   482A      2.019096  
	 483A      2.025103   484A      2.032216   485A      2.035156  
	 486A      2.052292   487A      2.054608   488A      2.058460  
	 489A      2.069625   490A      2.073960   491A      2.074473  
	 492A      2.078667   493A      2.086227   494A      2.090738  
	 495A      2.092777   496A      2.106714   497A      2.117292  
	 498A      2.124924   499A      2.127550   500A      2.137332  
	 501A      2.139842   502A      2.144321   503A      2.151441  
	 504A      2.160873   505A      2.169276   506A      2.170717  
	 507A      2.179464   508A      2.184465   509A      2.186775  
	 510A      2.195428   511A      2.196831   512A      2.205467  
	 513A      2.206488   514A      2.218746   515A      2.220967  
	 516A      2.223694   517A      2.238409   518A      2.242080  
	 519A      2.250923   520A      2.254386   521A      2.262960  
	 522A      2.274338   523A      2.277617   524A      2.283349  
	 525A      2.288525   526A      2.294985   527A      2.297772  
	 528A      2.303923   529A      2.314523   530A      2.325663  
	 531A      2.330877   532A      2.345026   533A      2.351702  
	 534A      2.357358   535A      2.365622   536A      2.370157  
	 537A      2.377732   538A      2.382923   539A      2.389556  
	 540A      2.392807   541A      2.395634   542A      2.404885  
	 543A      2.408993   544A      2.427134   545A      2.431825  
	 546A      2.436671   547A      2.439638   548A      2.452386  
	 549A      2.461056   550A      2.472110   551A      2.490439  
	 552A      2.493226   553A      2.499243   554A      2.501061  
	 555A      2.511289   556A      2.526853   557A      2.540763  
	 558A      2.543251   559A      2.544074   560A      2.551534  
	 561A      2.555398   562A      2.560436   563A      2.564397  
	 564A      2.573224   565A      2.578422   566A      2.583611  
	 567A      2.599538   568A      2.609362   569A      2.625792  
	 570A      2.632994   571A      2.639461   572A      2.643617  
	 573A      2.649956   574A      2.655989   575A      2.674839  
	 576A      2.677281   577A      2.684686   578A      2.690245  
	 579A      2.704282   580A      2.713090   581A      2.721115  
	 582A      2.731280   583A      2.754217   584A      2.762711  
	 585A      2.773618   586A      2.793258   587A      2.816317  
	 588A      2.820778   589A      2.832714   590A      2.840055  
	 591A      2.847039   592A      2.862765   593A      2.868809  
	 594A      2.881192   595A      2.895990   596A      2.909419  
	 597A      2.954151   598A      3.012327   599A      3.024986  
	 600A      3.099220   601A      3.153341   602A      3.154662  
	 603A      3.170388   604A      3.180536   605A      3.230404  
	 606A      3.266266   607A      3.308482   608A      3.360537  
	 609A      3.373711   610A      3.399873   611A      3.441538  
	 612A      3.449600   613A      3.457323   614A      3.487820  
	 615A      3.504589   616A      3.541109   617A      3.549227  
	 618A      3.561620   619A      3.568631   620A      3.595664  
	 621A      3.599376   622A      3.600504   623A      3.610808  
	 624A      3.621092   625A      3.629595   626A      3.639434  
	 627A      3.645076   628A      3.652057   629A      3.670540  
	 630A      3.675497   631A      3.693463   632A      3.708550  
	 633A      3.716969   634A      3.723398   635A      3.725163  
	 636A      3.733349   637A      3.745640   638A      3.750026  
	 639A      3.758253   640A      3.778065   641A      3.785849  
	 642A      3.790891   643A      3.795533   644A      3.802135  
	 645A      3.807039   646A      3.816546   647A      3.832458  
	 648A      3.835863   649A      3.841560   650A      3.846693  
	 651A      3.852523   652A      3.857158   653A      3.861610  
	 654A      3.869550   655A      3.876300   656A      3.891909  
	 657A      3.894207   658A      3.904644   659A      3.916611  
	 660A      3.917876   661A      3.921659   662A      3.927795  
	 663A      3.933396   664A      3.940289   665A      3.944759  
	 666A      3.949543   667A      3.952370   668A      3.970152  
	 669A      3.978092   670A      3.983268   671A      3.984305  
	 672A      3.992741   673A      3.997847   674A      4.002637  
	 675A      4.010410   676A      4.020450   677A      4.024568  
	 678A      4.041192   679A      4.044218   680A      4.045718  
	 681A      4.056978   682A      4.058716   683A      4.060427  
	 684A      4.069458   685A      4.073155   686A      4.078630  
	 687A      4.088927   688A      4.101935   689A      4.105900  
	 690A      4.113507   691A      4.119102   692A      4.122570  
	 693A      4.125156   694A      4.135931   695A      4.137709  
	 696A      4.144601   697A      4.149922   698A      4.158377  
	 699A      4.158564   700A      4.168706   701A      4.174203  
	 702A      4.177987   703A      4.195051   704A      4.198599  
	 705A      4.209517   706A      4.213300   707A      4.220348  
	 708A      4.222562   709A      4.225915   710A      4.237495  
	 711A      4.244791   712A      4.248452   713A      4.257436  
	 714A      4.258331   715A      4.260915   716A      4.275459  
	 717A      4.287805   718A      4.290936   719A      4.302010  
	 720A      4.309315   721A      4.320744   722A      4.327487  
	 723A      4.333956   724A      4.346320   725A      4.350506  
	 726A      4.352870   727A      4.354663   728A      4.361244  
	 729A      4.375509   730A      4.381336   731A      4.395393  
	 732A      4.406392   733A      4.418193   734A      4.422337  
	 735A      4.425554   736A      4.434432   737A      4.445374  
	 738A      4.452034   739A      4.452739   740A      4.460744  
	 741A      4.480654   742A      4.484960   743A      4.491110  
	 744A      4.503641   745A      4.511585   746A      4.522870  
	 747A      4.535320   748A      4.541857   749A      4.545219  
	 750A      4.551167   751A      4.564826   752A      4.570072  
	 753A      4.575849   754A      4.577638   755A      4.585693  
	 756A      4.591000   757A      4.598168   758A      4.605267  
	 759A      4.613898   760A      4.618477   761A      4.622880  
	 762A      4.630523   763A      4.644778   764A      4.645283  
	 765A      4.671399   766A      4.679085   767A      4.686498  
	 768A      4.693731   769A      4.709251   770A      4.727946  
	 771A      4.737954   772A      4.743506   773A      4.763808  
	 774A      4.771683   775A      4.779388   776A      4.782236  
	 777A      4.785233   778A      4.796290   779A      4.801958  
	 780A      4.812837   781A      4.820512   782A      4.823598  
	 783A      4.847700   784A      4.848567   785A      4.854267  
	 786A      4.860957   787A      4.879515   788A      4.896484  
	 789A      4.901627   790A      4.915175   791A      4.918590  
	 792A      4.931498   793A      4.936963   794A      4.947343  
	 795A      4.955444   796A      4.959517   797A      4.960507  
	 798A      4.965171   799A      4.979095   800A      4.985796  
	 801A      4.988207   802A      4.996788   803A      5.027655  
	 804A      5.039142   805A      5.040546   806A      5.042222  
	 807A      5.062932   808A      5.067751   809A      5.076576  
	 810A      5.084832   811A      5.089841   812A      5.100219  
	 813A      5.110495   814A      5.126635   815A      5.134563  
	 816A      5.135077   817A      5.146897   818A      5.156255  
	 819A      5.162618   820A      5.174070   821A      5.180488  
	 822A      5.200321   823A      5.208658   824A      5.211064  
	 825A      5.221121   826A      5.229257   827A      5.245919  
	 828A      5.262396   829A      5.271036   830A      5.286785  
	 831A      5.291411   832A      5.292466   833A      5.311592  
	 834A      5.323808   835A      5.332815   836A      5.336099  
	 837A      5.340822   838A      5.355105   839A      5.361799  
	 840A      5.370312   841A      5.377957   842A      5.385504  
	 843A      5.393082   844A      5.399862   845A      5.406350  
	 846A      5.420710   847A      5.427124   848A      5.437425  
	 849A      5.441706   850A      5.463327   851A      5.469984  
	 852A      5.477867   853A      5.489903   854A      5.493690  
	 855A      5.506919   856A      5.514170   857A      5.525144  
	 858A      5.534686   859A      5.555398   860A      5.561566  
	 861A      5.563080   862A      5.569313   863A      5.573805  
	 864A      5.579885   865A      5.583991   866A      5.594609  
	 867A      5.597118   868A      5.598280   869A      5.622787  
	 870A      5.627111   871A      5.637537   872A      5.645985  
	 873A      5.666767   874A      5.671002   875A      5.681131  
	 876A      5.685262   877A      5.701135   878A      5.709704  
	 879A      5.728048   880A      5.745705   881A      5.747243  
	 882A      5.767564   883A      5.777022   884A      5.806953  
	 885A      5.809215   886A      5.818499   887A      5.821731  
	 888A      5.830086   889A      5.854375   890A      5.860778  
	 891A      5.864874   892A      5.879074   893A      5.888055  
	 894A      5.908409   895A      5.913500   896A      5.934032  
	 897A      5.945426   898A      5.956847   899A      5.961685  
	 900A      5.973636   901A      5.976828   902A      5.991269  
	 903A      5.996678   904A      6.018175   905A      6.024092  
	 906A      6.043427   907A      6.050769   908A      6.061809  
	 909A      6.082148   910A      6.088420   911A      6.118129  
	 912A      6.156544   913A      6.162114   914A      6.190834  
	 915A      6.214471   916A      6.227871   917A      6.238078  
	 918A      6.246011   919A      6.248578   920A      6.274009  
	 921A      6.285617   922A      6.299508   923A      6.299819  
	 924A      6.328732   925A      6.352524   926A      6.377476  
	 927A      6.416529   928A      6.476931   929A      6.481328  
	 930A      6.482894   931A      6.492882   932A      6.502015  
	 933A      6.505225   934A      6.546000   935A      6.574123  
	 936A      6.621829   937A      6.631814   938A      6.657527  
	 939A      6.692269   940A      6.771893   941A      6.909274  
	 942A      6.920456   943A      6.945422   944A      6.960940  
	 945A      6.975977   946A      7.057048   947A      7.090826  
	 948A      7.097059   949A      7.108411   950A      7.122342  
	 951A      7.133539   952A      7.159194   953A      7.187378  
	 954A      7.205875   955A      7.238810   956A      7.316063  
	 957A     18.163647   958A     18.490114   959A     18.932010  
	 960A     19.396922   961A     19.545160   962A     19.587847  
	 963A     19.834839   964A     19.901786   965A     20.869711  
	 966A     21.006474  

	Final Occupation by Irrep:
	          A 
	DOCC [    41 ]

  Energy converged.

  @RHF Final Energy:  -391.61120829609513

   => Energetics <=

    Nuclear Repulsion Energy =            596.9112146965333068
    One-Electron Energy =               -1712.3486048458221376
    Two-Electron Energy =                 723.8261818531935887
    DFT Exchange-Correlation Energy =       0.0000000000000000
    Empirical Dispersion Energy =           0.0000000000000000
    Total Energy =                       -391.6112082960952421



Properties will be evaluated at   0.000000,   0.000000,   0.000000 Bohr
  ==> Properties <==


Properties computed using the SCF density density matrix
  Nuclear Dipole Moment: (a.u.)
     X:     0.1018      Y:     0.2093      Z:     3.1622

  Electronic Dipole Moment: (a.u.)
     X:    -0.1017      Y:    -0.2096      Z:    -3.2309

  Dipole Moment: (a.u.)
     X:     0.0001      Y:    -0.0003      Z:    -0.0687     Total:     0.0687

  Dipole Moment: (Debye)
     X:     0.0003      Y:    -0.0008      Z:    -0.1747     Total:     0.1747


  Saving occupied orbitals to File 180.

  Saving SAPT 2-DIMER file.

*** tstop() called on node35.bme.utexas.edu at Thu Mar 27 07:23:09 2014
Module time:
	user time   =    2348.76 seconds =      39.15 minutes
	system time =      28.85 seconds =       0.48 minutes
	total time  =        356 seconds =       5.93 minutes
Total time:
	user time   =    2348.76 seconds =      39.15 minutes
	system time =      28.85 seconds =       0.48 minutes
	total time  =        356 seconds =       5.93 minutes

  //>>>>>>>>>>>>>>>>>>>>>>>>>>>>>>>>>>>//
  //            Monomer A HF           //
  //<<<<<<<<<<<<<<<<<<<<<<<<<<<<<<<<<<<//


  No DF_BASIS_SCF auxiliary basis selected, defaulting to aug-cc-pvtz-jkfit


*** tstart() called on node35.bme.utexas.edu
*** at Thu Mar 27 07:23:09 2014


         ---------------------------------------------------------
                                   SCF
            by Justin Turney, Rob Parrish, and Andy Simmonett
                              RHF Reference
                        8 Threads,  40000 MiB Core
         ---------------------------------------------------------

  ==> Geometry <==

    Molecular point group: c1
    Full point group: C1

    Geometry (in Angstrom), charge = 0, multiplicity = 1:

       Center              X                  Y                   Z       
    ------------   -----------------  -----------------  -----------------
           C          0.808987130066    -1.001515470163    -2.283937975264
           H          0.862628927066    -1.101514839163    -3.369689286264
           H          1.500475149066    -1.723633185163    -1.851954528264
           C          1.125960054066     0.445488960837    -1.872012877264
           H          1.847215355066     0.910681214837    -2.541222368264
           H          1.564642637066     0.460360810837    -0.874591376264
           C         -0.235486103934     1.186225762837    -1.868697791264
           H         -0.249004550934     2.021399307837    -2.566351599264
           H         -0.439731447934     1.597531991837    -0.880690462264
           C         -1.289641126934     0.124348079837    -2.232365937264
           H         -1.464487727934     0.125779549837    -3.309680382264
           H         -2.247661226934     0.298577350837    -1.744516504264
           C         -0.637806881934    -1.199532186163    -1.835368331264
           H         -1.115366132934    -2.067090851163    -2.288681664264
           H         -0.676945593934    -1.324747142163    -0.751454866264
           C(Gh)      0.043654081066     0.085015831837     1.960747050736
           C(Gh)     -0.052690115934    -0.067070144163     3.476387529736
           H(Gh)      0.939856252066    -0.082536348163     3.928744750736
           H(Gh)     -0.611614883934     0.760814356837     3.914822441736
           H(Gh)     -0.559854813934    -0.995736223163     3.741737119736
           C(Gh)      0.757707324066     1.391920945837     1.625122170736
           H(Gh)      0.839226870066     1.525420077837     0.545440296736
           H(Gh)      0.214234937066     2.246609380837     2.030623554736
           H(Gh)      1.765311867066     1.402571360837     2.043355171736
           C(Gh)     -1.361357731934     0.104840479837     1.363427527736
           H(Gh)     -1.324426143934     0.222030414837     0.279578561736
           H(Gh)     -1.943657263934     0.932264037837     1.771773447736
           H(Gh)     -1.891260791934    -0.822946364163     1.584756820736
           C(Gh)      0.831553895066    -1.088469072163     1.383408877736
           H(Gh)      0.336333579066    -2.035459809163     1.603652025736
           H(Gh)      0.926397068066    -1.001286308163     0.300274100736
           H(Gh)      1.836271979066    -1.125873710163     1.807157333736

  Running in c1 symmetry.

  Nuclear repulsion =  188.289298286461616

  Charge       = 0
  Multiplicity = 1
  Electrons    = 40
  Nalpha       = 20
  Nbeta        = 20

  ==> Algorithm <==

  SCF Algorithm Type is DF.
  DIIS enabled.
  MOM disabled.
  Fractional occupation disabled.
  Guess Type is CORE.
  Energy threshold   = 1.00e-08
  Density threshold  = 1.00e-08
  Integral threshold = 0.00e+00

  ==> Primary Basis <==

  Basis Set: AUG-CC-PVTZ
    Number of shells: 338
    Number of basis function: 966
    Number of Cartesian functions: 1100
    Spherical Harmonics?: true
    Max angular momentum: 3

  ==> Pre-Iterations <==

   -------------------------------------------------------
    Irrep   Nso     Nmo     Nalpha   Nbeta   Ndocc  Nsocc
   -------------------------------------------------------
     A        966     966       0       0       0       0
   -------------------------------------------------------
    Total     966     966      20      20      20       0
   -------------------------------------------------------

 OEINTS: Wrapper to libmints.
   by Justin Turney

   Calculation information:
      Number of atoms:                  32
      Number of AO shells:             338
      Number of SO shells:             338
      Number of primitives:            542
      Number of atomic orbitals:      1100
      Number of basis functions:       966

      Number of irreps:                  1
      Number of functions per irrep: [ 966 ]

      Overlap, kinetic, potential, dipole, and quadrupole integrals
        stored in file 35.

  ==> Integral Setup <==

  ==> DFJK: Density-Fitted J/K Matrices <==

    J tasked:                  Yes
    K tasked:                  Yes
    wK tasked:                  No
    OpenMP threads:              8
    Integrals threads:           8
    Memory (MB):             28610
    Algorithm:                Core
    Integral Cache:           LOAD
    Schwarz Cutoff:          0E+00
    Fitting Condition:       1E-12

   => Auxiliary Basis Set <=

  Basis Set: aug-cc-pvtz-jkfit
    Number of shells: 608
    Number of basis function: 2052
    Number of Cartesian functions: 2520
    Spherical Harmonics?: true
    Max angular momentum: 4

  Minimum eigenvalue in the overlap matrix is 4.2079515466E-07.
  Using Symmetric Orthogonalization.
  SCF Guess: Core (One-Electron) Hamiltonian.

  Guess energy:  -160.72707943210995

  ==> Iterations <==

                        Total Energy        Delta E     RMS |[F,P]|

   @RHF iter   1:  -140.66370691728409   -1.40664e+02   1.10730e-02 
   @RHF iter   2:  -115.95236037124258    2.47113e+01   5.69079e-03 DIIS
   @RHF iter   3:  -184.48621200581439   -6.85339e+01   4.49813e-03 DIIS
   @RHF iter   4:  -193.28355317338119   -8.79734e+00   1.79170e-03 DIIS
   @RHF iter   5:  -195.16885159918175   -1.88530e+00   2.86905e-04 DIIS
   @RHF iter   6:  -195.22738998725973   -5.85384e-02   6.07750e-05 DIIS
   @RHF iter   7:  -195.23009244465541   -2.70246e-03   1.45686e-05 DIIS
   @RHF iter   8:  -195.23030760055249   -2.15156e-04   4.90288e-06 DIIS
   @RHF iter   9:  -195.23032502257084   -1.74220e-05   1.53674e-06 DIIS
   @RHF iter  10:  -195.23032666986805   -1.64730e-06   1.92800e-07 DIIS
   @RHF iter  11:  -195.23032669390741   -2.40394e-08   7.44478e-08 DIIS
   @RHF iter  12:  -195.23032669651391   -2.60650e-09   2.44098e-08 DIIS
   @RHF iter  13:  -195.23032669686066   -3.46745e-10   2.15629e-09 DIIS

  ==> Post-Iterations <==

	Orbital Energies (a.u.)
	-----------------------

	Doubly Occupied:                                                      

	   1A    -11.210406     2A    -11.210034     3A    -11.209988  
	   4A    -11.209399     5A    -11.209250     6A     -1.115732  
	   7A     -0.956645     8A     -0.956217     9A     -0.776583  
	  10A     -0.767359    11A     -0.649664    12A     -0.644333  
	  13A     -0.569876    14A     -0.568055    15A     -0.474640  
	  16A     -0.474206    17A     -0.463756    18A     -0.459950  
	  19A     -0.459612    20A     -0.448601  

	Virtual:                                                              

	  21A      0.018702    22A      0.030052    23A      0.030420  
	  24A      0.031299    25A      0.043466    26A      0.044263  
	  27A      0.045190    28A      0.047693    29A      0.048812  
	  30A      0.062139    31A      0.064755    32A      0.066803  
	  33A      0.068515    34A      0.069786    35A      0.072929  
	  36A      0.076906    37A      0.083993    38A      0.086002  
	  39A      0.092036    40A      0.094692    41A      0.097297  
	  42A      0.099015    43A      0.100260    44A      0.109184  
	  45A      0.113573    46A      0.120759    47A      0.122263  
	  48A      0.125796    49A      0.127143    50A      0.129048  
	  51A      0.133619    52A      0.137055    53A      0.138391  
	  54A      0.146988    55A      0.152035    56A      0.153887  
	  57A      0.156078    58A      0.159535    59A      0.161075  
	  60A      0.162219    61A      0.164463    62A      0.166749  
	  63A      0.177208    64A      0.178786    65A      0.180728  
	  66A      0.181635    67A      0.184912    68A      0.187314  
	  69A      0.190929    70A      0.191114    71A      0.193349  
	  72A      0.194728    73A      0.198826    74A      0.208639  
	  75A      0.208851    76A      0.214498    77A      0.223328  
	  78A      0.228641    79A      0.246936    80A      0.247845  
	  81A      0.248958    82A      0.250032    83A      0.261344  
	  84A      0.269150    85A      0.271744    86A      0.282877  
	  87A      0.291099    88A      0.294717    89A      0.299400  
	  90A      0.304049    91A      0.309515    92A      0.318338  
	  93A      0.320191    94A      0.320395    95A      0.324341  
	  96A      0.327695    97A      0.328476    98A      0.330040  
	  99A      0.334044   100A      0.338353   101A      0.339114  
	 102A      0.345049   103A      0.345950   104A      0.352222  
	 105A      0.354536   106A      0.357026   107A      0.358161  
	 108A      0.364061   109A      0.367035   110A      0.370201  
	 111A      0.374308   112A      0.378077   113A      0.378822  
	 114A      0.383425   115A      0.384701   116A      0.387685  
	 117A      0.395032   118A      0.396193   119A      0.399553  
	 120A      0.400670   121A      0.407663   122A      0.414422  
	 123A      0.418319   124A      0.419493   125A      0.423944  
	 126A      0.424517   127A      0.429904   128A      0.435921  
	 129A      0.437778   130A      0.443961   131A      0.448348  
	 132A      0.450832   133A      0.453099   134A      0.457277  
	 135A      0.460706   136A      0.463278   137A      0.469501  
	 138A      0.472107   139A      0.481168   140A      0.483674  
	 141A      0.484481   142A      0.494540   143A      0.498687  
	 144A      0.499503   145A      0.500056   146A      0.508123  
	 147A      0.511813   148A      0.514275   149A      0.516333  
	 150A      0.517888   151A      0.520278   152A      0.525836  
	 153A      0.527517   154A      0.532699   155A      0.536493  
	 156A      0.542347   157A      0.542968   158A      0.552978  
	 159A      0.554867   160A      0.557311   161A      0.563515  
	 162A      0.563967   163A      0.567576   164A      0.570923  
	 165A      0.575719   166A      0.580331   167A      0.585908  
	 168A      0.589963   169A      0.594832   170A      0.599169  
	 171A      0.601182   172A      0.606919   173A      0.608375  
	 174A      0.610228   175A      0.617015   176A      0.618736  
	 177A      0.625673   178A      0.627288   179A      0.636029  
	 180A      0.638257   181A      0.640343   182A      0.645264  
	 183A      0.647188   184A      0.652631   185A      0.659592  
	 186A      0.660493   187A      0.664206   188A      0.665745  
	 189A      0.671016   190A      0.674396   191A      0.677268  
	 192A      0.680345   193A      0.685278   194A      0.685496  
	 195A      0.687286   196A      0.689262   197A      0.704030  
	 198A      0.704525   199A      0.705813   200A      0.709168  
	 201A      0.716301   202A      0.716685   203A      0.724614  
	 204A      0.728056   205A      0.732347   206A      0.739224  
	 207A      0.745034   208A      0.749999   209A      0.756026  
	 210A      0.756378   211A      0.760776   212A      0.765411  
	 213A      0.766564   214A      0.770595   215A      0.772052  
	 216A      0.781594   217A      0.787623   218A      0.791777  
	 219A      0.797794   220A      0.801666   221A      0.805657  
	 222A      0.806668   223A      0.816404   224A      0.826623  
	 225A      0.828533   226A      0.829421   227A      0.835485  
	 228A      0.850904   229A      0.858373   230A      0.860454  
	 231A      0.868366   232A      0.870698   233A      0.881569  
	 234A      0.889559   235A      0.891887   236A      0.900442  
	 237A      0.901766   238A      0.904818   239A      0.908831  
	 240A      0.914143   241A      0.919984   242A      0.922495  
	 243A      0.929232   244A      0.932497   245A      0.936613  
	 246A      0.940491   247A      0.943274   248A      0.945827  
	 249A      0.957162   250A      0.961719   251A      0.966181  
	 252A      0.968337   253A      0.972547   254A      0.975913  
	 255A      0.978640   256A      0.992345   257A      0.999085  
	 258A      1.004605   259A      1.010239   260A      1.014665  
	 261A      1.019135   262A      1.023531   263A      1.028775  
	 264A      1.035546   265A      1.040989   266A      1.043845  
	 267A      1.047231   268A      1.053878   269A      1.061842  
	 270A      1.068271   271A      1.073151   272A      1.078452  
	 273A      1.083334   274A      1.085133   275A      1.087579  
	 276A      1.090506   277A      1.093987   278A      1.098100  
	 279A      1.106276   280A      1.107920   281A      1.123410  
	 282A      1.124978   283A      1.128195   284A      1.139937  
	 285A      1.140381   286A      1.147235   287A      1.147539  
	 288A      1.152428   289A      1.156792   290A      1.162169  
	 291A      1.173196   292A      1.174014   293A      1.177051  
	 294A      1.178713   295A      1.189706   296A      1.191123  
	 297A      1.193057   298A      1.200653   299A      1.203433  
	 300A      1.208970   301A      1.216519   302A      1.218197  
	 303A      1.220423   304A      1.226811   305A      1.234828  
	 306A      1.236630   307A      1.242923   308A      1.247339  
	 309A      1.249330   310A      1.254797   311A      1.264403  
	 312A      1.268774   313A      1.281949   314A      1.288495  
	 315A      1.295002   316A      1.297344   317A      1.302764  
	 318A      1.303693   319A      1.305931   320A      1.307873  
	 321A      1.312238   322A      1.320139   323A      1.326192  
	 324A      1.330390   325A      1.332490   326A      1.337208  
	 327A      1.340714   328A      1.348766   329A      1.352357  
	 330A      1.357565   331A      1.361979   332A      1.374840  
	 333A      1.377085   334A      1.382695   335A      1.385510  
	 336A      1.392305   337A      1.397992   338A      1.399286  
	 339A      1.401509   340A      1.405314   341A      1.410367  
	 342A      1.414587   343A      1.420656   344A      1.427682  
	 345A      1.431757   346A      1.432721   347A      1.437742  
	 348A      1.446825   349A      1.450474   350A      1.455065  
	 351A      1.456587   352A      1.464028   353A      1.466395  
	 354A      1.470111   355A      1.479190   356A      1.483930  
	 357A      1.488914   358A      1.497050   359A      1.502744  
	 360A      1.505638   361A      1.507018   362A      1.516520  
	 363A      1.527156   364A      1.533303   365A      1.534372  
	 366A      1.537748   367A      1.548923   368A      1.552068  
	 369A      1.560093   370A      1.564143   371A      1.565688  
	 372A      1.569094   373A      1.571718   374A      1.574806  
	 375A      1.584494   376A      1.586400   377A      1.589605  
	 378A      1.595821   379A      1.603351   380A      1.604606  
	 381A      1.612347   382A      1.617435   383A      1.620065  
	 384A      1.622330   385A      1.628121   386A      1.630375  
	 387A      1.633363   388A      1.641030   389A      1.648210  
	 390A      1.651084   391A      1.664522   392A      1.670151  
	 393A      1.674191   394A      1.686509   395A      1.688498  
	 396A      1.692619   397A      1.695021   398A      1.700366  
	 399A      1.703904   400A      1.708856   401A      1.722588  
	 402A      1.724197   403A      1.729560   404A      1.743059  
	 405A      1.746932   406A      1.753778   407A      1.761122  
	 408A      1.767888   409A      1.769901   410A      1.777901  
	 411A      1.783682   412A      1.787908   413A      1.793055  
	 414A      1.798795   415A      1.803111   416A      1.810304  
	 417A      1.815905   418A      1.817802   419A      1.820780  
	 420A      1.829510   421A      1.833574   422A      1.834200  
	 423A      1.836850   424A      1.849542   425A      1.852185  
	 426A      1.856108   427A      1.861688   428A      1.864439  
	 429A      1.870162   430A      1.874125   431A      1.876690  
	 432A      1.889827   433A      1.894801   434A      1.898803  
	 435A      1.908812   436A      1.914853   437A      1.919089  
	 438A      1.936718   439A      1.938079   440A      1.939547  
	 441A      1.941918   442A      1.944702   443A      1.962173  
	 444A      1.964081   445A      1.974912   446A      1.978747  
	 447A      1.981986   448A      1.988484   449A      1.990942  
	 450A      1.994600   451A      2.000369   452A      2.002571  
	 453A      2.005710   454A      2.028486   455A      2.032709  
	 456A      2.037043   457A      2.040753   458A      2.046225  
	 459A      2.060438   460A      2.070056   461A      2.074029  
	 462A      2.076276   463A      2.083598   464A      2.086986  
	 465A      2.092722   466A      2.096823   467A      2.101282  
	 468A      2.112637   469A      2.119840   470A      2.123625  
	 471A      2.127032   472A      2.134883   473A      2.141189  
	 474A      2.148296   475A      2.157830   476A      2.162545  
	 477A      2.167570   478A      2.176652   479A      2.182401  
	 480A      2.193219   481A      2.201123   482A      2.206410  
	 483A      2.207245   484A      2.213270   485A      2.218959  
	 486A      2.223734   487A      2.227419   488A      2.241813  
	 489A      2.247963   490A      2.251039   491A      2.263256  
	 492A      2.270236   493A      2.274400   494A      2.281572  
	 495A      2.286603   496A      2.292923   497A      2.301372  
	 498A      2.307655   499A      2.310076   500A      2.311024  
	 501A      2.325600   502A      2.331862   503A      2.342031  
	 504A      2.348632   505A      2.352886   506A      2.361788  
	 507A      2.364325   508A      2.367972   509A      2.375984  
	 510A      2.387704   511A      2.388669   512A      2.400473  
	 513A      2.411742   514A      2.413071   515A      2.420158  
	 516A      2.430361   517A      2.443963   518A      2.451399  
	 519A      2.460465   520A      2.472532   521A      2.475682  
	 522A      2.483710   523A      2.488181   524A      2.498171  
	 525A      2.504756   526A      2.518196   527A      2.518995  
	 528A      2.524147   529A      2.531013   530A      2.532136  
	 531A      2.540343   532A      2.549904   533A      2.556123  
	 534A      2.559835   535A      2.569930   536A      2.576377  
	 537A      2.586181   538A      2.595424   539A      2.598554  
	 540A      2.614493   541A      2.625638   542A      2.632206  
	 543A      2.635496   544A      2.646970   545A      2.649437  
	 546A      2.653102   547A      2.663340   548A      2.670171  
	 549A      2.682347   550A      2.689315   551A      2.697449  
	 552A      2.714162   553A      2.717211   554A      2.720248  
	 555A      2.728643   556A      2.736892   557A      2.748503  
	 558A      2.764250   559A      2.773154   560A      2.783474  
	 561A      2.807356   562A      2.814576   563A      2.831243  
	 564A      2.837885   565A      2.850749   566A      2.861006  
	 567A      2.872586   568A      2.898400   569A      2.900125  
	 570A      2.912390   571A      2.919504   572A      2.922402  
	 573A      2.930890   574A      2.940932   575A      2.951846  
	 576A      2.953918   577A      2.984405   578A      2.988342  
	 579A      3.007463   580A      3.014269   581A      3.045026  
	 582A      3.063095   583A      3.088426   584A      3.092505  
	 585A      3.096005   586A      3.106320   587A      3.131399  
	 588A      3.161218   589A      3.170778   590A      3.184498  
	 591A      3.204011   592A      3.211248   593A      3.212626  
	 594A      3.236234   595A      3.294584   596A      3.310113  
	 597A      3.332655   598A      3.380640   599A      3.433756  
	 600A      3.444507   601A      3.447555   602A      3.466132  
	 603A      3.491045   604A      3.514578   605A      3.532159  
	 606A      3.561488   607A      3.580901   608A      3.609990  
	 609A      3.612353   610A      3.630926   611A      3.658936  
	 612A      3.667479   613A      3.681944   614A      3.728480  
	 615A      3.738564   616A      3.744379   617A      3.750404  
	 618A      3.785360   619A      3.789803   620A      3.827216  
	 621A      3.839411   622A      3.848744   623A      3.862196  
	 624A      3.871733   625A      3.879329   626A      3.898909  
	 627A      3.914606   628A      3.918792   629A      3.942173  
	 630A      3.953776   631A      3.959432   632A      3.970671  
	 633A      3.982358   634A      4.011040   635A      4.031381  
	 636A      4.036666   637A      4.040656   638A      4.043528  
	 639A      4.066307   640A      4.069732   641A      4.073589  
	 642A      4.086384   643A      4.095890   644A      4.106248  
	 645A      4.109821   646A      4.121607   647A      4.136153  
	 648A      4.143022   649A      4.157826   650A      4.162792  
	 651A      4.168328   652A      4.177564   653A      4.186068  
	 654A      4.194092   655A      4.215078   656A      4.219050  
	 657A      4.225671   658A      4.238377   659A      4.250063  
	 660A      4.256039   661A      4.260686   662A      4.267027  
	 663A      4.273362   664A      4.278679   665A      4.289852  
	 666A      4.293541   667A      4.295757   668A      4.304917  
	 669A      4.321214   670A      4.324174   671A      4.338543  
	 672A      4.341776   673A      4.353212   674A      4.356428  
	 675A      4.368312   676A      4.370607   677A      4.374716  
	 678A      4.389518   679A      4.401503   680A      4.414558  
	 681A      4.422310   682A      4.428572   683A      4.438251  
	 684A      4.446258   685A      4.451073   686A      4.459940  
	 687A      4.468863   688A      4.473921   689A      4.488134  
	 690A      4.503205   691A      4.504192   692A      4.512776  
	 693A      4.518994   694A      4.523262   695A      4.539981  
	 696A      4.544195   697A      4.554701   698A      4.556748  
	 699A      4.565120   700A      4.574005   701A      4.577073  
	 702A      4.601547   703A      4.611533   704A      4.614906  
	 705A      4.626381   706A      4.632054   707A      4.635441  
	 708A      4.652790   709A      4.672819   710A      4.680456  
	 711A      4.694234   712A      4.706562   713A      4.711340  
	 714A      4.720799   715A      4.728994   716A      4.740061  
	 717A      4.750596   718A      4.762122   719A      4.764680  
	 720A      4.778855   721A      4.782813   722A      4.789234  
	 723A      4.796302   724A      4.806298   725A      4.812708  
	 726A      4.822039   727A      4.830633   728A      4.835082  
	 729A      4.837355   730A      4.847198   731A      4.856369  
	 732A      4.860297   733A      4.871201   734A      4.885459  
	 735A      4.890416   736A      4.906184   737A      4.922547  
	 738A      4.928959   739A      4.935338   740A      4.937111  
	 741A      4.945029   742A      4.949955   743A      4.960041  
	 744A      4.965936   745A      4.975453   746A      4.978442  
	 747A      4.988462   748A      4.995894   749A      5.003993  
	 750A      5.009821   751A      5.025126   752A      5.029267  
	 753A      5.030833   754A      5.032872   755A      5.043469  
	 756A      5.046594   757A      5.049688   758A      5.054817  
	 759A      5.057380   760A      5.060275   761A      5.066034  
	 762A      5.071949   763A      5.086340   764A      5.091001  
	 765A      5.095573   766A      5.101735   767A      5.108927  
	 768A      5.123023   769A      5.129641   770A      5.132227  
	 771A      5.148588   772A      5.161590   773A      5.166829  
	 774A      5.179845   775A      5.182539   776A      5.199666  
	 777A      5.206951   778A      5.216544   779A      5.219226  
	 780A      5.239094   781A      5.248966   782A      5.251866  
	 783A      5.266703   784A      5.275538   785A      5.282268  
	 786A      5.301779   787A      5.308808   788A      5.313345  
	 789A      5.319029   790A      5.326960   791A      5.333814  
	 792A      5.339428   793A      5.358787   794A      5.372048  
	 795A      5.374096   796A      5.383052   797A      5.396999  
	 798A      5.418753   799A      5.424495   800A      5.436278  
	 801A      5.447761   802A      5.449316   803A      5.458100  
	 804A      5.459897   805A      5.476545   806A      5.492073  
	 807A      5.495403   808A      5.513660   809A      5.517926  
	 810A      5.530448   811A      5.533396   812A      5.545838  
	 813A      5.554429   814A      5.560917   815A      5.568967  
	 816A      5.577361   817A      5.584902   818A      5.594730  
	 819A      5.600824   820A      5.609780   821A      5.617831  
	 822A      5.628273   823A      5.639989   824A      5.640499  
	 825A      5.653532   826A      5.660884   827A      5.672464  
	 828A      5.677520   829A      5.688885   830A      5.692089  
	 831A      5.699618   832A      5.701468   833A      5.713707  
	 834A      5.724989   835A      5.745378   836A      5.753212  
	 837A      5.755966   838A      5.779798   839A      5.788673  
	 840A      5.792027   841A      5.806117   842A      5.825737  
	 843A      5.832504   844A      5.836494   845A      5.851600  
	 846A      5.856105   847A      5.861953   848A      5.870368  
	 849A      5.880514   850A      5.889451   851A      5.892846  
	 852A      5.901913   853A      5.919404   854A      5.942557  
	 855A      5.946018   856A      5.961573   857A      5.978754  
	 858A      5.981053   859A      5.982797   860A      5.993476  
	 861A      6.003927   862A      6.018617   863A      6.026258  
	 864A      6.052326   865A      6.062757   866A      6.083273  
	 867A      6.112405   868A      6.147577   869A      6.157968  
	 870A      6.166172   871A      6.179331   872A      6.188437  
	 873A      6.193782   874A      6.205525   875A      6.216960  
	 876A      6.230971   877A      6.239639   878A      6.262333  
	 879A      6.275947   880A      6.298293   881A      6.303069  
	 882A      6.335179   883A      6.340443   884A      6.353979  
	 885A      6.360757   886A      6.370901   887A      6.377484  
	 888A      6.387653   889A      6.394295   890A      6.455599  
	 891A      6.470933   892A      6.473269   893A      6.486113  
	 894A      6.504892   895A      6.539653   896A      6.556949  
	 897A      6.604069   898A      6.612326   899A      6.643722  
	 900A      6.651934   901A      6.676203   902A      6.681613  
	 903A      6.733131   904A      6.776097   905A      6.887910  
	 906A      6.915289   907A      6.924869   908A      6.936249  
	 909A      6.937651   910A      6.985192   911A      7.009326  
	 912A      7.031981   913A      7.037644   914A      7.086480  
	 915A      7.134580   916A      7.151124   917A      7.196692  
	 918A      7.198897   919A      7.204362   920A      7.231499  
	 921A      7.268657   922A      7.304186   923A      7.345975  
	 924A      7.357790   925A      7.377742   926A      7.535510  
	 927A      7.664265   928A      7.671989   929A      7.849801  
	 930A      7.866091   931A      7.872252   932A      7.922542  
	 933A      7.929104   934A      7.998484   935A      8.000150  
	 936A      8.007154   937A      8.009731   938A      8.033301  
	 939A      8.077243   940A      8.447917   941A      8.491624  
	 942A      8.510324   943A      8.522476   944A      8.713867  
	 945A      8.730662   946A      8.791628   947A      8.831327  
	 948A      8.838118   949A      9.513725   950A      9.574319  
	 951A      9.655417   952A     10.414627   953A     10.906756  
	 954A     10.969621   955A     10.997825   956A     11.379332  
	 957A     18.499586   958A     19.032713   959A     19.582330  
	 960A     19.879599   961A     20.851757   962A     53.965378  
	 963A     55.831200   964A     56.307789   965A     56.921822  
	 966A     58.987133  

	Final Occupation by Irrep:
	          A 
	DOCC [    20 ]

  Energy converged.

  @RHF Final Energy:  -195.23032669686066

   => Energetics <=

    Nuclear Repulsion Energy =            188.2892982864616158
    One-Electron Energy =                -635.3706372844901580
    Two-Electron Energy =                 251.8510123011681969
    DFT Exchange-Correlation Energy =       0.0000000000000000
    Empirical Dispersion Energy =           0.0000000000000000
    Total Energy =                       -195.2303266968603168



Properties will be evaluated at   0.000000,   0.000000,   0.000000 Bohr
  ==> Properties <==


Properties computed using the SCF density density matrix
  Nuclear Dipole Moment: (a.u.)
     X:    -3.3753      Y:    -6.5622      Z:  -152.5635

  Electronic Dipole Moment: (a.u.)
     X:     3.3730      Y:     6.5566      Z:   152.5630

  Dipole Moment: (a.u.)
     X:    -0.0024      Y:    -0.0056      Z:    -0.0005     Total:     0.0061

  Dipole Moment: (Debye)
     X:    -0.0060      Y:    -0.0143      Z:    -0.0012     Total:     0.0155


  Saving occupied orbitals to File 180.

  Saving SAPT 2-MONOMER_A file.

*** tstop() called on node35.bme.utexas.edu at Thu Mar 27 07:26:35 2014
Module time:
	user time   =    1346.10 seconds =      22.44 minutes
	system time =      14.42 seconds =       0.24 minutes
	total time  =        206 seconds =       3.43 minutes
Total time:
	user time   =    3694.88 seconds =      61.58 minutes
	system time =      43.27 seconds =       0.72 minutes
	total time  =        562 seconds =       9.37 minutes

  //>>>>>>>>>>>>>>>>>>>>>>>>>>>>>>>>>>>//
  //            Monomer B HF           //
  //<<<<<<<<<<<<<<<<<<<<<<<<<<<<<<<<<<<//


  No DF_BASIS_SCF auxiliary basis selected, defaulting to aug-cc-pvtz-jkfit


*** tstart() called on node35.bme.utexas.edu
*** at Thu Mar 27 07:26:36 2014


         ---------------------------------------------------------
                                   SCF
            by Justin Turney, Rob Parrish, and Andy Simmonett
                              RHF Reference
                        8 Threads,  40000 MiB Core
         ---------------------------------------------------------

  ==> Geometry <==

    Molecular point group: c1
    Full point group: C1

    Geometry (in Angstrom), charge = 0, multiplicity = 1:

       Center              X                  Y                   Z       
    ------------   -----------------  -----------------  -----------------
           C(Gh)      0.808987130066    -1.001515470163    -2.283937975264
           H(Gh)      0.862628927066    -1.101514839163    -3.369689286264
           H(Gh)      1.500475149066    -1.723633185163    -1.851954528264
           C(Gh)      1.125960054066     0.445488960837    -1.872012877264
           H(Gh)      1.847215355066     0.910681214837    -2.541222368264
           H(Gh)      1.564642637066     0.460360810837    -0.874591376264
           C(Gh)     -0.235486103934     1.186225762837    -1.868697791264
           H(Gh)     -0.249004550934     2.021399307837    -2.566351599264
           H(Gh)     -0.439731447934     1.597531991837    -0.880690462264
           C(Gh)     -1.289641126934     0.124348079837    -2.232365937264
           H(Gh)     -1.464487727934     0.125779549837    -3.309680382264
           H(Gh)     -2.247661226934     0.298577350837    -1.744516504264
           C(Gh)     -0.637806881934    -1.199532186163    -1.835368331264
           H(Gh)     -1.115366132934    -2.067090851163    -2.288681664264
           H(Gh)     -0.676945593934    -1.324747142163    -0.751454866264
           C          0.043654081066     0.085015831837     1.960747050736
           C         -0.052690115934    -0.067070144163     3.476387529736
           H          0.939856252066    -0.082536348163     3.928744750736
           H         -0.611614883934     0.760814356837     3.914822441736
           H         -0.559854813934    -0.995736223163     3.741737119736
           C          0.757707324066     1.391920945837     1.625122170736
           H          0.839226870066     1.525420077837     0.545440296736
           H          0.214234937066     2.246609380837     2.030623554736
           H          1.765311867066     1.402571360837     2.043355171736
           C         -1.361357731934     0.104840479837     1.363427527736
           H         -1.324426143934     0.222030414837     0.279578561736
           H         -1.943657263934     0.932264037837     1.771773447736
           H         -1.891260791934    -0.822946364163     1.584756820736
           C          0.831553895066    -1.088469072163     1.383408877736
           H          0.336333579066    -2.035459809163     1.603652025736
           H          0.926397068066    -1.001286308163     0.300274100736
           H          1.836271979066    -1.125873710163     1.807157333736

  Running in c1 symmetry.

  Nuclear repulsion =  199.344815166686601

  Charge       = 0
  Multiplicity = 1
  Electrons    = 42
  Nalpha       = 21
  Nbeta        = 21

  ==> Algorithm <==

  SCF Algorithm Type is DF.
  DIIS enabled.
  MOM disabled.
  Fractional occupation disabled.
  Guess Type is CORE.
  Energy threshold   = 1.00e-08
  Density threshold  = 1.00e-08
  Integral threshold = 0.00e+00

  ==> Primary Basis <==

  Basis Set: AUG-CC-PVTZ
    Number of shells: 338
    Number of basis function: 966
    Number of Cartesian functions: 1100
    Spherical Harmonics?: true
    Max angular momentum: 3

  ==> Pre-Iterations <==

   -------------------------------------------------------
    Irrep   Nso     Nmo     Nalpha   Nbeta   Ndocc  Nsocc
   -------------------------------------------------------
     A        966     966       0       0       0       0
   -------------------------------------------------------
    Total     966     966      21      21      21       0
   -------------------------------------------------------

 OEINTS: Wrapper to libmints.
   by Justin Turney

   Calculation information:
      Number of atoms:                  32
      Number of AO shells:             338
      Number of SO shells:             338
      Number of primitives:            542
      Number of atomic orbitals:      1100
      Number of basis functions:       966

      Number of irreps:                  1
      Number of functions per irrep: [ 966 ]

      Overlap, kinetic, potential, dipole, and quadrupole integrals
        stored in file 35.

  ==> Integral Setup <==

  ==> DFJK: Density-Fitted J/K Matrices <==

    J tasked:                  Yes
    K tasked:                  Yes
    wK tasked:                  No
    OpenMP threads:              8
    Integrals threads:           8
    Memory (MB):             28610
    Algorithm:                Core
    Integral Cache:           LOAD
    Schwarz Cutoff:          0E+00
    Fitting Condition:       1E-12

   => Auxiliary Basis Set <=

  Basis Set: aug-cc-pvtz-jkfit
    Number of shells: 608
    Number of basis function: 2052
    Number of Cartesian functions: 2520
    Spherical Harmonics?: true
    Max angular momentum: 4

  Minimum eigenvalue in the overlap matrix is 4.2079515459E-07.
  Using Symmetric Orthogonalization.
  SCF Guess: Core (One-Electron) Hamiltonian.

  Guess energy:  -166.01974452225005

  ==> Iterations <==

                        Total Energy        Delta E     RMS |[F,P]|

   @RHF iter   1:  -131.83964245070342   -1.31840e+02   1.23340e-02 
   @RHF iter   2:  -112.31113758515522    1.95285e+01   5.74831e-03 DIIS
   @RHF iter   3:  -178.15839281862674   -6.58473e+01   6.16463e-03 DIIS
   @RHF iter   4:  -191.42098601114697   -1.32626e+01   2.97226e-03 DIIS
   @RHF iter   5:  -195.72294029446357   -4.30195e+00   1.10952e-03 DIIS
   @RHF iter   6:  -196.37478269012360   -6.51842e-01   2.19059e-04 DIIS
   @RHF iter   7:  -196.40354487722726   -2.87622e-02   3.77828e-05 DIIS
   @RHF iter   8:  -196.40459346481049   -1.04859e-03   8.15979e-06 DIIS
   @RHF iter   9:  -196.40465354725552   -6.00824e-05   1.21651e-06 DIIS
   @RHF iter  10:  -196.40465480250845   -1.25525e-06   3.27087e-07 DIIS
   @RHF iter  11:  -196.40465486562886   -6.31204e-08   9.80280e-08 DIIS
   @RHF iter  12:  -196.40465487273906   -7.11020e-09   1.40351e-08 DIIS
   @RHF iter  13:  -196.40465487294233   -2.03272e-10   3.75525e-09 DIIS

  ==> Post-Iterations <==

	Orbital Energies (a.u.)
	-----------------------

	Doubly Occupied:                                                      

	   1A    -11.226940     2A    -11.205658     3A    -11.205642  
	   4A    -11.205607     5A    -11.205509     6A     -1.106436  
	   7A     -0.928943     8A     -0.928743     9A     -0.928464  
	  10A     -0.729990    11A     -0.612026    12A     -0.611850  
	  13A     -0.611374    14A     -0.553018    15A     -0.552633  
	  16A     -0.509300    17A     -0.509187    18A     -0.509174  
	  19A     -0.452614    20A     -0.452450    21A     -0.452263  

	Virtual:                                                              

	  22A      0.019419    23A      0.030508    24A      0.030732  
	  25A      0.031245    26A      0.044619    27A      0.045326  
	  28A      0.045633    29A      0.047668    30A      0.048828  
	  31A      0.063604    32A      0.064927    33A      0.068386  
	  34A      0.068565    35A      0.069644    36A      0.072218  
	  37A      0.077036    38A      0.084356    39A      0.086975  
	  40A      0.091200    41A      0.092300    42A      0.097603  
	  43A      0.098498    44A      0.102965    45A      0.113588  
	  46A      0.117475    47A      0.121124    48A      0.124005  
	  49A      0.125648    50A      0.129318    51A      0.132410  
	  52A      0.134623    53A      0.138080    54A      0.140076  
	  55A      0.147471    56A      0.151405    57A      0.154533  
	  58A      0.156279    59A      0.157020    60A      0.161920  
	  61A      0.163928    62A      0.168576    63A      0.170248  
	  64A      0.174719    65A      0.176933    66A      0.182353  
	  67A      0.183140    68A      0.185293    69A      0.186577  
	  70A      0.187629    71A      0.192847    72A      0.194854  
	  73A      0.197674    74A      0.201949    75A      0.202587  
	  76A      0.211252    77A      0.217349    78A      0.221504  
	  79A      0.227928    80A      0.237639    81A      0.242687  
	  82A      0.244090    83A      0.244950    84A      0.258340  
	  85A      0.272802    86A      0.286440    87A      0.290598  
	  88A      0.294501    89A      0.297855    90A      0.306472  
	  91A      0.309293    92A      0.310685    93A      0.314407  
	  94A      0.315698    95A      0.318558    96A      0.319995  
	  97A      0.325641    98A      0.329698    99A      0.334308  
	 100A      0.334989   101A      0.339047   102A      0.340217  
	 103A      0.345666   104A      0.348424   105A      0.356299  
	 106A      0.356525   107A      0.361602   108A      0.364040  
	 109A      0.369844   110A      0.371891   111A      0.374265  
	 112A      0.375613   113A      0.379481   114A      0.381583  
	 115A      0.385917   116A      0.387856   117A      0.390371  
	 118A      0.393330   119A      0.395252   120A      0.399192  
	 121A      0.404676   122A      0.405394   123A      0.407898  
	 124A      0.410206   125A      0.411012   126A      0.415491  
	 127A      0.425898   128A      0.429297   129A      0.431550  
	 130A      0.432953   131A      0.442066   132A      0.445530  
	 133A      0.450780   134A      0.452296   135A      0.453374  
	 136A      0.454879   137A      0.456193   138A      0.461209  
	 139A      0.468778   140A      0.472468   141A      0.480829  
	 142A      0.481396   143A      0.489347   144A      0.491617  
	 145A      0.497367   146A      0.499746   147A      0.503861  
	 148A      0.505556   149A      0.513747   150A      0.515799  
	 151A      0.521406   152A      0.524125   153A      0.524575  
	 154A      0.528945   155A      0.534430   156A      0.537068  
	 157A      0.542511   158A      0.546205   159A      0.547624  
	 160A      0.549530   161A      0.554245   162A      0.556779  
	 163A      0.559067   164A      0.563456   165A      0.573130  
	 166A      0.574951   167A      0.581826   168A      0.587262  
	 169A      0.588513   170A      0.592245   171A      0.598601  
	 172A      0.604903   173A      0.608954   174A      0.610481  
	 175A      0.613449   176A      0.618214   177A      0.621640  
	 178A      0.624519   179A      0.626062   180A      0.632982  
	 181A      0.636586   182A      0.645927   183A      0.647349  
	 184A      0.649195   185A      0.652431   186A      0.655857  
	 187A      0.656556   188A      0.662363   189A      0.664736  
	 190A      0.665721   191A      0.669515   192A      0.676627  
	 193A      0.682121   194A      0.686422   195A      0.690550  
	 196A      0.699108   197A      0.701223   198A      0.705611  
	 199A      0.706846   200A      0.712162   201A      0.718257  
	 202A      0.718759   203A      0.722384   204A      0.725531  
	 205A      0.729483   206A      0.733794   207A      0.741050  
	 208A      0.749380   209A      0.751455   210A      0.751953  
	 211A      0.757033   212A      0.761161   213A      0.769309  
	 214A      0.771569   215A      0.775297   216A      0.778250  
	 217A      0.784870   218A      0.791503   219A      0.796587  
	 220A      0.799565   221A      0.803307   222A      0.814925  
	 223A      0.816696   224A      0.823055   225A      0.825056  
	 226A      0.831017   227A      0.832339   228A      0.843122  
	 229A      0.851491   230A      0.853508   231A      0.857882  
	 232A      0.862568   233A      0.866393   234A      0.867440  
	 235A      0.875321   236A      0.878988   237A      0.880200  
	 238A      0.886739   239A      0.895279   240A      0.896879  
	 241A      0.902514   242A      0.909625   243A      0.914857  
	 244A      0.918878   245A      0.931633   246A      0.937485  
	 247A      0.940659   248A      0.942560   249A      0.943071  
	 250A      0.948713   251A      0.952036   252A      0.953404  
	 253A      0.966878   254A      0.975844   255A      0.979204  
	 256A      0.981599   257A      1.005925   258A      1.007292  
	 259A      1.009629   260A      1.011399   261A      1.018988  
	 262A      1.022781   263A      1.024887   264A      1.029535  
	 265A      1.037045   266A      1.039860   267A      1.043019  
	 268A      1.047269   269A      1.054118   270A      1.057903  
	 271A      1.062837   272A      1.064405   273A      1.066807  
	 274A      1.072170   275A      1.082180   276A      1.085061  
	 277A      1.093413   278A      1.101707   279A      1.106189  
	 280A      1.107094   281A      1.112955   282A      1.116182  
	 283A      1.123702   284A      1.132031   285A      1.135536  
	 286A      1.142011   287A      1.142584   288A      1.151340  
	 289A      1.153632   290A      1.156243   291A      1.166060  
	 292A      1.170338   293A      1.171057   294A      1.178569  
	 295A      1.181177   296A      1.189474   297A      1.194865  
	 298A      1.199042   299A      1.201690   300A      1.209214  
	 301A      1.210328   302A      1.215412   303A      1.222802  
	 304A      1.224141   305A      1.227031   306A      1.229834  
	 307A      1.237811   308A      1.243776   309A      1.247012  
	 310A      1.253616   311A      1.255464   312A      1.263441  
	 313A      1.271972   314A      1.277913   315A      1.281071  
	 316A      1.287716   317A      1.292800   318A      1.300598  
	 319A      1.303860   320A      1.307250   321A      1.309039  
	 322A      1.312412   323A      1.316497   324A      1.321528  
	 325A      1.327866   326A      1.330609   327A      1.335273  
	 328A      1.339054   329A      1.343515   330A      1.346626  
	 331A      1.359649   332A      1.360700   333A      1.369084  
	 334A      1.378539   335A      1.379056   336A      1.382490  
	 337A      1.382858   338A      1.384663   339A      1.391923  
	 340A      1.401789   341A      1.408000   342A      1.409827  
	 343A      1.415645   344A      1.417503   345A      1.424333  
	 346A      1.428007   347A      1.437305   348A      1.439422  
	 349A      1.443009   350A      1.447309   351A      1.452124  
	 352A      1.457541   353A      1.463922   354A      1.467671  
	 355A      1.469089   356A      1.479073   357A      1.485394  
	 358A      1.489416   359A      1.497176   360A      1.502095  
	 361A      1.508204   362A      1.515457   363A      1.520372  
	 364A      1.525692   365A      1.529401   366A      1.536005  
	 367A      1.537976   368A      1.544058   369A      1.547057  
	 370A      1.559398   371A      1.560490   372A      1.565381  
	 373A      1.568578   374A      1.572023   375A      1.575837  
	 376A      1.581630   377A      1.587646   378A      1.589849  
	 379A      1.591384   380A      1.601486   381A      1.604157  
	 382A      1.610286   383A      1.614125   384A      1.617953  
	 385A      1.624203   386A      1.633768   387A      1.637170  
	 388A      1.645509   389A      1.648107   390A      1.649039  
	 391A      1.658005   392A      1.662421   393A      1.666189  
	 394A      1.667635   395A      1.679071   396A      1.686624  
	 397A      1.689212   398A      1.696140   399A      1.699820  
	 400A      1.702600   401A      1.711323   402A      1.714698  
	 403A      1.718211   404A      1.720252   405A      1.729953  
	 406A      1.736921   407A      1.740222   408A      1.750029  
	 409A      1.754344   410A      1.761115   411A      1.771153  
	 412A      1.777368   413A      1.778602   414A      1.784125  
	 415A      1.788727   416A      1.791437   417A      1.800397  
	 418A      1.802757   419A      1.808166   420A      1.812181  
	 421A      1.815359   422A      1.817688   423A      1.834902  
	 424A      1.839131   425A      1.842691   426A      1.844944  
	 427A      1.850036   428A      1.854534   429A      1.869177  
	 430A      1.876448   431A      1.881934   432A      1.889344  
	 433A      1.892624   434A      1.896438   435A      1.896937  
	 436A      1.907717   437A      1.917606   438A      1.917988  
	 439A      1.925078   440A      1.925576   441A      1.937248  
	 442A      1.941100   443A      1.953473   444A      1.957122  
	 445A      1.962430   446A      1.967782   447A      1.982040  
	 448A      1.982866   449A      1.987774   450A      1.988265  
	 451A      1.994228   452A      1.996276   453A      2.010533  
	 454A      2.014044   455A      2.022314   456A      2.030567  
	 457A      2.042989   458A      2.046894   459A      2.057798  
	 460A      2.061183   461A      2.070575   462A      2.078601  
	 463A      2.085963   464A      2.089142   465A      2.092984  
	 466A      2.102768   467A      2.107280   468A      2.122500  
	 469A      2.124413   470A      2.134853   471A      2.139548  
	 472A      2.140578   473A      2.142829   474A      2.147797  
	 475A      2.149609   476A      2.158880   477A      2.162946  
	 478A      2.170690   479A      2.175617   480A      2.177334  
	 481A      2.188181   482A      2.192014   483A      2.200214  
	 484A      2.203543   485A      2.207455   486A      2.212658  
	 487A      2.221076   488A      2.230584   489A      2.231312  
	 490A      2.239021   491A      2.243843   492A      2.247394  
	 493A      2.264918   494A      2.265828   495A      2.269392  
	 496A      2.270666   497A      2.278609   498A      2.283330  
	 499A      2.298856   500A      2.306689   501A      2.307007  
	 502A      2.312629   503A      2.319084   504A      2.331030  
	 505A      2.336608   506A      2.349777   507A      2.353438  
	 508A      2.354135   509A      2.355197   510A      2.368682  
	 511A      2.382748   512A      2.389417   513A      2.400316  
	 514A      2.404404   515A      2.410539   516A      2.413430  
	 517A      2.419311   518A      2.428412   519A      2.429315  
	 520A      2.440425   521A      2.451880   522A      2.456847  
	 523A      2.462003   524A      2.466340   525A      2.484963  
	 526A      2.487767   527A      2.498604   528A      2.506188  
	 529A      2.506716   530A      2.513585   531A      2.528219  
	 532A      2.546639   533A      2.548975   534A      2.550242  
	 535A      2.559225   536A      2.562146   537A      2.563315  
	 538A      2.578890   539A      2.588311   540A      2.593473  
	 541A      2.619081   542A      2.624760   543A      2.630662  
	 544A      2.633796   545A      2.660961   546A      2.665682  
	 547A      2.670939   548A      2.684557   549A      2.698247  
	 550A      2.718862   551A      2.723417   552A      2.733399  
	 553A      2.736640   554A      2.738902   555A      2.743979  
	 556A      2.769814   557A      2.776685   558A      2.786113  
	 559A      2.790224   560A      2.794215   561A      2.797431  
	 562A      2.806164   563A      2.819456   564A      2.834885  
	 565A      2.842887   566A      2.856347   567A      2.870961  
	 568A      2.878117   569A      2.883365   570A      2.897231  
	 571A      2.908668   572A      2.916867   573A      2.921970  
	 574A      2.935577   575A      2.941358   576A      2.958241  
	 577A      2.961905   578A      2.989705   579A      2.999293  
	 580A      3.012380   581A      3.035154   582A      3.043601  
	 583A      3.058007   584A      3.074257   585A      3.091344  
	 586A      3.107908   587A      3.124962   588A      3.149347  
	 589A      3.154342   590A      3.178099   591A      3.190166  
	 592A      3.226397   593A      3.267272   594A      3.283764  
	 595A      3.297228   596A      3.367360   597A      3.406052  
	 598A      3.419260   599A      3.421180   600A      3.438417  
	 601A      3.479257   602A      3.486707   603A      3.504463  
	 604A      3.508548   605A      3.523914   606A      3.578978  
	 607A      3.614084   608A      3.618041   609A      3.626649  
	 610A      3.647071   611A      3.662951   612A      3.674841  
	 613A      3.680490   614A      3.693290   615A      3.732558  
	 616A      3.744413   617A      3.768701   618A      3.775870  
	 619A      3.787290   620A      3.799196   621A      3.803903  
	 622A      3.824989   623A      3.842509   624A      3.858389  
	 625A      3.859048   626A      3.877893   627A      3.892334  
	 628A      3.899295   629A      3.911661   630A      3.919586  
	 631A      3.931361   632A      3.946460   633A      3.953095  
	 634A      3.987903   635A      3.991742   636A      3.997739  
	 637A      4.004998   638A      4.017046   639A      4.020778  
	 640A      4.027489   641A      4.034256   642A      4.044497  
	 643A      4.053136   644A      4.056249   645A      4.059535  
	 646A      4.083479   647A      4.091412   648A      4.095504  
	 649A      4.120841   650A      4.123895   651A      4.131826  
	 652A      4.144316   653A      4.149511   654A      4.166617  
	 655A      4.170550   656A      4.174099   657A      4.192801  
	 658A      4.206273   659A      4.209996   660A      4.216631  
	 661A      4.223368   662A      4.233211   663A      4.246886  
	 664A      4.248768   665A      4.250541   666A      4.258243  
	 667A      4.264911   668A      4.267465   669A      4.277767  
	 670A      4.281623   671A      4.285885   672A      4.300378  
	 673A      4.308774   674A      4.319497   675A      4.332119  
	 676A      4.332589   677A      4.345831   678A      4.353767  
	 679A      4.355966   680A      4.364415   681A      4.370192  
	 682A      4.372852   683A      4.379905   684A      4.402480  
	 685A      4.411176   686A      4.416845   687A      4.428931  
	 688A      4.431550   689A      4.443132   690A      4.446890  
	 691A      4.454525   692A      4.469494   693A      4.475361  
	 694A      4.481025   695A      4.494173   696A      4.504427  
	 697A      4.506862   698A      4.521892   699A      4.526276  
	 700A      4.548096   701A      4.550982   702A      4.556331  
	 703A      4.558348   704A      4.562373   705A      4.566296  
	 706A      4.576952   707A      4.581002   708A      4.598848  
	 709A      4.602256   710A      4.614059   711A      4.619293  
	 712A      4.633664   713A      4.642333   714A      4.656821  
	 715A      4.667994   716A      4.672161   717A      4.681710  
	 718A      4.711999   719A      4.726486   720A      4.737180  
	 721A      4.739660   722A      4.745360   723A      4.749004  
	 724A      4.758528   725A      4.770350   726A      4.772248  
	 727A      4.785755   728A      4.789847   729A      4.799825  
	 730A      4.818728   731A      4.823517   732A      4.830288  
	 733A      4.851792   734A      4.858251   735A      4.863295  
	 736A      4.873861   737A      4.880738   738A      4.888862  
	 739A      4.894489   740A      4.902126   741A      4.913448  
	 742A      4.920491   743A      4.921461   744A      4.932402  
	 745A      4.935279   746A      4.941546   747A      4.948122  
	 748A      4.961503   749A      4.964166   750A      4.971962  
	 751A      4.976939   752A      4.983691   753A      4.994867  
	 754A      5.005033   755A      5.016758   756A      5.021678  
	 757A      5.024253   758A      5.042854   759A      5.046835  
	 760A      5.061265   761A      5.063326   762A      5.074455  
	 763A      5.086144   764A      5.089137   765A      5.093955  
	 766A      5.100618   767A      5.108254   768A      5.115507  
	 769A      5.125158   770A      5.133478   771A      5.140175  
	 772A      5.149755   773A      5.153554   774A      5.158542  
	 775A      5.174818   776A      5.180293   777A      5.192390  
	 778A      5.218865   779A      5.230601   780A      5.235483  
	 781A      5.238952   782A      5.240310   783A      5.251496  
	 784A      5.266718   785A      5.277117   786A      5.282844  
	 787A      5.299005   788A      5.312062   789A      5.319002  
	 790A      5.345170   791A      5.348654   792A      5.357862  
	 793A      5.365278   794A      5.374225   795A      5.379526  
	 796A      5.403741   797A      5.407384   798A      5.411966  
	 799A      5.414265   800A      5.422026   801A      5.431616  
	 802A      5.436605   803A      5.449219   804A      5.452955  
	 805A      5.453844   806A      5.469661   807A      5.481889  
	 808A      5.489103   809A      5.492442   810A      5.511307  
	 811A      5.516777   812A      5.532413   813A      5.539747  
	 814A      5.545623   815A      5.558005   816A      5.567460  
	 817A      5.576735   818A      5.583172   819A      5.591146  
	 820A      5.599420   821A      5.604570   822A      5.613807  
	 823A      5.621252   824A      5.624902   825A      5.631423  
	 826A      5.632879   827A      5.648099   828A      5.660734  
	 829A      5.664633   830A      5.684871   831A      5.690028  
	 832A      5.695515   833A      5.709150   834A      5.719583  
	 835A      5.727804   836A      5.734475   837A      5.746389  
	 838A      5.751594   839A      5.766856   840A      5.775868  
	 841A      5.779602   842A      5.792634   843A      5.809462  
	 844A      5.814357   845A      5.817897   846A      5.829942  
	 847A      5.847947   848A      5.857838   849A      5.880745  
	 850A      5.893070   851A      5.902816   852A      5.925192  
	 853A      5.931241   854A      5.936677   855A      5.950856  
	 856A      5.953011   857A      5.965929   858A      5.969401  
	 859A      5.971475   860A      6.001209   861A      6.007394  
	 862A      6.014308   863A      6.037635   864A      6.045443  
	 865A      6.050592   866A      6.053999   867A      6.071363  
	 868A      6.074576   869A      6.092870   870A      6.133021  
	 871A      6.145822   872A      6.158258   873A      6.160081  
	 874A      6.174154   875A      6.188721   876A      6.203447  
	 877A      6.210843   878A      6.217723   879A      6.227272  
	 880A      6.243263   881A      6.259073   882A      6.266441  
	 883A      6.269966   884A      6.270342   885A      6.280506  
	 886A      6.289132   887A      6.315703   888A      6.357890  
	 889A      6.360507   890A      6.402480   891A      6.423320  
	 892A      6.429637   893A      6.439178   894A      6.480709  
	 895A      6.484001   896A      6.508058   897A      6.510164  
	 898A      6.527343   899A      6.538314   900A      6.546141  
	 901A      6.573651   902A      6.600060   903A      6.667749  
	 904A      6.673229   905A      6.694505   906A      6.715275  
	 907A      6.728253   908A      6.781178   909A      6.874400  
	 910A      6.955707   911A      6.968083   912A      6.997464  
	 913A      7.054502   914A      7.089680   915A      7.102032  
	 916A      7.115906   917A      7.131116   918A      7.138880  
	 919A      7.157852   920A      7.213564   921A      7.233183  
	 922A      7.288880   923A      7.341654   924A      7.463009  
	 925A      7.487360   926A      7.500321   927A      7.556808  
	 928A      7.619630   929A      7.668698   930A      7.737353  
	 931A      7.772197   932A      7.783459   933A      7.973968  
	 934A      8.003019   935A      8.015562   936A      8.053677  
	 937A      8.097443   938A      8.128111   939A      8.135954  
	 940A      8.183766   941A      8.253514   942A      8.607539  
	 943A      8.655213   944A      8.660340   945A      8.678689  
	 946A      8.742140   947A      9.096024   948A      9.209705  
	 949A      9.283450   950A      9.375230   951A      9.787174  
	 952A     10.700291   953A     10.803647   954A     11.005088  
	 955A     11.034515   956A     11.326565   957A     18.165304  
	 958A     19.340222   959A     19.572939   960A     19.832984  
	 961A     20.986157   962A     54.251819   963A     55.427105  
	 964A     56.316894   965A     57.087127   966A     58.826856  

	Final Occupation by Irrep:
	          A 
	DOCC [    21 ]

  Energy converged.

  @RHF Final Energy:  -196.40465487294233

   => Energetics <=

    Nuclear Repulsion Energy =            199.3448151666866011
    One-Electron Energy =                -658.5033255002701935
    Two-Electron Energy =                 262.7538554606413754
    DFT Exchange-Correlation Energy =       0.0000000000000000
    Empirical Dispersion Energy =           0.0000000000000000
    Total Energy =                       -196.4046548729422170



Properties will be evaluated at   0.000000,   0.000000,   0.000000 Bohr
  ==> Properties <==


Properties computed using the SCF density density matrix
  Nuclear Dipole Moment: (a.u.)
     X:     3.4771      Y:     6.7715      Z:   155.7257

  Electronic Dipole Moment: (a.u.)
     X:    -3.4771      Y:    -6.7714      Z:  -155.7263

  Dipole Moment: (a.u.)
     X:     0.0001      Y:     0.0001      Z:    -0.0006     Total:     0.0006

  Dipole Moment: (Debye)
     X:     0.0002      Y:     0.0002      Z:    -0.0016     Total:     0.0016


  Saving occupied orbitals to File 180.

  Saving SAPT 2-MONOMER_B file.

*** tstop() called on node35.bme.utexas.edu at Thu Mar 27 07:30:37 2014
Module time:
	user time   =    1634.50 seconds =      27.24 minutes
	system time =      14.36 seconds =       0.24 minutes
	total time  =        241 seconds =       4.02 minutes
Total time:
	user time   =    5329.41 seconds =      88.82 minutes
	system time =      57.63 seconds =       0.96 minutes
	total time  =        804 seconds =      13.40 minutes
  No DF_BASIS_SAPT auxiliary basis selected, defaulting to aug-cc-pvtz-ri

  //>>>>>>>>>>>>>>>>>>>>>>>>>>>>>>>>>>>//
  //               SAPT2+              //
  //<<<<<<<<<<<<<<<<<<<<<<<<<<<<<<<<<<<//


*** tstart() called on node35.bme.utexas.edu
*** at Thu Mar 27 07:30:37 2014

        SAPT2+  
    Ed Hohenstein
     6 June 2009

      Orbital Information
  --------------------------
    NSO        =       966
    NMO        =       966
    NRI        =      2072
    NOCC A     =        20
    NOCC B     =        21
    FOCC A     =         5
    FOCC B     =         5
    NVIR A     =       946
    NVIR B     =       945

    Estimated memory usage: 24305.9 MB

    Elst10,r            =    -0.013077455829 H
    Exch10 (S^2)        =     0.040246234381 H
    Exch10              =     0.040828908555 H
    Ind20,r (A<-B)      =    -0.003385611924 H
    Ind20,r (B<-A)      =    -0.005717927026 H
    Ind20,r             =    -0.009103538949 H
    Exch-Ind20,r (A<-B) =     0.002719588183 H
    Exch-Ind20,r (B<-A) =     0.005230834001 H
    Exch-Ind20,r        =     0.007950422184 H
    Disp20              =    -0.025997858997 H
    Exch-Disp20         =     0.003890291695 H
    Elst12,r            =    -0.001767175644 H
    Exch11              =     0.001401742727 H
    Exch12              =     0.001768606313 H
    Ind22               =    -0.001052892912 H
    Disp21              =     0.002006935339 H
    Disp22 (SDQ)        =     0.000835071681 H

    (i =   1 of  16)      27378 seconds
    (i =   2 of  16)      55403 seconds
    (i =   3 of  16)      79542 seconds
    (i =   4 of  16)     102370 seconds
    (i =   5 of  16)     125115 seconds
    (i =   6 of  16)     148129 seconds
    (i =   7 of  16)     171344 seconds
    (i =   8 of  16)     194130 seconds
    (i =   9 of  16)     225019 seconds
    (i =  10 of  16)     258517 seconds
    (i =  11 of  16)     290342 seconds
    (i =  12 of  16)     322408 seconds
    (i =  13 of  16)     351623 seconds
    (i =  14 of  16)     381081 seconds
    (i =  15 of  16)     439684 seconds
    (i =  16 of  16)     468721 seconds

    Disp220 (T)         =    -0.001934072634 H

    (i =   1 of  15)      32233 seconds
    (i =   2 of  15)      64289 seconds
    (i =   3 of  15)      96135 seconds
    (i =   4 of  15)     121359 seconds
    (i =   5 of  15)     139534 seconds
    (i =   6 of  15)     157884 seconds
    (i =   7 of  15)     176467 seconds
    (i =   8 of  15)     194941 seconds
    (i =   9 of  15)     213501 seconds
    (i =  10 of  15)     232542 seconds
    (i =  11 of  15)     252470 seconds
    (i =  12 of  15)     272455 seconds
    (i =  13 of  15)     292484 seconds
    (i =  14 of  15)     312431 seconds
    (i =  15 of  15)     332504 seconds

    Disp202 (T)         =    -0.001897981746 H

    Disp22 (T)          =    -0.003832054380 H

    SAPT Results  
  -----------------------------------------------------------------------
    Electrostatics         -14.84463147 mH      -9.31514727 kcal mol^-1
      Elst10,r             -13.07745583 mH      -8.20622777 kcal mol^-1
      Elst12,r              -1.76717564 mH      -1.10891950 kcal mol^-1

    Exchange                43.99925760 mH      27.60995213 kcal mol^-1
      Exch10                40.82890855 mH      25.62052799 kcal mol^-1
      Exch10(S^2)           40.24623438 mH      25.25489441 kcal mol^-1
      Exch11(S^2)            1.40174273 mH       0.87960688 kcal mol^-1
      Exch12(S^2)            1.76860631 mH       1.10981726 kcal mol^-1

    Induction               -4.11154567 mH      -2.58003396 kcal mol^-1
      Ind20,r               -9.10353895 mH      -5.71255717 kcal mol^-1
      Ind22                 -1.05289291 mH      -0.66070030 kcal mol^-1
      Exch-Ind20,r           7.95042218 mH       4.98896545 kcal mol^-1
      Exch-Ind22             0.91952626 mH       0.57701147 kcal mol^-1
      delta HF,r (2)        -2.82506225 mH      -1.77275340 kcal mol^-1

    Dispersion             -23.09761466 mH     -14.49397263 kcal mol^-1
      Disp20               -25.99785900 mH     -16.31390350 kcal mol^-1
      Disp21                 2.00693534 mH       1.25937099 kcal mol^-1
      Disp22 (SDQ)           0.83507168 mH       0.52401541 kcal mol^-1
      Disp22 (T)            -3.83205438 mH      -2.40465053 kcal mol^-1
      Exch-Disp20            3.89029170 mH       2.44119500 kcal mol^-1

    Total HF                23.77327371 mH      14.91795510 kcal mol^-1
    Total SAPT0              1.66570641 mH       1.04524659 kcal mol^-1
    Total SAPT2              2.93551316 mH       1.84206239 kcal mol^-1
    Total SAPT2+             1.94546580 mH       1.22079827 kcal mol^-1

*** tstop() called on node35.bme.utexas.edu at Mon Apr  7 05:35:42 2014
Module time:
	user time   = 4270884.75 seconds =   71181.41 minutes
	system time = 1127038.96 seconds =   18783.98 minutes
	total time  =     943505 seconds =   15725.08 minutes
Total time:
	user time   = 4276214.17 seconds =   71270.24 minutes
	system time = 1127096.59 seconds =   18784.94 minutes
	total time  =     944309 seconds =   15738.48 minutes

*** PSI4 exiting successfully. Buy a developer a beer!
