    -----------------------------------------------------------------------
          PSI4: An Open-Source Ab Initio Electronic Structure Package
                              PSI 4.0.0-beta4 Driver

    J. M. Turney, A. C. Simmonett, R. M. Parrish, E. G. Hohenstein,
    F. A. Evangelista, J. T. Fermann, B. J. Mintz, L. A. Burns, J. J. Wilke,
    M. L. Abrams, N. J. Russ, M. L. Leininger, C. L. Janssen, E. T. Seidl,
    W. D. Allen, H. F. Schaefer, R. A. King, E. F. Valeev, C. D. Sherrill,
    and T. D. Crawford, WIREs Comput. Mol. Sci., (2011) (doi: 10.1002/wcms.93)

                         Additional Contributions by
    A. E. DePrince, M. Saitow, U. Bozkaya, A. Yu. Sokolov
    -----------------------------------------------------------------------

    Process ID:  70611
    PSI4DATADIR: /home/xzhu216/psi4/psi4-install/share/psi

    Using LocalCommunicator (Number of processes = 1)

    Memory level set to 256.000 MB

  ==> Input File <==

--------------------------------------------------------------------------
#psi4
#
memory 30 gb

molecule Cyclopentane_Cyclopentane {
0 1
    C     0.956880185    -0.891845634     1.141950005
    H     1.504565968    -1.278357625     0.283420189
    H     1.421384473    -1.314777934     2.031025457
    C     0.990949429     0.658508299     1.145503845
    H     1.510594456     1.023096462     0.259947883
    H     1.516258229     1.059818131     2.010537025
    C    -0.479451941     1.102318793     1.103879102
    H    -0.616268611     2.064877218     0.613567367
    H    -0.874742231     1.189071444     2.118069595
    C    -1.182106501    -0.052796555     0.393345754
    H    -0.948882159    -0.026830303    -0.673804592
    H    -2.265664523    -0.033564738     0.501274026
    C    -0.530659579    -1.274889539     1.039309594
    H    -0.690390612    -2.197020928     0.482992214
    H    -0.950849387    -1.415411973     2.036747824
--
0 1
    C    -1.144627869    -0.409332380     4.478730578
    H    -1.477762367    -0.172633765     3.466146215
    H    -1.949416269    -0.952430843     4.971717081
    C     0.168978582    -1.204877293     4.430969380
    H     0.218923523    -1.862619983     3.564835558
    H     0.249266202    -1.836234924     5.315354672
    C     1.298293804    -0.142171467     4.431565474
    H     1.919558759    -0.202850316     3.539691855
    H     1.955703296    -0.292054509     5.286970644
    C     0.588120435     1.219497282     4.539432307
    H     0.408257259     1.627989067     3.543433183
    H     1.168504392     1.953900783     5.095405575
    C    -0.753932026     0.885024842     5.189244167
    H    -1.493600591     1.677536611     5.084362866
    H    -0.613892097     0.693384793     6.255793126
units angstrom
no_reorient  #important for SAPT in psi4, default
symmetry c1  #important for SAPT in psi4, default
}

set {
basis aug-cc-pVTZ
scf_type DF
freeze_core True
}
energy('sapt2+')
--------------------------------------------------------------------------

  Memory set to  30.000 GiB by Python script.

  //>>>>>>>>>>>>>>>>>>>>>>>>>>>>>>>>>>>//
  //              Dimer HF             //
  //<<<<<<<<<<<<<<<<<<<<<<<<<<<<<<<<<<<//


  No DF_BASIS_SCF auxiliary basis selected, defaulting to aug-cc-pvtz-jkfit


*** tstart() called on node35.bme.utexas.edu
*** at Mon Mar 17 02:00:28 2014


         ---------------------------------------------------------
                                   SCF
            by Justin Turney, Rob Parrish, and Andy Simmonett
                              RHF Reference
                        4 Threads,  30000 MiB Core
         ---------------------------------------------------------

  ==> Geometry <==

    Molecular point group: c1
    Full point group: C1

    Geometry (in Angstrom), charge = 0, multiplicity = 1:

       Center              X                  Y                   Z       
    ------------   -----------------  -----------------  -----------------
           C          0.964437338586    -0.880257256580    -1.647440335988
           H          1.512123121586    -1.266769247580    -2.505970151988
           H          1.428941626586    -1.303189556580    -0.758364883988
           C          0.998506582586     0.670096676420    -1.643886495988
           H          1.518151609586     1.034684839420    -2.529442457988
           H          1.523815382586     1.071406508420    -0.778853315988
           C         -0.471894787414     1.113907170420    -1.685511238988
           H         -0.608711457414     2.076465595420    -2.175822973988
           H         -0.867185077414     1.200659821420    -0.671320745988
           C         -1.174549347414    -0.041208177580    -2.396044586988
           H         -0.941325005414    -0.015241925580    -3.463194932988
           H         -2.258107369414    -0.021976360580    -2.288116314988
           C         -0.523102425414    -1.263301161580    -1.750080746988
           H         -0.682833458414    -2.185432550580    -2.306398126988
           H         -0.943292233414    -1.403823595580    -0.752642516988
           C         -1.137070715414    -0.397744002580     1.689340237012
           H         -1.470205213414    -0.161045387580     0.676755874012
           H         -1.941859115414    -0.940842465580     2.182326740012
           C          0.176535735586    -1.193288915580     1.641579039012
           H          0.226480676586    -1.851031605580     0.775445217012
           H          0.256823355586    -1.824646546580     2.525964331012
           C          1.305850957586    -0.130583089580     1.642175133012
           H          1.927115912586    -0.191261938580     0.750301514012
           H          1.963260449586    -0.280466131580     2.497580303012
           C          0.595677588586     1.231085659420     1.750041966012
           H          0.415814412586     1.639577444420     0.754042842012
           H          1.176061545586     1.965489160420     2.306015234012
           C         -0.746374872414     0.896613219420     2.399853826012
           H         -1.486043437414     1.689124988420     2.294972525012
           H         -0.606334943414     0.704973170420     3.466402785012

  Running in c1 symmetry.

  Nuclear repulsion =  586.901605786934624

  Charge       = 0
  Multiplicity = 1
  Electrons    = 80
  Nalpha       = 40
  Nbeta        = 40

  ==> Algorithm <==

  SCF Algorithm Type is DF.
  DIIS enabled.
  MOM disabled.
  Fractional occupation disabled.
  Guess Type is CORE.
  Energy threshold   = 1.00e-08
  Density threshold  = 1.00e-08
  Integral threshold = 0.00e+00

  ==> Primary Basis <==

  Basis Set: AUG-CC-PVTZ
    Number of shells: 320
    Number of basis function: 920
    Number of Cartesian functions: 1050
    Spherical Harmonics?: true
    Max angular momentum: 3

  ==> Pre-Iterations <==

   -------------------------------------------------------
    Irrep   Nso     Nmo     Nalpha   Nbeta   Ndocc  Nsocc
   -------------------------------------------------------
     A        920     920       0       0       0       0
   -------------------------------------------------------
    Total     920     920      40      40      40       0
   -------------------------------------------------------

 OEINTS: Wrapper to libmints.
   by Justin Turney

   Calculation information:
      Number of atoms:                  30
      Number of AO shells:             320
      Number of SO shells:             320
      Number of primitives:            520
      Number of atomic orbitals:      1050
      Number of basis functions:       920

      Number of irreps:                  1
      Number of functions per irrep: [ 920 ]

      Overlap, kinetic, potential, dipole, and quadrupole integrals
        stored in file 35.

  ==> Integral Setup <==

  ==> DFJK: Density-Fitted J/K Matrices <==

    J tasked:                  Yes
    K tasked:                  Yes
    wK tasked:                  No
    OpenMP threads:              4
    Integrals threads:           4
    Memory (MB):             21457
    Algorithm:                Core
    Integral Cache:           SAVE
    Schwarz Cutoff:          0E+00
    Fitting Condition:       1E-12

   => Auxiliary Basis Set <=

  Basis Set: aug-cc-pvtz-jkfit
    Number of shells: 580
    Number of basis function: 1960
    Number of Cartesian functions: 2410
    Spherical Harmonics?: true
    Max angular momentum: 4

  Minimum eigenvalue in the overlap matrix is 5.5174709169E-07.
  Using Symmetric Orthogonalization.
  SCF Guess: Core (One-Electron) Hamiltonian.

  Guess energy:  -326.11371865273361

  ==> Iterations <==

                        Total Energy        Delta E     RMS |[F,P]|

   @RHF iter   1:  -276.10172054540760   -2.76102e+02   1.65187e-02 
   @RHF iter   2:  -208.19834076073516    6.79034e+01   8.78056e-03 DIIS
   @RHF iter   3:  -327.97988415670875   -1.19782e+02   1.03391e-02 DIIS
   @RHF iter   4:  -380.06482995410374   -5.20849e+01   4.64979e-03 DIIS
   @RHF iter   5:  -388.80022662077465   -8.73540e+00   1.66312e-03 DIIS
   @RHF iter   6:  -390.30885641401028   -1.50863e+00   4.18144e-04 DIIS
   @RHF iter   7:  -390.42650463805842   -1.17648e-01   1.18169e-04 DIIS
   @RHF iter   8:  -390.43533320878828   -8.82857e-03   4.50131e-05 DIIS
   @RHF iter   9:  -390.43659636440668   -1.26316e-03   1.21728e-05 DIIS
   @RHF iter  10:  -390.43669708995208   -1.00726e-04   2.32149e-06 DIIS
   @RHF iter  11:  -390.43670099722954   -3.90728e-06   9.13283e-07 DIIS
   @RHF iter  12:  -390.43670147131513   -4.74086e-07   2.35693e-07 DIIS
   @RHF iter  13:  -390.43670151712172   -4.58066e-08   4.48097e-08 DIIS
   @RHF iter  14:  -390.43670151923925   -2.11753e-09   1.19575e-08 DIIS
   @RHF iter  15:  -390.43670151933281   -9.35643e-11   3.93156e-09 DIIS

  ==> Post-Iterations <==

	Orbital Energies (a.u.)
	-----------------------

	Doubly Occupied:                                                      

	   1A    -11.210084     2A    -11.210084     3A    -11.209343  
	   4A    -11.209341     5A    -11.208829     6A    -11.208826  
	   7A    -11.208294     8A    -11.208289     9A    -11.207420  
	  10A    -11.207419    11A     -1.122018    12A     -1.112574  
	  13A     -0.964253    14A     -0.962926    15A     -0.951659  
	  16A     -0.951197    17A     -0.787054    18A     -0.774664  
	  19A     -0.768094    20A     -0.765408    21A     -0.676260  
	  22A     -0.647991    23A     -0.644500    24A     -0.626082  
	  25A     -0.594401    26A     -0.586440    27A     -0.552902  
	  28A     -0.547229    29A     -0.481657    30A     -0.479106  
	  31A     -0.478895    32A     -0.468927    33A     -0.468467  
	  34A     -0.466549    35A     -0.464620    36A     -0.459261  
	  37A     -0.457414    38A     -0.451164    39A     -0.447774  
	  40A     -0.437732  

	Virtual:                                                              

	  41A      0.027333    42A      0.032725    43A      0.033675  
	  44A      0.034104    45A      0.044857    46A      0.045603  
	  47A      0.046489    48A      0.048354    49A      0.048649  
	  50A      0.063401    51A      0.066532    52A      0.067497  
	  53A      0.071657    54A      0.073333    55A      0.084516  
	  56A      0.085214    57A      0.091850    58A      0.094208  
	  59A      0.097530    60A      0.103818    61A      0.116451  
	  62A      0.117517    63A      0.120988    64A      0.122748  
	  65A      0.125245    66A      0.125346    67A      0.126687  
	  68A      0.129080    69A      0.131962    70A      0.140175  
	  71A      0.141083    72A      0.145224    73A      0.146268  
	  74A      0.155148    75A      0.157079    76A      0.160314  
	  77A      0.167292    78A      0.169762    79A      0.170467  
	  80A      0.172130    81A      0.175594    82A      0.175998  
	  83A      0.180391    84A      0.182803    85A      0.185010  
	  86A      0.186230    87A      0.187514    88A      0.194122  
	  89A      0.195089    90A      0.204227    91A      0.205299  
	  92A      0.216454    93A      0.225311    94A      0.233906  
	  95A      0.248882    96A      0.251352    97A      0.254149  
	  98A      0.258018    99A      0.262926   100A      0.265001  
	 101A      0.274658   102A      0.289267   103A      0.292468  
	 104A      0.300108   105A      0.302822   106A      0.302879  
	 107A      0.303580   108A      0.308085   109A      0.315150  
	 110A      0.319438   111A      0.325753   112A      0.327347  
	 113A      0.332043   114A      0.333309   115A      0.333620  
	 116A      0.335695   117A      0.339151   118A      0.341688  
	 119A      0.344886   120A      0.350564   121A      0.350803  
	 122A      0.357839   123A      0.359802   124A      0.363357  
	 125A      0.366931   126A      0.369570   127A      0.373064  
	 128A      0.373717   129A      0.381312   130A      0.382409  
	 131A      0.384239   132A      0.385660   133A      0.390250  
	 134A      0.392184   135A      0.398855   136A      0.402472  
	 137A      0.402896   138A      0.404911   139A      0.413963  
	 140A      0.422826   141A      0.431119   142A      0.433783  
	 143A      0.439996   144A      0.440171   145A      0.442352  
	 146A      0.445954   147A      0.450527   148A      0.455996  
	 149A      0.463817   150A      0.466369   151A      0.471122  
	 152A      0.473867   153A      0.483452   154A      0.484716  
	 155A      0.487175   156A      0.491208   157A      0.492645  
	 158A      0.494690   159A      0.497022   160A      0.500376  
	 161A      0.503222   162A      0.508071   163A      0.509286  
	 164A      0.512381   165A      0.516168   166A      0.519877  
	 167A      0.524444   168A      0.526497   169A      0.533818  
	 170A      0.535866   171A      0.538766   172A      0.541393  
	 173A      0.541838   174A      0.550643   175A      0.555259  
	 176A      0.555421   177A      0.560719   178A      0.567119  
	 179A      0.571602   180A      0.573364   181A      0.574142  
	 182A      0.579186   183A      0.590311   184A      0.591159  
	 185A      0.594972   186A      0.598907   187A      0.603447  
	 188A      0.607394   189A      0.608275   190A      0.613967  
	 191A      0.619779   192A      0.620978   193A      0.624915  
	 194A      0.633535   195A      0.636970   196A      0.642668  
	 197A      0.646557   198A      0.647501   199A      0.648989  
	 200A      0.652357   201A      0.654489   202A      0.657079  
	 203A      0.666345   204A      0.667834   205A      0.674835  
	 206A      0.675171   207A      0.682577   208A      0.688304  
	 209A      0.689587   210A      0.694826   211A      0.700068  
	 212A      0.701050   213A      0.704921   214A      0.711936  
	 215A      0.718248   216A      0.720249   217A      0.721850  
	 218A      0.726052   219A      0.730828   220A      0.733914  
	 221A      0.736476   222A      0.740154   223A      0.746419  
	 224A      0.757981   225A      0.762362   226A      0.766212  
	 227A      0.772236   228A      0.780822   229A      0.785123  
	 230A      0.785313   231A      0.791605   232A      0.796308  
	 233A      0.800840   234A      0.807728   235A      0.815232  
	 236A      0.818682   237A      0.826689   238A      0.830938  
	 239A      0.837710   240A      0.848311   241A      0.849017  
	 242A      0.868704   243A      0.873264   244A      0.887822  
	 245A      0.891221   246A      0.891802   247A      0.893424  
	 248A      0.900253   249A      0.908393   250A      0.912117  
	 251A      0.917222   252A      0.918648   253A      0.925851  
	 254A      0.926727   255A      0.931629   256A      0.934697  
	 257A      0.940765   258A      0.942786   259A      0.945608  
	 260A      0.952520   261A      0.960164   262A      0.961128  
	 263A      0.965683   264A      0.972297   265A      0.973521  
	 266A      0.977237   267A      0.984511   268A      0.987900  
	 269A      0.993171   270A      0.995636   271A      1.002383  
	 272A      1.007885   273A      1.009233   274A      1.010546  
	 275A      1.019514   276A      1.026294   277A      1.027054  
	 278A      1.032193   279A      1.036526   280A      1.044457  
	 281A      1.051775   282A      1.052987   283A      1.055252  
	 284A      1.057069   285A      1.063824   286A      1.074828  
	 287A      1.078188   288A      1.079437   289A      1.084165  
	 290A      1.088619   291A      1.090637   292A      1.091012  
	 293A      1.093927   294A      1.104512   295A      1.108233  
	 296A      1.111511   297A      1.117687   298A      1.120254  
	 299A      1.125940   300A      1.127789   301A      1.130846  
	 302A      1.140138   303A      1.143284   304A      1.146519  
	 305A      1.155767   306A      1.162673   307A      1.173939  
	 308A      1.174058   309A      1.182964   310A      1.186849  
	 311A      1.190499   312A      1.191459   313A      1.204477  
	 314A      1.210413   315A      1.215035   316A      1.221320  
	 317A      1.221415   318A      1.224588   319A      1.233607  
	 320A      1.238140   321A      1.240241   322A      1.246165  
	 323A      1.247446   324A      1.253105   325A      1.256185  
	 326A      1.265866   327A      1.276857   328A      1.280434  
	 329A      1.285118   330A      1.293051   331A      1.299879  
	 332A      1.301418   333A      1.304794   334A      1.312396  
	 335A      1.314997   336A      1.322831   337A      1.330455  
	 338A      1.335781   339A      1.340630   340A      1.343753  
	 341A      1.344002   342A      1.348929   343A      1.356448  
	 344A      1.362299   345A      1.367052   346A      1.379443  
	 347A      1.385270   348A      1.388491   349A      1.394733  
	 350A      1.396953   351A      1.406537   352A      1.410103  
	 353A      1.419468   354A      1.424395   355A      1.432129  
	 356A      1.438457   357A      1.446616   358A      1.451498  
	 359A      1.461723   360A      1.469552   361A      1.471474  
	 362A      1.473938   363A      1.476216   364A      1.480679  
	 365A      1.485606   366A      1.490966   367A      1.496079  
	 368A      1.500044   369A      1.508957   370A      1.514541  
	 371A      1.529985   372A      1.535534   373A      1.538690  
	 374A      1.540072   375A      1.545448   376A      1.550103  
	 377A      1.558616   378A      1.567535   379A      1.568228  
	 380A      1.575391   381A      1.581063   382A      1.584531  
	 383A      1.591398   384A      1.596258   385A      1.599688  
	 386A      1.601860   387A      1.609674   388A      1.619168  
	 389A      1.632335   390A      1.639866   391A      1.641333  
	 392A      1.647954   393A      1.649979   394A      1.659848  
	 395A      1.666349   396A      1.667670   397A      1.669636  
	 398A      1.682231   399A      1.683730   400A      1.687063  
	 401A      1.698029   402A      1.698155   403A      1.709988  
	 404A      1.711728   405A      1.715787   406A      1.723636  
	 407A      1.724790   408A      1.727335   409A      1.732708  
	 410A      1.737783   411A      1.746050   412A      1.752143  
	 413A      1.752463   414A      1.760352   415A      1.766123  
	 416A      1.770596   417A      1.775883   418A      1.783373  
	 419A      1.786754   420A      1.792812   421A      1.799119  
	 422A      1.811962   423A      1.813247   424A      1.818483  
	 425A      1.829698   426A      1.832156   427A      1.837412  
	 428A      1.840981   429A      1.844402   430A      1.844969  
	 431A      1.853246   432A      1.859290   433A      1.864455  
	 434A      1.866846   435A      1.872227   436A      1.876296  
	 437A      1.880582   438A      1.893479   439A      1.896677  
	 440A      1.899001   441A      1.906064   442A      1.908243  
	 443A      1.917338   444A      1.927487   445A      1.929331  
	 446A      1.930095   447A      1.950707   448A      1.952015  
	 449A      1.959003   450A      1.963463   451A      1.974737  
	 452A      1.986359   453A      1.987348   454A      1.992842  
	 455A      1.994103   456A      1.998036   457A      1.998596  
	 458A      2.012307   459A      2.014510   460A      2.019464  
	 461A      2.019721   462A      2.029769   463A      2.032965  
	 464A      2.036751   465A      2.041845   466A      2.049548  
	 467A      2.059522   468A      2.062888   469A      2.065091  
	 470A      2.072435   471A      2.084302   472A      2.087278  
	 473A      2.091381   474A      2.113268   475A      2.115995  
	 476A      2.122764   477A      2.127720   478A      2.144614  
	 479A      2.154907   480A      2.157664   481A      2.158337  
	 482A      2.167163   483A      2.176662   484A      2.182978  
	 485A      2.183998   486A      2.202620   487A      2.208122  
	 488A      2.214683   489A      2.215707   490A      2.220763  
	 491A      2.226747   492A      2.233805   493A      2.241271  
	 494A      2.244933   495A      2.248762   496A      2.265145  
	 497A      2.268659   498A      2.279381   499A      2.281670  
	 500A      2.290781   501A      2.300939   502A      2.303534  
	 503A      2.307490   504A      2.311338   505A      2.319403  
	 506A      2.333797   507A      2.338088   508A      2.346668  
	 509A      2.349086   510A      2.350033   511A      2.363717  
	 512A      2.369669   513A      2.372770   514A      2.389262  
	 515A      2.397016   516A      2.404482   517A      2.417762  
	 518A      2.422049   519A      2.434673   520A      2.454558  
	 521A      2.461308   522A      2.463502   523A      2.478026  
	 524A      2.478650   525A      2.492407   526A      2.493221  
	 527A      2.511886   528A      2.512138   529A      2.514454  
	 530A      2.536362   531A      2.538708   532A      2.539286  
	 533A      2.553754   534A      2.562151   535A      2.573233  
	 536A      2.574904   537A      2.579498   538A      2.589448  
	 539A      2.589564   540A      2.612953   541A      2.615808  
	 542A      2.621506   543A      2.636278   544A      2.641535  
	 545A      2.651883   546A      2.658733   547A      2.663352  
	 548A      2.675473   549A      2.679108   550A      2.686021  
	 551A      2.696791   552A      2.711336   553A      2.723832  
	 554A      2.733768   555A      2.740884   556A      2.748809  
	 557A      2.750585   558A      2.756478   559A      2.766494  
	 560A      2.782910   561A      2.793266   562A      2.794751  
	 563A      2.828712   564A      2.836301   565A      2.853307  
	 566A      2.860373   567A      2.872096   568A      2.879657  
	 569A      2.933037   570A      2.940427   571A      3.039136  
	 572A      3.051830   573A      3.111780   574A      3.127136  
	 575A      3.161984   576A      3.165801   577A      3.224690  
	 578A      3.261764   579A      3.286203   580A      3.312035  
	 581A      3.367102   582A      3.376738   583A      3.412489  
	 584A      3.443815   585A      3.474378   586A      3.478433  
	 587A      3.482708   588A      3.497054   589A      3.503379  
	 590A      3.509486   591A      3.543082   592A      3.547422  
	 593A      3.559557   594A      3.577360   595A      3.588705  
	 596A      3.597982   597A      3.601979   598A      3.628016  
	 599A      3.628174   600A      3.663143   601A      3.679854  
	 602A      3.681305   603A      3.683732   604A      3.708874  
	 605A      3.720230   606A      3.721577   607A      3.731444  
	 608A      3.738505   609A      3.746045   610A      3.757706  
	 611A      3.766050   612A      3.771013   613A      3.778909  
	 614A      3.784238   615A      3.799822   616A      3.807924  
	 617A      3.812580   618A      3.820177   619A      3.824565  
	 620A      3.832761   621A      3.842619   622A      3.848542  
	 623A      3.858695   624A      3.860583   625A      3.884039  
	 626A      3.887969   627A      3.894047   628A      3.896784  
	 629A      3.900506   630A      3.903741   631A      3.908713  
	 632A      3.920729   633A      3.921475   634A      3.934629  
	 635A      3.935491   636A      3.940768   637A      3.947732  
	 638A      3.956744   639A      3.960973   640A      3.964433  
	 641A      3.972879   642A      3.977357   643A      3.992823  
	 644A      3.996052   645A      4.009046   646A      4.012697  
	 647A      4.024004   648A      4.026279   649A      4.038818  
	 650A      4.042129   651A      4.044721   652A      4.061185  
	 653A      4.063966   654A      4.072530   655A      4.083278  
	 656A      4.084572   657A      4.094256   658A      4.097695  
	 659A      4.102501   660A      4.104146   661A      4.115101  
	 662A      4.118117   663A      4.124141   664A      4.129657  
	 665A      4.141375   666A      4.146929   667A      4.153063  
	 668A      4.157559   669A      4.164446   670A      4.170245  
	 671A      4.175005   672A      4.178042   673A      4.189608  
	 674A      4.192212   675A      4.197038   676A      4.208672  
	 677A      4.210472   678A      4.244328   679A      4.246067  
	 680A      4.258949   681A      4.266925   682A      4.272863  
	 683A      4.281398   684A      4.290677   685A      4.292442  
	 686A      4.302275   687A      4.303955   688A      4.310202  
	 689A      4.321413   690A      4.334329   691A      4.352321  
	 692A      4.354539   693A      4.373391   694A      4.377494  
	 695A      4.384832   696A      4.391951   697A      4.402842  
	 698A      4.411788   699A      4.414886   700A      4.419867  
	 701A      4.436637   702A      4.441715   703A      4.449950  
	 704A      4.451944   705A      4.463921   706A      4.466023  
	 707A      4.473628   708A      4.483367   709A      4.492322  
	 710A      4.507865   711A      4.514342   712A      4.520309  
	 713A      4.526072   714A      4.537812   715A      4.561932  
	 716A      4.564330   717A      4.574412   718A      4.581210  
	 719A      4.582629   720A      4.592407   721A      4.599214  
	 722A      4.608982   723A      4.623687   724A      4.628895  
	 725A      4.645433   726A      4.647914   727A      4.650735  
	 728A      4.652934   729A      4.671102   730A      4.692217  
	 731A      4.702546   732A      4.705316   733A      4.719580  
	 734A      4.731709   735A      4.738924   736A      4.742270  
	 737A      4.753661   738A      4.761120   739A      4.766848  
	 740A      4.782774   741A      4.787396   742A      4.792204  
	 743A      4.807443   744A      4.817701   745A      4.830703  
	 746A      4.835063   747A      4.843099   748A      4.853420  
	 749A      4.864115   750A      4.865576   751A      4.869051  
	 752A      4.899942   753A      4.904921   754A      4.913705  
	 755A      4.929449   756A      4.938057   757A      4.944291  
	 758A      4.960245   759A      4.972487   760A      4.976204  
	 761A      4.980026   762A      4.999440   763A      5.004668  
	 764A      5.009298   765A      5.015746   766A      5.023074  
	 767A      5.054324   768A      5.057026   769A      5.063053  
	 770A      5.076033   771A      5.102042   772A      5.102909  
	 773A      5.104113   774A      5.115103   775A      5.117561  
	 776A      5.120843   777A      5.137541   778A      5.143403  
	 779A      5.162325   780A      5.182651   781A      5.189238  
	 782A      5.191016   783A      5.198869   784A      5.211423  
	 785A      5.217647   786A      5.220118   787A      5.223880  
	 788A      5.233317   789A      5.255121   790A      5.265822  
	 791A      5.268308   792A      5.273454   793A      5.274156  
	 794A      5.275664   795A      5.290713   796A      5.298558  
	 797A      5.315573   798A      5.315787   799A      5.342479  
	 800A      5.343972   801A      5.357428   802A      5.359118  
	 803A      5.378103   804A      5.387432   805A      5.392677  
	 806A      5.410812   807A      5.419365   808A      5.420317  
	 809A      5.433904   810A      5.440876   811A      5.443345  
	 812A      5.468310   813A      5.480232   814A      5.489447  
	 815A      5.506086   816A      5.511751   817A      5.524821  
	 818A      5.527756   819A      5.534556   820A      5.536258  
	 821A      5.547325   822A      5.558679   823A      5.559000  
	 824A      5.582268   825A      5.585552   826A      5.596912  
	 827A      5.603873   828A      5.609018   829A      5.635915  
	 830A      5.636326   831A      5.641709   832A      5.648920  
	 833A      5.660727   834A      5.681786   835A      5.691709  
	 836A      5.699248   837A      5.717092   838A      5.735122  
	 839A      5.737640   840A      5.739074   841A      5.761574  
	 842A      5.771593   843A      5.799604   844A      5.821011  
	 845A      5.821419   846A      5.848551   847A      5.850716  
	 848A      5.876728   849A      5.877041   850A      5.885031  
	 851A      5.896346   852A      5.914127   853A      5.916900  
	 854A      5.922149   855A      5.927264   856A      5.938220  
	 857A      5.951019   858A      5.958821   859A      5.970809  
	 860A      5.981899   861A      5.984996   862A      6.002850  
	 863A      6.009912   864A      6.012319   865A      6.049382  
	 866A      6.079684   867A      6.109698   868A      6.131440  
	 869A      6.133671   870A      6.149624   871A      6.155724  
	 872A      6.162248   873A      6.191467   874A      6.202152  
	 875A      6.221084   876A      6.232893   877A      6.309505  
	 878A      6.317099   879A      6.348366   880A      6.365493  
	 881A      6.377368   882A      6.395000   883A      6.447893  
	 884A      6.453293   885A      6.476563   886A      6.507809  
	 887A      6.533633   888A      6.546499   889A      6.598646  
	 890A      6.600828   891A      6.611438   892A      6.626116  
	 893A      6.712748   894A      6.722167   895A      6.817522  
	 896A      6.831998   897A      6.859527   898A      6.885691  
	 899A      6.898414   900A      6.908442   901A      7.023437  
	 902A      7.037496   903A      7.105267   904A      7.107524  
	 905A      7.129915   906A      7.174747   907A      7.244733  
	 908A      7.266880   909A      7.286916   910A      7.314782  
	 911A     18.496346   912A     18.516052   913A     18.725470  
	 914A     18.956944   915A     19.527987   916A     19.665830  
	 917A     19.949300   918A     20.006608   919A     20.723782  
	 920A     20.829441  

	Final Occupation by Irrep:
	          A 
	DOCC [    40 ]

  Energy converged.

  @RHF Final Energy:  -390.43670151933281

   => Energetics <=

    Nuclear Repulsion Energy =            586.9016057869346241
    One-Electron Energy =               -1691.3062997048441503
    Two-Electron Energy =                 713.9679923985770529
    DFT Exchange-Correlation Energy =       0.0000000000000000
    Empirical Dispersion Energy =           0.0000000000000000
    Total Energy =                       -390.4367015193324733



Properties will be evaluated at   0.000000,   0.000000,   0.000000 Bohr
  ==> Properties <==


Properties computed using the SCF density density matrix
  Nuclear Dipole Moment: (a.u.)
     X:     0.1338      Y:    -0.0594      Z:    -0.0003

  Electronic Dipole Moment: (a.u.)
     X:    -0.1364      Y:     0.0606      Z:     0.0004

  Dipole Moment: (a.u.)
     X:    -0.0027      Y:     0.0012      Z:     0.0001     Total:     0.0029

  Dipole Moment: (Debye)
     X:    -0.0067      Y:     0.0030      Z:     0.0001     Total:     0.0074


  Saving occupied orbitals to File 180.

  Saving SAPT 2-DIMER file.

*** tstop() called on node35.bme.utexas.edu at Mon Mar 17 02:11:44 2014
Module time:
	user time   =    1561.83 seconds =      26.03 minutes
	system time =     249.79 seconds =       4.16 minutes
	total time  =        676 seconds =      11.27 minutes
Total time:
	user time   =    1561.83 seconds =      26.03 minutes
	system time =     249.79 seconds =       4.16 minutes
	total time  =        676 seconds =      11.27 minutes

  //>>>>>>>>>>>>>>>>>>>>>>>>>>>>>>>>>>>//
  //            Monomer A HF           //
  //<<<<<<<<<<<<<<<<<<<<<<<<<<<<<<<<<<<//


  No DF_BASIS_SCF auxiliary basis selected, defaulting to aug-cc-pvtz-jkfit


*** tstart() called on node35.bme.utexas.edu
*** at Mon Mar 17 02:11:44 2014


         ---------------------------------------------------------
                                   SCF
            by Justin Turney, Rob Parrish, and Andy Simmonett
                              RHF Reference
                        4 Threads,  30000 MiB Core
         ---------------------------------------------------------

  ==> Geometry <==

    Molecular point group: c1
    Full point group: C1

    Geometry (in Angstrom), charge = 0, multiplicity = 1:

       Center              X                  Y                   Z       
    ------------   -----------------  -----------------  -----------------
           C          0.964437338586    -0.880257256580    -1.647440335988
           H          1.512123121586    -1.266769247580    -2.505970151988
           H          1.428941626586    -1.303189556580    -0.758364883988
           C          0.998506582586     0.670096676420    -1.643886495988
           H          1.518151609586     1.034684839420    -2.529442457988
           H          1.523815382586     1.071406508420    -0.778853315988
           C         -0.471894787414     1.113907170420    -1.685511238988
           H         -0.608711457414     2.076465595420    -2.175822973988
           H         -0.867185077414     1.200659821420    -0.671320745988
           C         -1.174549347414    -0.041208177580    -2.396044586988
           H         -0.941325005414    -0.015241925580    -3.463194932988
           H         -2.258107369414    -0.021976360580    -2.288116314988
           C         -0.523102425414    -1.263301161580    -1.750080746988
           H         -0.682833458414    -2.185432550580    -2.306398126988
           H         -0.943292233414    -1.403823595580    -0.752642516988
           C(Gh)     -1.137070715414    -0.397744002580     1.689340237012
           H(Gh)     -1.470205213414    -0.161045387580     0.676755874012
           H(Gh)     -1.941859115414    -0.940842465580     2.182326740012
           C(Gh)      0.176535735586    -1.193288915580     1.641579039012
           H(Gh)      0.226480676586    -1.851031605580     0.775445217012
           H(Gh)      0.256823355586    -1.824646546580     2.525964331012
           C(Gh)      1.305850957586    -0.130583089580     1.642175133012
           H(Gh)      1.927115912586    -0.191261938580     0.750301514012
           H(Gh)      1.963260449586    -0.280466131580     2.497580303012
           C(Gh)      0.595677588586     1.231085659420     1.750041966012
           H(Gh)      0.415814412586     1.639577444420     0.754042842012
           H(Gh)      1.176061545586     1.965489160420     2.306015234012
           C(Gh)     -0.746374872414     0.896613219420     2.399853826012
           H(Gh)     -1.486043437414     1.689124988420     2.294972525012
           H(Gh)     -0.606334943414     0.704973170420     3.466402785012

  Running in c1 symmetry.

  Nuclear repulsion =  188.383588217339707

  Charge       = 0
  Multiplicity = 1
  Electrons    = 40
  Nalpha       = 20
  Nbeta        = 20

  ==> Algorithm <==

  SCF Algorithm Type is DF.
  DIIS enabled.
  MOM disabled.
  Fractional occupation disabled.
  Guess Type is CORE.
  Energy threshold   = 1.00e-08
  Density threshold  = 1.00e-08
  Integral threshold = 0.00e+00

  ==> Primary Basis <==

  Basis Set: AUG-CC-PVTZ
    Number of shells: 320
    Number of basis function: 920
    Number of Cartesian functions: 1050
    Spherical Harmonics?: true
    Max angular momentum: 3

  ==> Pre-Iterations <==

   -------------------------------------------------------
    Irrep   Nso     Nmo     Nalpha   Nbeta   Ndocc  Nsocc
   -------------------------------------------------------
     A        920     920       0       0       0       0
   -------------------------------------------------------
    Total     920     920      20      20      20       0
   -------------------------------------------------------

 OEINTS: Wrapper to libmints.
   by Justin Turney

   Calculation information:
      Number of atoms:                  30
      Number of AO shells:             320
      Number of SO shells:             320
      Number of primitives:            520
      Number of atomic orbitals:      1050
      Number of basis functions:       920

      Number of irreps:                  1
      Number of functions per irrep: [ 920 ]

      Overlap, kinetic, potential, dipole, and quadrupole integrals
        stored in file 35.

  ==> Integral Setup <==

  ==> DFJK: Density-Fitted J/K Matrices <==

    J tasked:                  Yes
    K tasked:                  Yes
    wK tasked:                  No
    OpenMP threads:              4
    Integrals threads:           4
    Memory (MB):             21457
    Algorithm:                Core
    Integral Cache:           LOAD
    Schwarz Cutoff:          0E+00
    Fitting Condition:       1E-12

   => Auxiliary Basis Set <=

  Basis Set: aug-cc-pvtz-jkfit
    Number of shells: 580
    Number of basis function: 1960
    Number of Cartesian functions: 2410
    Spherical Harmonics?: true
    Max angular momentum: 4

  Minimum eigenvalue in the overlap matrix is 5.5174709161E-07.
  Using Symmetric Orthogonalization.
  SCF Guess: Core (One-Electron) Hamiltonian.

  Guess energy:  -160.74414473209424

  ==> Iterations <==

                        Total Energy        Delta E     RMS |[F,P]|

   @RHF iter   1:  -140.65377015819820   -1.40654e+02   1.16258e-02 
   @RHF iter   2:  -116.17377887243299    2.44800e+01   5.93243e-03 DIIS
   @RHF iter   3:  -184.32038382006886   -6.81466e+01   4.76436e-03 DIIS
   @RHF iter   4:  -193.16592185327420   -8.84554e+00   1.94219e-03 DIIS
   @RHF iter   5:  -195.15858204000978   -1.99266e+00   3.27243e-04 DIIS
   @RHF iter   6:  -195.22701634831253   -6.84343e-02   6.77788e-05 DIIS
   @RHF iter   7:  -195.22995544292672   -2.93909e-03   1.79394e-05 DIIS
   @RHF iter   8:  -195.23020453935152   -2.49096e-04   6.52302e-06 DIIS
   @RHF iter   9:  -195.23023218100190   -2.76417e-05   1.88920e-06 DIIS
   @RHF iter  10:  -195.23023472480770   -2.54381e-06   2.11010e-07 DIIS
   @RHF iter  11:  -195.23023474974013   -2.49324e-08   9.35383e-08 DIIS
   @RHF iter  12:  -195.23023475349322   -3.75309e-09   3.07881e-08 DIIS
   @RHF iter  13:  -195.23023475398469   -4.91468e-10   2.09932e-09 DIIS

  ==> Post-Iterations <==

	Orbital Energies (a.u.)
	-----------------------

	Doubly Occupied:                                                      

	   1A    -11.210452     2A    -11.210065     3A    -11.210043  
	   4A    -11.209433     5A    -11.209297     6A     -1.116309  
	   7A     -0.956676     8A     -0.955834     9A     -0.776923  
	  10A     -0.767192    11A     -0.649697    12A     -0.644661  
	  13A     -0.569788    14A     -0.567931    15A     -0.475277  
	  16A     -0.474374    17A     -0.463470    18A     -0.460330  
	  19A     -0.459109    20A     -0.448715  

	Virtual:                                                              

	  21A      0.020053    22A      0.030937    23A      0.031067  
	  24A      0.031786    25A      0.043738    26A      0.044429  
	  27A      0.045977    28A      0.047906    29A      0.048316  
	  30A      0.063123    31A      0.066304    32A      0.066811  
	  33A      0.069522    34A      0.071452    35A      0.072878  
	  36A      0.084250    37A      0.084799    38A      0.092846  
	  39A      0.093703    40A      0.096364    41A      0.101873  
	  42A      0.103706    43A      0.109041    44A      0.120801  
	  45A      0.122109    46A      0.123027    47A      0.124119  
	  48A      0.125374    49A      0.127214    50A      0.134447  
	  51A      0.138477    52A      0.142307    53A      0.146003  
	  54A      0.149008    55A      0.154495    56A      0.157429  
	  57A      0.159226    58A      0.166451    59A      0.166703  
	  60A      0.170096    61A      0.171619    62A      0.173009  
	  63A      0.175750    64A      0.179311    65A      0.181640  
	  66A      0.183516    67A      0.186704    68A      0.187965  
	  69A      0.191372    70A      0.193414    71A      0.199411  
	  72A      0.202755    73A      0.205855    74A      0.216668  
	  75A      0.222101    76A      0.234854    77A      0.237126  
	  78A      0.245974    79A      0.250579    80A      0.251211  
	  81A      0.256850    82A      0.278443    83A      0.287980  
	  84A      0.295558    85A      0.296843    86A      0.300308  
	  87A      0.306619    88A      0.309131    89A      0.315736  
	  90A      0.320205    91A      0.323100    92A      0.326295  
	  93A      0.332916    94A      0.334766    95A      0.336694  
	  96A      0.337585    97A      0.340496    98A      0.343891  
	  99A      0.347582   100A      0.350225   101A      0.353750  
	 102A      0.355527   103A      0.357770   104A      0.362407  
	 105A      0.367073   106A      0.367485   107A      0.370151  
	 108A      0.372026   109A      0.379966   110A      0.384884  
	 111A      0.386765   112A      0.387152   113A      0.391052  
	 114A      0.395747   115A      0.397933   116A      0.401329  
	 117A      0.402327   118A      0.407125   119A      0.409674  
	 120A      0.414561   121A      0.418271   122A      0.420303  
	 123A      0.426899   124A      0.435885   125A      0.443796  
	 126A      0.446331   127A      0.450257   128A      0.453366  
	 129A      0.456519   130A      0.460341   131A      0.467137  
	 132A      0.468239   133A      0.473093   134A      0.477825  
	 135A      0.485839   136A      0.486995   137A      0.493700  
	 138A      0.495361   139A      0.497002   140A      0.501080  
	 141A      0.503714   142A      0.509347   143A      0.512471  
	 144A      0.517772   145A      0.524222   146A      0.527048  
	 147A      0.533022   148A      0.535011   149A      0.537553  
	 150A      0.540739   151A      0.548018   152A      0.553479  
	 153A      0.554603   154A      0.559539   155A      0.563102  
	 156A      0.569233   157A      0.571547   158A      0.577046  
	 159A      0.578234   160A      0.586105   161A      0.591170  
	 162A      0.592286   163A      0.602428   164A      0.603061  
	 165A      0.606880   166A      0.609317   167A      0.614416  
	 168A      0.616232   169A      0.621367   170A      0.624699  
	 171A      0.626143   172A      0.639271   173A      0.645239  
	 174A      0.647577   175A      0.649677   176A      0.653448  
	 177A      0.657293   178A      0.660399   179A      0.664150  
	 180A      0.670786   181A      0.672091   182A      0.676675  
	 183A      0.681863   184A      0.685333   185A      0.690085  
	 186A      0.692245   187A      0.695935   188A      0.698647  
	 189A      0.701075   190A      0.708692   191A      0.710885  
	 192A      0.715559   193A      0.718910   194A      0.721608  
	 195A      0.723311   196A      0.730622   197A      0.736399  
	 198A      0.738739   199A      0.746970   200A      0.749602  
	 201A      0.755168   202A      0.762653   203A      0.766984  
	 204A      0.773490   205A      0.776912   206A      0.781060  
	 207A      0.789213   208A      0.796949   209A      0.797848  
	 210A      0.803412   211A      0.804448   212A      0.811677  
	 213A      0.813486   214A      0.815057   215A      0.824375  
	 216A      0.830762   217A      0.834513   218A      0.836835  
	 219A      0.840121   220A      0.850044   221A      0.851584  
	 222A      0.861138   223A      0.864721   224A      0.868982  
	 225A      0.874010   226A      0.885029   227A      0.890094  
	 228A      0.891148   229A      0.900352   230A      0.903092  
	 231A      0.907749   232A      0.916454   233A      0.917943  
	 234A      0.922773   235A      0.932244   236A      0.935904  
	 237A      0.943451   238A      0.947620   239A      0.951563  
	 240A      0.960758   241A      0.965750   242A      0.966786  
	 243A      0.974614   244A      0.978597   245A      0.979969  
	 246A      0.986317   247A      1.003889   248A      1.007279  
	 249A      1.009219   250A      1.016540   251A      1.025027  
	 252A      1.028258   253A      1.033744   254A      1.035881  
	 255A      1.041007   256A      1.044512   257A      1.048826  
	 258A      1.053376   259A      1.060910   260A      1.075739  
	 261A      1.080216   262A      1.083358   263A      1.088438  
	 264A      1.092945   265A      1.104498   266A      1.108903  
	 267A      1.109583   268A      1.114085   269A      1.120668  
	 270A      1.127148   271A      1.133716   272A      1.137284  
	 273A      1.145621   274A      1.148592   275A      1.152952  
	 276A      1.154947   277A      1.162585   278A      1.166254  
	 279A      1.169176   280A      1.175716   281A      1.177656  
	 282A      1.182439   283A      1.187501   284A      1.195855  
	 285A      1.197072   286A      1.207276   287A      1.210426  
	 288A      1.213223   289A      1.223268   290A      1.224881  
	 291A      1.228349   292A      1.231449   293A      1.238133  
	 294A      1.240695   295A      1.246754   296A      1.254065  
	 297A      1.262635   298A      1.267152   299A      1.271302  
	 300A      1.277434   301A      1.279879   302A      1.285358  
	 303A      1.290901   304A      1.292141   305A      1.294147  
	 306A      1.299942   307A      1.310591   308A      1.312749  
	 309A      1.328029   310A      1.331125   311A      1.337286  
	 312A      1.342554   313A      1.344050   314A      1.348006  
	 315A      1.352916   316A      1.356800   317A      1.364285  
	 318A      1.365924   319A      1.373117   320A      1.374828  
	 321A      1.381751   322A      1.383456   323A      1.395526  
	 324A      1.398552   325A      1.401666   326A      1.413062  
	 327A      1.414896   328A      1.416919   329A      1.422070  
	 330A      1.423806   331A      1.431258   332A      1.438822  
	 333A      1.440523   334A      1.446779   335A      1.452482  
	 336A      1.461194   337A      1.463520   338A      1.477299  
	 339A      1.480878   340A      1.488897   341A      1.489403  
	 342A      1.491987   343A      1.501197   344A      1.507419  
	 345A      1.513402   346A      1.520074   347A      1.525814  
	 348A      1.528142   349A      1.537089   350A      1.539926  
	 351A      1.544997   352A      1.547268   353A      1.556034  
	 354A      1.558206   355A      1.565962   356A      1.570185  
	 357A      1.574793   358A      1.582855   359A      1.584663  
	 360A      1.598995   361A      1.604285   362A      1.607705  
	 363A      1.613509   364A      1.615795   365A      1.618651  
	 366A      1.627091   367A      1.635506   368A      1.638679  
	 369A      1.644338   370A      1.648398   371A      1.653612  
	 372A      1.660238   373A      1.666081   374A      1.668277  
	 375A      1.674485   376A      1.676594   377A      1.684709  
	 378A      1.690569   379A      1.691997   380A      1.708149  
	 381A      1.710598   382A      1.714893   383A      1.721134  
	 384A      1.726668   385A      1.737053   386A      1.740240  
	 387A      1.742256   388A      1.746886   389A      1.753559  
	 390A      1.756863   391A      1.761940   392A      1.765907  
	 393A      1.770323   394A      1.781270   395A      1.785673  
	 396A      1.786633   397A      1.788792   398A      1.803669  
	 399A      1.807389   400A      1.816742   401A      1.826664  
	 402A      1.829247   403A      1.835130   404A      1.845332  
	 405A      1.851598   406A      1.854967   407A      1.858782  
	 408A      1.865343   409A      1.870910   410A      1.875302  
	 411A      1.878330   412A      1.893276   413A      1.898608  
	 414A      1.904056   415A      1.905480   416A      1.911582  
	 417A      1.917345   418A      1.923608   419A      1.927788  
	 420A      1.932965   421A      1.941003   422A      1.946371  
	 423A      1.959491   424A      1.965004   425A      1.970964  
	 426A      1.977885   427A      1.984704   428A      1.989595  
	 429A      1.992279   430A      1.996123   431A      2.017935  
	 432A      2.025114   433A      2.031322   434A      2.032890  
	 435A      2.040294   436A      2.051497   437A      2.052196  
	 438A      2.059293   439A      2.068759   440A      2.070920  
	 441A      2.077965   442A      2.087176   443A      2.088074  
	 444A      2.095701   445A      2.098857   446A      2.103147  
	 447A      2.112845   448A      2.114285   449A      2.119507  
	 450A      2.124774   451A      2.132957   452A      2.151059  
	 453A      2.159607   454A      2.163346   455A      2.168656  
	 456A      2.174375   457A      2.178977   458A      2.187330  
	 459A      2.193308   460A      2.204852   461A      2.217576  
	 462A      2.222375   463A      2.229399   464A      2.234368  
	 465A      2.240719   466A      2.247787   467A      2.253976  
	 468A      2.272288   469A      2.274245   470A      2.281354  
	 471A      2.289451   472A      2.292550   473A      2.300897  
	 474A      2.304550   475A      2.312726   476A      2.317948  
	 477A      2.328650   478A      2.333000   479A      2.341769  
	 480A      2.350827   481A      2.354303   482A      2.361213  
	 483A      2.368676   484A      2.380303   485A      2.389639  
	 486A      2.392119   487A      2.398267   488A      2.405354  
	 489A      2.411603   490A      2.416777   491A      2.422685  
	 492A      2.431116   493A      2.432567   494A      2.440543  
	 495A      2.454094   496A      2.463608   497A      2.470777  
	 498A      2.480237   499A      2.484700   500A      2.491781  
	 501A      2.503850   502A      2.512913   503A      2.518669  
	 504A      2.530824   505A      2.537242   506A      2.552103  
	 507A      2.555975   508A      2.560956   509A      2.577617  
	 510A      2.589370   511A      2.592828   512A      2.606996  
	 513A      2.610387   514A      2.616381   515A      2.619858  
	 516A      2.621766   517A      2.638352   518A      2.648134  
	 519A      2.651906   520A      2.662566   521A      2.679401  
	 522A      2.686556   523A      2.695215   524A      2.708291  
	 525A      2.716287   526A      2.726693   527A      2.727787  
	 528A      2.744389   529A      2.749728   530A      2.764810  
	 531A      2.771913   532A      2.787779   533A      2.798047  
	 534A      2.806715   535A      2.817909   536A      2.827184  
	 537A      2.834826   538A      2.845880   539A      2.851868  
	 540A      2.856245   541A      2.875580   542A      2.878470  
	 543A      2.896300   544A      2.912212   545A      2.926501  
	 546A      2.934178   547A      2.946776   548A      2.959468  
	 549A      2.974964   550A      2.981115   551A      2.989568  
	 552A      2.995161   553A      3.007067   554A      3.021680  
	 555A      3.024343   556A      3.044435   557A      3.057552  
	 558A      3.094261   559A      3.114785   560A      3.128850  
	 561A      3.137776   562A      3.151395   563A      3.163088  
	 564A      3.178354   565A      3.186000   566A      3.226426  
	 567A      3.259149   568A      3.289687   569A      3.319257  
	 570A      3.396931   571A      3.412719   572A      3.428749  
	 573A      3.460605   574A      3.471248   575A      3.493794  
	 576A      3.498743   577A      3.506827   578A      3.525195  
	 579A      3.532515   580A      3.579574   581A      3.619181  
	 582A      3.627334   583A      3.635457   584A      3.657263  
	 585A      3.679382   586A      3.707122   587A      3.733835  
	 588A      3.751105   589A      3.766583   590A      3.773671  
	 591A      3.787835   592A      3.798896   593A      3.813798  
	 594A      3.853530   595A      3.869812   596A      3.877701  
	 597A      3.892953   598A      3.897271   599A      3.912869  
	 600A      3.917967   601A      3.927571   602A      3.930054  
	 603A      3.949670   604A      3.959782   605A      3.972395  
	 606A      3.984554   607A      3.999860   608A      4.013337  
	 609A      4.020822   610A      4.039221   611A      4.056495  
	 612A      4.061423   613A      4.068331   614A      4.077145  
	 615A      4.089725   616A      4.100403   617A      4.104386  
	 618A      4.115399   619A      4.127337   620A      4.139903  
	 621A      4.144249   622A      4.152375   623A      4.157397  
	 624A      4.165074   625A      4.169440   626A      4.184256  
	 627A      4.195048   628A      4.201364   629A      4.213073  
	 630A      4.225669   631A      4.232267   632A      4.253322  
	 633A      4.258247   634A      4.263432   635A      4.274271  
	 636A      4.281092   637A      4.284800   638A      4.292862  
	 639A      4.296035   640A      4.310027   641A      4.324676  
	 642A      4.328813   643A      4.339813   644A      4.352703  
	 645A      4.366289   646A      4.376116   647A      4.386347  
	 648A      4.393149   649A      4.396900   650A      4.400984  
	 651A      4.409680   652A      4.421093   653A      4.428118  
	 654A      4.439742   655A      4.447543   656A      4.457406  
	 657A      4.460939   658A      4.463194   659A      4.476054  
	 660A      4.487579   661A      4.493571   662A      4.499897  
	 663A      4.510457   664A      4.515398   665A      4.525918  
	 666A      4.531268   667A      4.539047   668A      4.557546  
	 669A      4.563146   670A      4.577376   671A      4.586428  
	 672A      4.596685   673A      4.599716   674A      4.612717  
	 675A      4.617176   676A      4.632230   677A      4.639860  
	 678A      4.648527   679A      4.670497   680A      4.674195  
	 681A      4.685854   682A      4.696968   683A      4.710360  
	 684A      4.725354   685A      4.729711   686A      4.743776  
	 687A      4.747799   688A      4.764076   689A      4.767796  
	 690A      4.787146   691A      4.791638   692A      4.798906  
	 693A      4.804881   694A      4.809895   695A      4.814860  
	 696A      4.821313   697A      4.842939   698A      4.855809  
	 699A      4.859584   700A      4.876778   701A      4.882328  
	 702A      4.887273   703A      4.901451   704A      4.914615  
	 705A      4.919735   706A      4.932915   707A      4.944156  
	 708A      4.945555   709A      4.954543   710A      4.960666  
	 711A      4.963758   712A      4.975630   713A      4.983725  
	 714A      4.992674   715A      4.996793   716A      5.005526  
	 717A      5.009887   718A      5.013302   719A      5.033593  
	 720A      5.038430   721A      5.047655   722A      5.052313  
	 723A      5.062703   724A      5.073126   725A      5.083000  
	 726A      5.095747   727A      5.107495   728A      5.110808  
	 729A      5.117768   730A      5.126518   731A      5.131150  
	 732A      5.140236   733A      5.145175   734A      5.154028  
	 735A      5.158931   736A      5.164919   737A      5.169917  
	 738A      5.179020   739A      5.199932   740A      5.205085  
	 741A      5.210435   742A      5.238726   743A      5.249706  
	 744A      5.258888   745A      5.259212   746A      5.267039  
	 747A      5.276384   748A      5.280607   749A      5.288449  
	 750A      5.303222   751A      5.309546   752A      5.323111  
	 753A      5.340179   754A      5.347838   755A      5.356847  
	 756A      5.378163   757A      5.383566   758A      5.392750  
	 759A      5.405408   760A      5.416362   761A      5.424870  
	 762A      5.433461   763A      5.446562   764A      5.457521  
	 765A      5.466984   766A      5.475203   767A      5.485334  
	 768A      5.489137   769A      5.503121   770A      5.507493  
	 771A      5.525204   772A      5.532057   773A      5.541101  
	 774A      5.549540   775A      5.553257   776A      5.559818  
	 777A      5.572056   778A      5.581422   779A      5.591586  
	 780A      5.597343   781A      5.609122   782A      5.617337  
	 783A      5.620847   784A      5.639234   785A      5.645984  
	 786A      5.646406   787A      5.655541   788A      5.665121  
	 789A      5.675294   790A      5.682858   791A      5.686040  
	 792A      5.706263   793A      5.711687   794A      5.726797  
	 795A      5.746186   796A      5.747555   797A      5.761468  
	 798A      5.766754   799A      5.779422   800A      5.791137  
	 801A      5.807979   802A      5.815409   803A      5.827129  
	 804A      5.845262   805A      5.848324   806A      5.869212  
	 807A      5.879383   808A      5.885391   809A      5.894222  
	 810A      5.896560   811A      5.912795   812A      5.923997  
	 813A      5.932894   814A      5.939115   815A      5.952204  
	 816A      5.954489   817A      5.964908   818A      5.985376  
	 819A      5.994438   820A      5.998775   821A      6.024709  
	 822A      6.030941   823A      6.037680   824A      6.053654  
	 825A      6.074604   826A      6.079689   827A      6.095248  
	 828A      6.112973   829A      6.130513   830A      6.133434  
	 831A      6.157747   832A      6.174598   833A      6.199725  
	 834A      6.218595   835A      6.222175   836A      6.232268  
	 837A      6.237847   838A      6.258376   839A      6.271104  
	 840A      6.279018   841A      6.290886   842A      6.313217  
	 843A      6.353604   844A      6.362681   845A      6.374001  
	 846A      6.389116   847A      6.399052   848A      6.420250  
	 849A      6.457318   850A      6.470308   851A      6.485123  
	 852A      6.510381   853A      6.535602   854A      6.544434  
	 855A      6.576940   856A      6.597613   857A      6.609866  
	 858A      6.676365   859A      6.702962   860A      6.704670  
	 861A      6.715915   862A      6.782736   863A      6.835268  
	 864A      6.864186   865A      6.869282   866A      6.904662  
	 867A      6.979356   868A      7.033932   869A      7.037688  
	 870A      7.078310   871A      7.091458   872A      7.153056  
	 873A      7.224255   874A      7.237555   875A      7.268601  
	 876A      7.294120   877A      7.399607   878A      7.441927  
	 879A      7.462310   880A      7.490352   881A      7.570117  
	 882A      7.591080   883A      7.642982   884A      7.719195  
	 885A      7.780663   886A      7.790002   887A      7.926310  
	 888A      7.964492   889A      8.015310   890A      8.041486  
	 891A      8.083264   892A      8.094303   893A      8.135154  
	 894A      8.161521   895A      8.241072   896A      8.590845  
	 897A      8.630849   898A      8.663640   899A      8.727182  
	 900A      8.754207   901A      9.125404   902A      9.234991  
	 903A      9.262959   904A      9.411079   905A      9.779231  
	 906A     10.712217   907A     10.783342   908A     10.952380  
	 909A     11.050094   910A     11.309636   911A     18.513072  
	 912A     18.849127   913A     19.598775   914A     20.003359  
	 915A     20.739766   916A     54.268167   917A     55.025473  
	 918A     56.495104   919A     57.294370   920A     58.611361  

	Final Occupation by Irrep:
	          A 
	DOCC [    20 ]

  Energy converged.

  @RHF Final Energy:  -195.23023475398469

   => Energetics <=

    Nuclear Repulsion Energy =            188.3835882173397067
    One-Electron Energy =                -635.5564867778421103
    Two-Electron Energy =                 251.9426638065172028
    DFT Exchange-Correlation Energy =       0.0000000000000000
    Empirical Dispersion Energy =           0.0000000000000000
    Total Energy =                       -195.2302347539852008



Properties will be evaluated at   0.000000,   0.000000,   0.000000 Bohr
  ==> Properties <==


Properties computed using the SCF density density matrix
  Nuclear Dipole Moment: (a.u.)
     X:    -2.9443      Y:    -6.0807      Z:  -137.8894

  Electronic Dipole Moment: (a.u.)
     X:     2.9381      Y:     6.0815      Z:   137.8873

  Dipole Moment: (a.u.)
     X:    -0.0062      Y:     0.0008      Z:    -0.0020     Total:     0.0065

  Dipole Moment: (Debye)
     X:    -0.0157      Y:     0.0019      Z:    -0.0051     Total:     0.0166


  Saving occupied orbitals to File 180.

  Saving SAPT 2-MONOMER_A file.

*** tstop() called on node35.bme.utexas.edu at Mon Mar 17 02:16:37 2014
Module time:
	user time   =    1017.89 seconds =      16.96 minutes
	system time =      15.59 seconds =       0.26 minutes
	total time  =        293 seconds =       4.88 minutes
Total time:
	user time   =    2579.75 seconds =      43.00 minutes
	system time =     265.38 seconds =       4.42 minutes
	total time  =        969 seconds =      16.15 minutes

  //>>>>>>>>>>>>>>>>>>>>>>>>>>>>>>>>>>>//
  //            Monomer B HF           //
  //<<<<<<<<<<<<<<<<<<<<<<<<<<<<<<<<<<<//


  No DF_BASIS_SCF auxiliary basis selected, defaulting to aug-cc-pvtz-jkfit


*** tstart() called on node35.bme.utexas.edu
*** at Mon Mar 17 02:16:37 2014


         ---------------------------------------------------------
                                   SCF
            by Justin Turney, Rob Parrish, and Andy Simmonett
                              RHF Reference
                        4 Threads,  30000 MiB Core
         ---------------------------------------------------------

  ==> Geometry <==

    Molecular point group: c1
    Full point group: C1

    Geometry (in Angstrom), charge = 0, multiplicity = 1:

       Center              X                  Y                   Z       
    ------------   -----------------  -----------------  -----------------
           C(Gh)      0.964437338586    -0.880257256580    -1.647440335988
           H(Gh)      1.512123121586    -1.266769247580    -2.505970151988
           H(Gh)      1.428941626586    -1.303189556580    -0.758364883988
           C(Gh)      0.998506582586     0.670096676420    -1.643886495988
           H(Gh)      1.518151609586     1.034684839420    -2.529442457988
           H(Gh)      1.523815382586     1.071406508420    -0.778853315988
           C(Gh)     -0.471894787414     1.113907170420    -1.685511238988
           H(Gh)     -0.608711457414     2.076465595420    -2.175822973988
           H(Gh)     -0.867185077414     1.200659821420    -0.671320745988
           C(Gh)     -1.174549347414    -0.041208177580    -2.396044586988
           H(Gh)     -0.941325005414    -0.015241925580    -3.463194932988
           H(Gh)     -2.258107369414    -0.021976360580    -2.288116314988
           C(Gh)     -0.523102425414    -1.263301161580    -1.750080746988
           H(Gh)     -0.682833458414    -2.185432550580    -2.306398126988
           H(Gh)     -0.943292233414    -1.403823595580    -0.752642516988
           C         -1.137070715414    -0.397744002580     1.689340237012
           H         -1.470205213414    -0.161045387580     0.676755874012
           H         -1.941859115414    -0.940842465580     2.182326740012
           C          0.176535735586    -1.193288915580     1.641579039012
           H          0.226480676586    -1.851031605580     0.775445217012
           H          0.256823355586    -1.824646546580     2.525964331012
           C          1.305850957586    -0.130583089580     1.642175133012
           H          1.927115912586    -0.191261938580     0.750301514012
           H          1.963260449586    -0.280466131580     2.497580303012
           C          0.595677588586     1.231085659420     1.750041966012
           H          0.415814412586     1.639577444420     0.754042842012
           H          1.176061545586     1.965489160420     2.306015234012
           C         -0.746374872414     0.896613219420     2.399853826012
           H         -1.486043437414     1.689124988420     2.294972525012
           H         -0.606334943414     0.704973170420     3.466402785012

  Running in c1 symmetry.

  Nuclear repulsion =  188.378652495442680

  Charge       = 0
  Multiplicity = 1
  Electrons    = 40
  Nalpha       = 20
  Nbeta        = 20

  ==> Algorithm <==

  SCF Algorithm Type is DF.
  DIIS enabled.
  MOM disabled.
  Fractional occupation disabled.
  Guess Type is CORE.
  Energy threshold   = 1.00e-08
  Density threshold  = 1.00e-08
  Integral threshold = 0.00e+00

  ==> Primary Basis <==

  Basis Set: AUG-CC-PVTZ
    Number of shells: 320
    Number of basis function: 920
    Number of Cartesian functions: 1050
    Spherical Harmonics?: true
    Max angular momentum: 3

  ==> Pre-Iterations <==

   -------------------------------------------------------
    Irrep   Nso     Nmo     Nalpha   Nbeta   Ndocc  Nsocc
   -------------------------------------------------------
     A        920     920       0       0       0       0
   -------------------------------------------------------
    Total     920     920      20      20      20       0
   -------------------------------------------------------

 OEINTS: Wrapper to libmints.
   by Justin Turney

   Calculation information:
      Number of atoms:                  30
      Number of AO shells:             320
      Number of SO shells:             320
      Number of primitives:            520
      Number of atomic orbitals:      1050
      Number of basis functions:       920

      Number of irreps:                  1
      Number of functions per irrep: [ 920 ]

      Overlap, kinetic, potential, dipole, and quadrupole integrals
        stored in file 35.

  ==> Integral Setup <==

  ==> DFJK: Density-Fitted J/K Matrices <==

    J tasked:                  Yes
    K tasked:                  Yes
    wK tasked:                  No
    OpenMP threads:              4
    Integrals threads:           4
    Memory (MB):             21457
    Algorithm:                Core
    Integral Cache:           LOAD
    Schwarz Cutoff:          0E+00
    Fitting Condition:       1E-12

   => Auxiliary Basis Set <=

  Basis Set: aug-cc-pvtz-jkfit
    Number of shells: 580
    Number of basis function: 1960
    Number of Cartesian functions: 2410
    Spherical Harmonics?: true
    Max angular momentum: 4

  Minimum eigenvalue in the overlap matrix is 5.5174709175E-07.
  Using Symmetric Orthogonalization.
  SCF Guess: Core (One-Electron) Hamiltonian.

  Guess energy:  -160.74341512942522

  ==> Iterations <==

                        Total Energy        Delta E     RMS |[F,P]|

   @RHF iter   1:  -140.65405823947037   -1.40654e+02   1.16259e-02 
   @RHF iter   2:  -116.17344855388967    2.44806e+01   5.93223e-03 DIIS
   @RHF iter   3:  -184.32073839643306   -6.81473e+01   4.76418e-03 DIIS
   @RHF iter   4:  -193.16587515804935   -8.84514e+00   1.94219e-03 DIIS
   @RHF iter   5:  -195.15859472071145   -1.99272e+00   3.27208e-04 DIIS
   @RHF iter   6:  -195.22702214376261   -6.84274e-02   6.77657e-05 DIIS
   @RHF iter   7:  -195.22996099789981   -2.93885e-03   1.79251e-05 DIIS
   @RHF iter   8:  -195.23020991945987   -2.48922e-04   6.51911e-06 DIIS
   @RHF iter   9:  -195.23023751839276   -2.75989e-05   1.88896e-06 DIIS
   @RHF iter  10:  -195.23024006108471   -2.54269e-06   2.11067e-07 DIIS
   @RHF iter  11:  -195.23024008603375   -2.49490e-08   9.35447e-08 DIIS
   @RHF iter  12:  -195.23024008979041   -3.75667e-09   3.07922e-08 DIIS
   @RHF iter  13:  -195.23024009028086   -4.90445e-10   2.09998e-09 DIIS

  ==> Post-Iterations <==

	Orbital Energies (a.u.)
	-----------------------

	Doubly Occupied:                                                      

	   1A    -11.210449     2A    -11.210063     3A    -11.210039  
	   4A    -11.209430     5A    -11.209295     6A     -1.116280  
	   7A     -0.956686     8A     -0.955848     9A     -0.776893  
	  10A     -0.767200    11A     -0.649701    12A     -0.644639  
	  13A     -0.569796    14A     -0.567945    15A     -0.475250  
	  16A     -0.474345    17A     -0.463483    18A     -0.460300  
	  19A     -0.459143    20A     -0.448717  

	Virtual:                                                              

	  21A      0.020052    22A      0.030938    23A      0.031069  
	  24A      0.031785    25A      0.043738    26A      0.044431  
	  27A      0.045976    28A      0.047907    29A      0.048315  
	  30A      0.063124    31A      0.066303    32A      0.066812  
	  33A      0.069515    34A      0.071452    35A      0.072879  
	  36A      0.084249    37A      0.084800    38A      0.092848  
	  39A      0.093701    40A      0.096361    41A      0.101866  
	  42A      0.103711    43A      0.109050    44A      0.120806  
	  45A      0.122108    46A      0.123024    47A      0.124120  
	  48A      0.125374    49A      0.127215    50A      0.134444  
	  51A      0.138481    52A      0.142303    53A      0.146002  
	  54A      0.149001    55A      0.154494    56A      0.157429  
	  57A      0.159223    58A      0.166450    59A      0.166707  
	  60A      0.170097    61A      0.171622    62A      0.173015  
	  63A      0.175760    64A      0.179307    65A      0.181643  
	  66A      0.183507    67A      0.186698    68A      0.187966  
	  69A      0.191368    70A      0.193407    71A      0.199418  
	  72A      0.202763    73A      0.205846    74A      0.216660  
	  75A      0.222096    76A      0.234865    77A      0.237111  
	  78A      0.245978    79A      0.250588    80A      0.251216  
	  81A      0.256854    82A      0.278446    83A      0.287963  
	  84A      0.295572    85A      0.296854    86A      0.300282  
	  87A      0.306594    88A      0.309128    89A      0.315750  
	  90A      0.320184    91A      0.323103    92A      0.326297  
	  93A      0.332912    94A      0.334779    95A      0.336690  
	  96A      0.337586    97A      0.340513    98A      0.343888  
	  99A      0.347595   100A      0.350219   101A      0.353738  
	 102A      0.355526   103A      0.357769   104A      0.362405  
	 105A      0.367067   106A      0.367471   107A      0.370145  
	 108A      0.372034   109A      0.379973   110A      0.384886  
	 111A      0.386766   112A      0.387167   113A      0.391039  
	 114A      0.395751   115A      0.397938   116A      0.401340  
	 117A      0.402330   118A      0.407115   119A      0.409680  
	 120A      0.414560   121A      0.418265   122A      0.420321  
	 123A      0.426896   124A      0.435872   125A      0.443793  
	 126A      0.446336   127A      0.450279   128A      0.453376  
	 129A      0.456537   130A      0.460316   131A      0.467141  
	 132A      0.468233   133A      0.473107   134A      0.477825  
	 135A      0.485847   136A      0.486996   137A      0.493715  
	 138A      0.495340   139A      0.497000   140A      0.501086  
	 141A      0.503700   142A      0.509341   143A      0.512487  
	 144A      0.517799   145A      0.524223   146A      0.527032  
	 147A      0.532994   148A      0.535015   149A      0.537565  
	 150A      0.540744   151A      0.548042   152A      0.553483  
	 153A      0.554622   154A      0.559525   155A      0.563125  
	 156A      0.569248   157A      0.571546   158A      0.577048  
	 159A      0.578231   160A      0.586116   161A      0.591147  
	 162A      0.592276   163A      0.602430   164A      0.603052  
	 165A      0.606859   166A      0.609302   167A      0.614398  
	 168A      0.616242   169A      0.621370   170A      0.624722  
	 171A      0.626154   172A      0.639267   173A      0.645231  
	 174A      0.647572   175A      0.649692   176A      0.653442  
	 177A      0.657298   178A      0.660384   179A      0.664147  
	 180A      0.670768   181A      0.672112   182A      0.676653  
	 183A      0.681856   184A      0.685321   185A      0.690055  
	 186A      0.692242   187A      0.695935   188A      0.698655  
	 189A      0.701033   190A      0.708721   191A      0.710904  
	 192A      0.715552   193A      0.718866   194A      0.721595  
	 195A      0.723325   196A      0.730635   197A      0.736430  
	 198A      0.738738   199A      0.746969   200A      0.749661  
	 201A      0.755146   202A      0.762647   203A      0.766987  
	 204A      0.773509   205A      0.776927   206A      0.781059  
	 207A      0.789211   208A      0.796965   209A      0.797854  
	 210A      0.803421   211A      0.804436   212A      0.811776  
	 213A      0.813541   214A      0.815045   215A      0.824348  
	 216A      0.830770   217A      0.834408   218A      0.836859  
	 219A      0.840076   220A      0.849993   221A      0.851525  
	 222A      0.861114   223A      0.864717   224A      0.868946  
	 225A      0.874063   226A      0.885065   227A      0.890146  
	 228A      0.891108   229A      0.900389   230A      0.903119  
	 231A      0.907791   232A      0.916422   233A      0.917947  
	 234A      0.922731   235A      0.932260   236A      0.935942  
	 237A      0.943465   238A      0.947557   239A      0.951585  
	 240A      0.960793   241A      0.965777   242A      0.966819  
	 243A      0.974564   244A      0.978626   245A      0.979982  
	 246A      0.986347   247A      1.003903   248A      1.007224  
	 249A      1.009254   250A      1.016502   251A      1.024973  
	 252A      1.028297   253A      1.033761   254A      1.035865  
	 255A      1.041020   256A      1.044563   257A      1.048824  
	 258A      1.053350   259A      1.060889   260A      1.075753  
	 261A      1.080231   262A      1.083279   263A      1.088422  
	 264A      1.092954   265A      1.104437   266A      1.108914  
	 267A      1.109605   268A      1.114059   269A      1.120698  
	 270A      1.127206   271A      1.133779   272A      1.137277  
	 273A      1.145659   274A      1.148583   275A      1.152933  
	 276A      1.154904   277A      1.162603   278A      1.166296  
	 279A      1.169055   280A      1.175742   281A      1.177625  
	 282A      1.182429   283A      1.187437   284A      1.195818  
	 285A      1.197050   286A      1.207281   287A      1.210401  
	 288A      1.213151   289A      1.223282   290A      1.224853  
	 291A      1.228393   292A      1.231433   293A      1.238078  
	 294A      1.240711   295A      1.246739   296A      1.254070  
	 297A      1.262609   298A      1.267210   299A      1.271315  
	 300A      1.277420   301A      1.279892   302A      1.285358  
	 303A      1.290899   304A      1.292150   305A      1.294151  
	 306A      1.299958   307A      1.310514   308A      1.312715  
	 309A      1.328025   310A      1.331139   311A      1.337232  
	 312A      1.342546   313A      1.344067   314A      1.348035  
	 315A      1.352962   316A      1.356746   317A      1.364350  
	 318A      1.365907   319A      1.373164   320A      1.374899  
	 321A      1.381767   322A      1.383531   323A      1.395486  
	 324A      1.398546   325A      1.401683   326A      1.412993  
	 327A      1.414868   328A      1.416889   329A      1.422048  
	 330A      1.423821   331A      1.431280   332A      1.438817  
	 333A      1.440508   334A      1.446837   335A      1.452472  
	 336A      1.461189   337A      1.463519   338A      1.477287  
	 339A      1.480834   340A      1.488899   341A      1.489423  
	 342A      1.491916   343A      1.501157   344A      1.507547  
	 345A      1.513359   346A      1.520168   347A      1.525881  
	 348A      1.528167   349A      1.537054   350A      1.539934  
	 351A      1.544897   352A      1.547185   353A      1.556092  
	 354A      1.558138   355A      1.566013   356A      1.570295  
	 357A      1.574855   358A      1.582796   359A      1.584763  
	 360A      1.599046   361A      1.604203   362A      1.607677  
	 363A      1.613562   364A      1.615897   365A      1.618644  
	 366A      1.626921   367A      1.635569   368A      1.638776  
	 369A      1.644308   370A      1.648375   371A      1.653639  
	 372A      1.660274   373A      1.666071   374A      1.668319  
	 375A      1.674394   376A      1.676648   377A      1.684638  
	 378A      1.690578   379A      1.691986   380A      1.708152  
	 381A      1.710706   382A      1.714994   383A      1.721144  
	 384A      1.726695   385A      1.736968   386A      1.740209  
	 387A      1.742202   388A      1.746884   389A      1.753577  
	 390A      1.756834   391A      1.761968   392A      1.765883  
	 393A      1.770273   394A      1.781215   395A      1.785619  
	 396A      1.786649   397A      1.788889   398A      1.803728  
	 399A      1.807377   400A      1.816727   401A      1.826568  
	 402A      1.829267   403A      1.835137   404A      1.845302  
	 405A      1.851580   406A      1.854987   407A      1.858685  
	 408A      1.865299   409A      1.870853   410A      1.875286  
	 411A      1.878461   412A      1.893289   413A      1.898682  
	 414A      1.904201   415A      1.905550   416A      1.911619  
	 417A      1.917419   418A      1.923581   419A      1.927861  
	 420A      1.932984   421A      1.941032   422A      1.946283  
	 423A      1.959499   424A      1.964927   425A      1.970867  
	 426A      1.977818   427A      1.984600   428A      1.989529  
	 429A      1.992357   430A      1.996087   431A      2.017712  
	 432A      2.025149   433A      2.031189   434A      2.032895  
	 435A      2.040271   436A      2.051579   437A      2.052191  
	 438A      2.059232   439A      2.068829   440A      2.070854  
	 441A      2.077878   442A      2.087154   443A      2.088094  
	 444A      2.095637   445A      2.098820   446A      2.103320  
	 447A      2.112836   448A      2.114523   449A      2.119543  
	 450A      2.124830   451A      2.133015   452A      2.151061  
	 453A      2.159638   454A      2.163354   455A      2.168685  
	 456A      2.174427   457A      2.179022   458A      2.187206  
	 459A      2.193235   460A      2.204867   461A      2.217544  
	 462A      2.222336   463A      2.229407   464A      2.234314  
	 465A      2.240782   466A      2.247883   467A      2.254075  
	 468A      2.272357   469A      2.274289   470A      2.281412  
	 471A      2.289428   472A      2.292514   473A      2.300869  
	 474A      2.304542   475A      2.312683   476A      2.317968  
	 477A      2.328713   478A      2.333010   479A      2.341767  
	 480A      2.350764   481A      2.354209   482A      2.361231  
	 483A      2.368784   484A      2.380372   485A      2.389698  
	 486A      2.392093   487A      2.398130   488A      2.405427  
	 489A      2.411655   490A      2.416760   491A      2.422789  
	 492A      2.431063   493A      2.432547   494A      2.440512  
	 495A      2.454305   496A      2.463664   497A      2.470826  
	 498A      2.480199   499A      2.484606   500A      2.491941  
	 501A      2.503789   502A      2.512883   503A      2.518575  
	 504A      2.530828   505A      2.537203   506A      2.552079  
	 507A      2.556009   508A      2.560925   509A      2.577499  
	 510A      2.589159   511A      2.592740   512A      2.607093  
	 513A      2.610273   514A      2.616262   515A      2.619776  
	 516A      2.621723   517A      2.638530   518A      2.648163  
	 519A      2.651890   520A      2.662392   521A      2.679473  
	 522A      2.686385   523A      2.695266   524A      2.708330  
	 525A      2.716302   526A      2.726677   527A      2.727814  
	 528A      2.744424   529A      2.749857   530A      2.764826  
	 531A      2.771685   532A      2.787862   533A      2.798065  
	 534A      2.806557   535A      2.817898   536A      2.827344  
	 537A      2.834759   538A      2.845875   539A      2.851840  
	 540A      2.856151   541A      2.875599   542A      2.878535  
	 543A      2.896283   544A      2.912216   545A      2.926747  
	 546A      2.934307   547A      2.946723   548A      2.959476  
	 549A      2.974931   550A      2.980981   551A      2.989594  
	 552A      2.995091   553A      3.007139   554A      3.021565  
	 555A      3.024603   556A      3.044574   557A      3.057564  
	 558A      3.094239   559A      3.114638   560A      3.128797  
	 561A      3.137822   562A      3.151383   563A      3.163233  
	 564A      3.178398   565A      3.185887   566A      3.226458  
	 567A      3.259228   568A      3.289811   569A      3.319213  
	 570A      3.396862   571A      3.412739   572A      3.428694  
	 573A      3.460498   574A      3.471128   575A      3.493807  
	 576A      3.498848   577A      3.506956   578A      3.525180  
	 579A      3.532524   580A      3.579542   581A      3.619123  
	 582A      3.627202   583A      3.635410   584A      3.657291  
	 585A      3.679330   586A      3.707011   587A      3.733806  
	 588A      3.750998   589A      3.766422   590A      3.773674  
	 591A      3.787883   592A      3.799001   593A      3.813909  
	 594A      3.853604   595A      3.869748   596A      3.877689  
	 597A      3.892977   598A      3.897361   599A      3.912881  
	 600A      3.918111   601A      3.927461   602A      3.930099  
	 603A      3.949746   604A      3.959921   605A      3.972475  
	 606A      3.984777   607A      3.999849   608A      4.013345  
	 609A      4.020618   610A      4.039408   611A      4.056449  
	 612A      4.061368   613A      4.068284   614A      4.077143  
	 615A      4.089744   616A      4.100376   617A      4.104437  
	 618A      4.115429   619A      4.127324   620A      4.139960  
	 621A      4.144213   622A      4.152362   623A      4.157400  
	 624A      4.165070   625A      4.169378   626A      4.184267  
	 627A      4.195042   628A      4.201373   629A      4.212884  
	 630A      4.225665   631A      4.232278   632A      4.253420  
	 633A      4.258182   634A      4.263483   635A      4.274228  
	 636A      4.281150   637A      4.284909   638A      4.293072  
	 639A      4.296159   640A      4.310106   641A      4.324678  
	 642A      4.328731   643A      4.339851   644A      4.352813  
	 645A      4.366338   646A      4.376140   647A      4.386458  
	 648A      4.393264   649A      4.396883   650A      4.400946  
	 651A      4.409671   652A      4.420907   653A      4.428036  
	 654A      4.439729   655A      4.447593   656A      4.457353  
	 657A      4.460985   658A      4.463232   659A      4.476085  
	 660A      4.487397   661A      4.493511   662A      4.499767  
	 663A      4.510569   664A      4.515488   665A      4.525874  
	 666A      4.531209   667A      4.539001   668A      4.557457  
	 669A      4.563160   670A      4.577274   671A      4.586413  
	 672A      4.596715   673A      4.599763   674A      4.612610  
	 675A      4.617160   676A      4.632251   677A      4.639830  
	 678A      4.648370   679A      4.670530   680A      4.674160  
	 681A      4.685827   682A      4.696883   683A      4.710283  
	 684A      4.725299   685A      4.729729   686A      4.743705  
	 687A      4.747627   688A      4.764039   689A      4.767704  
	 690A      4.787080   691A      4.791609   692A      4.799062  
	 693A      4.804823   694A      4.809848   695A      4.814968  
	 696A      4.821235   697A      4.842959   698A      4.855835  
	 699A      4.859566   700A      4.876757   701A      4.882269  
	 702A      4.887354   703A      4.901424   704A      4.914521  
	 705A      4.919704   706A      4.932771   707A      4.944169  
	 708A      4.945675   709A      4.954699   710A      4.960223  
	 711A      4.963679   712A      4.975703   713A      4.983808  
	 714A      4.992613   715A      4.996936   716A      5.005780  
	 717A      5.009937   718A      5.013380   719A      5.033495  
	 720A      5.038258   721A      5.047748   722A      5.052363  
	 723A      5.062771   724A      5.073168   725A      5.082926  
	 726A      5.095828   727A      5.107475   728A      5.110820  
	 729A      5.117948   730A      5.126370   731A      5.131086  
	 732A      5.140299   733A      5.145130   734A      5.154152  
	 735A      5.158907   736A      5.165090   737A      5.169798  
	 738A      5.178974   739A      5.199933   740A      5.205045  
	 741A      5.210394   742A      5.238763   743A      5.249832  
	 744A      5.258834   745A      5.259306   746A      5.267115  
	 747A      5.276349   748A      5.280624   749A      5.288515  
	 750A      5.303300   751A      5.309502   752A      5.323143  
	 753A      5.340225   754A      5.347831   755A      5.357028  
	 756A      5.378048   757A      5.383718   758A      5.392842  
	 759A      5.405438   760A      5.416524   761A      5.424876  
	 762A      5.433309   763A      5.446518   764A      5.457407  
	 765A      5.467029   766A      5.475371   767A      5.485382  
	 768A      5.489094   769A      5.503163   770A      5.507650  
	 771A      5.525316   772A      5.531859   773A      5.541042  
	 774A      5.549683   775A      5.553250   776A      5.559831  
	 777A      5.572112   778A      5.581370   779A      5.591399  
	 780A      5.597403   781A      5.609110   782A      5.617368  
	 783A      5.620867   784A      5.639192   785A      5.646044  
	 786A      5.646414   787A      5.655669   788A      5.665204  
	 789A      5.675344   790A      5.682833   791A      5.686051  
	 792A      5.706067   793A      5.711809   794A      5.726789  
	 795A      5.746192   796A      5.747617   797A      5.761632  
	 798A      5.766888   799A      5.779456   800A      5.791153  
	 801A      5.807970   802A      5.815431   803A      5.827051  
	 804A      5.845307   805A      5.848299   806A      5.869268  
	 807A      5.879317   808A      5.885507   809A      5.894190  
	 810A      5.896466   811A      5.912620   812A      5.923771  
	 813A      5.932990   814A      5.939132   815A      5.952052  
	 816A      5.954600   817A      5.964921   818A      5.985214  
	 819A      5.994460   820A      5.998724   821A      6.024583  
	 822A      6.030797   823A      6.037768   824A      6.053830  
	 825A      6.074589   826A      6.079566   827A      6.095106  
	 828A      6.113091   829A      6.130583   830A      6.133514  
	 831A      6.157916   832A      6.174562   833A      6.199859  
	 834A      6.218590   835A      6.222215   836A      6.232260  
	 837A      6.237781   838A      6.258451   839A      6.270982  
	 840A      6.279176   841A      6.290997   842A      6.313285  
	 843A      6.353571   844A      6.362611   845A      6.374075  
	 846A      6.389034   847A      6.399008   848A      6.420431  
	 849A      6.457113   850A      6.470118   851A      6.485107  
	 852A      6.510686   853A      6.535727   854A      6.544528  
	 855A      6.577147   856A      6.597384   857A      6.609805  
	 858A      6.676406   859A      6.702720   860A      6.704758  
	 861A      6.715529   862A      6.782895   863A      6.835302  
	 864A      6.864071   865A      6.869283   866A      6.904511  
	 867A      6.978917   868A      7.033904   869A      7.037631  
	 870A      7.078263   871A      7.091225   872A      7.153016  
	 873A      7.224232   874A      7.237520   875A      7.268559  
	 876A      7.294122   877A      7.399652   878A      7.441969  
	 879A      7.462231   880A      7.490614   881A      7.570310  
	 882A      7.591087   883A      7.642974   884A      7.719324  
	 885A      7.780792   886A      7.790111   887A      7.926215  
	 888A      7.964517   889A      8.015042   890A      8.041457  
	 891A      8.083319   892A      8.094285   893A      8.135185  
	 894A      8.161517   895A      8.241055   896A      8.591150  
	 897A      8.630656   898A      8.663763   899A      8.727224  
	 900A      8.754698   901A      9.125539   902A      9.235186  
	 903A      9.262979   904A      9.411116   905A      9.778781  
	 906A     10.712436   907A     10.783651   908A     10.951999  
	 909A     11.050009   910A     11.309415   911A     18.513341  
	 912A     18.847993   913A     19.600390   914A     20.004749  
	 915A     20.740181   916A     54.267228   917A     55.027597  
	 918A     56.492141   919A     57.291426   920A     58.610744  

	Final Occupation by Irrep:
	          A 
	DOCC [    20 ]

  Energy converged.

  @RHF Final Energy:  -195.23024009028086

   => Energetics <=

    Nuclear Repulsion Energy =            188.3786524954426795
    One-Electron Energy =                -635.5467778126428584
    Two-Electron Energy =                 251.9378852269209403
    DFT Exchange-Correlation Energy =       0.0000000000000000
    Empirical Dispersion Energy =           0.0000000000000000
    Total Energy =                       -195.2302400902792385



Properties will be evaluated at   0.000000,   0.000000,   0.000000 Bohr
  ==> Properties <==


Properties computed using the SCF density density matrix
  Nuclear Dipole Moment: (a.u.)
     X:     3.0780      Y:     6.0214      Z:   137.8891

  Electronic Dipole Moment: (a.u.)
     X:    -3.0827      Y:    -6.0173      Z:  -137.8870

  Dipole Moment: (a.u.)
     X:    -0.0047      Y:     0.0041      Z:     0.0020     Total:     0.0065

  Dipole Moment: (Debye)
     X:    -0.0119      Y:     0.0103      Z:     0.0052     Total:     0.0166


  Saving occupied orbitals to File 180.

  Saving SAPT 2-MONOMER_B file.

*** tstop() called on node35.bme.utexas.edu at Mon Mar 17 02:21:27 2014
Module time:
	user time   =    1021.90 seconds =      17.03 minutes
	system time =      15.51 seconds =       0.26 minutes
	total time  =        290 seconds =       4.83 minutes
Total time:
	user time   =    3601.67 seconds =      60.03 minutes
	system time =     280.89 seconds =       4.68 minutes
	total time  =       1259 seconds =      20.98 minutes
  No DF_BASIS_SAPT auxiliary basis selected, defaulting to aug-cc-pvtz-ri

  //>>>>>>>>>>>>>>>>>>>>>>>>>>>>>>>>>>>//
  //               SAPT2+              //
  //<<<<<<<<<<<<<<<<<<<<<<<<<<<<<<<<<<<//


*** tstart() called on node35.bme.utexas.edu
*** at Mon Mar 17 02:21:27 2014

        SAPT2+  
    Ed Hohenstein
     6 June 2009

      Orbital Information
  --------------------------
    NSO        =       920
    NMO        =       920
    NRI        =      1980
    NOCC A     =        20
    NOCC B     =        20
    FOCC A     =         5
    FOCC B     =         5
    NVIR A     =       900
    NVIR B     =       900

    Estimated memory usage: 20606.4 MB

    Elst10,r            =    -0.012888810219 H
    Exch10 (S^2)        =     0.040118972483 H
    Exch10              =     0.040441173172 H
    Ind20,r (A<-B)      =    -0.003820130708 H
    Ind20,r (B<-A)      =    -0.003819165150 H
    Ind20,r             =    -0.007639295858 H
    Exch-Ind20,r (A<-B) =     0.003311172265 H
    Exch-Ind20,r (B<-A) =     0.003310024593 H
    Exch-Ind20,r        =     0.006621196858 H
    Disp20              =    -0.026901591424 H
    Exch-Disp20         =     0.003835760513 H
    Elst12,r            =    -0.001546787388 H
    Exch11              =     0.001238342051 H
    Exch12              =     0.001859560600 H
    Ind22               =    -0.000924556841 H
    Disp21              =     0.002052255998 H
    Disp22 (SDQ)        =     0.000806196509 H

    (i =   1 of  15)      27310 seconds
    (i =   2 of  15)      52684 seconds
    (i =   3 of  15)      74435 seconds
    (i =   4 of  15)      96397 seconds
    (i =   5 of  15)     118348 seconds
    (i =   6 of  15)     140069 seconds
    (i =   7 of  15)     161587 seconds
    (i =   8 of  15)     183002 seconds
    (i =   9 of  15)     205093 seconds
    (i =  10 of  15)     226796 seconds
    (i =  11 of  15)     250768 seconds
    (i =  12 of  15)     276217 seconds
    (i =  13 of  15)     301845 seconds
    (i =  14 of  15)     327603 seconds
    (i =  15 of  15)     353432 seconds

    Disp220 (T)         =    -0.002003001631 H

    (i =   1 of  15)      23542 seconds
    (i =   2 of  15)      43857 seconds
    (i =   3 of  15)      64445 seconds
    (i =   4 of  15)      84570 seconds
    (i =   5 of  15)     104911 seconds
    (i =   6 of  15)     125219 seconds
    (i =   7 of  15)     145231 seconds
    (i =   8 of  15)     165718 seconds
    (i =   9 of  15)     186217 seconds
    (i =  10 of  15)     206679 seconds
    (i =  11 of  15)     227099 seconds
    (i =  12 of  15)     247430 seconds
    (i =  13 of  15)     267755 seconds
    (i =  14 of  15)     287937 seconds
    (i =  15 of  15)     308259 seconds

    Disp202 (T)         =    -0.002002936655 H

    Disp22 (T)          =    -0.004005938287 H

    SAPT Results  
  -----------------------------------------------------------------------
    Electrostatics         -14.43559761 mH      -9.05847464 kcal mol^-1
      Elst10,r             -12.88881022 mH      -8.08785086 kcal mol^-1
      Elst12,r              -1.54678739 mH      -0.97062378 kcal mol^-1

    Exchange                43.53907582 mH      27.32118370 kcal mol^-1
      Exch10                40.44117317 mH      25.37722036 kcal mol^-1
      Exch10(S^2)           40.11897248 mH      25.17503636 kcal mol^-1
      Exch11(S^2)            1.23834205 mH       0.77707140 kcal mol^-1
      Exch12(S^2)            1.85956060 mH       1.16689194 kcal mol^-1

    Induction               -3.90225492 mH      -2.44870204 kcal mol^-1
      Ind20,r               -7.63929586 mH      -4.79373072 kcal mol^-1
      Ind22                 -0.92455684 mH      -0.58016820 kcal mol^-1
      Exch-Ind20,r           6.62119686 mH       4.15486393 kcal mol^-1
      Exch-Ind22             0.80133994 mH       0.50284842 kcal mol^-1
      delta HF,r (2)        -2.76093902 mH      -1.73251546 kcal mol^-1

    Dispersion             -24.21331669 mH     -15.19408625 kcal mol^-1
      Disp20               -26.90159142 mH     -16.88100418 kcal mol^-1
      Disp21                 2.05225600 mH       1.28781014 kcal mol^-1
      Disp22 (SDQ)           0.80619651 mH       0.50589597 kcal mol^-1
      Disp22 (T)            -4.00593829 mH      -2.51376433 kcal mol^-1
      Exch-Disp20            3.83576051 mH       2.40697616 kcal mol^-1

    Total HF                23.77332493 mH      14.91798724 kcal mol^-1
    Total SAPT0              0.70749402 mH       0.44395922 kcal mol^-1
    Total SAPT2              2.13539238 mH       1.33997900 kcal mol^-1
    Total SAPT2+             0.98790660 mH       0.61992078 kcal mol^-1

*** tstop() called on node35.bme.utexas.edu at Wed Mar 26 07:52:36 2014
Module time:
	user time   = 2607751.10 seconds =   43462.52 minutes
	system time =    3663.46 seconds =      61.06 minutes
	total time  =     797469 seconds =   13291.15 minutes
Total time:
	user time   = 2611352.78 seconds =   43522.55 minutes
	system time =    3944.35 seconds =      65.74 minutes
	total time  =     798728 seconds =   13312.13 minutes

*** PSI4 exiting successfully. Buy a developer a beer!
