    -----------------------------------------------------------------------
          PSI4: An Open-Source Ab Initio Electronic Structure Package
                              PSI 4.0.0-beta4 Driver

    J. M. Turney, A. C. Simmonett, R. M. Parrish, E. G. Hohenstein,
    F. A. Evangelista, J. T. Fermann, B. J. Mintz, L. A. Burns, J. J. Wilke,
    M. L. Abrams, N. J. Russ, M. L. Leininger, C. L. Janssen, E. T. Seidl,
    W. D. Allen, H. F. Schaefer, R. A. King, E. F. Valeev, C. D. Sherrill,
    and T. D. Crawford, WIREs Comput. Mol. Sci., (2011) (doi: 10.1002/wcms.93)

                         Additional Contributions by
    A. E. DePrince, M. Saitow, U. Bozkaya, A. Yu. Sokolov
    -----------------------------------------------------------------------

    Process ID:  19342
    PSI4DATADIR: /home/xzhu216/psi4/psi4-install/share/psi

    Using LocalCommunicator (Number of processes = 1)

    Memory level set to 256.000 MB

  ==> Input File <==

--------------------------------------------------------------------------
#psi4
#
memory 30 gb

molecule Cyclopentane_Cyclopentane {
0 1
    C     0.956880185    -0.891845634     1.141950005
    H     1.504565968    -1.278357625     0.283420189
    H     1.421384473    -1.314777934     2.031025457
    C     0.990949429     0.658508299     1.145503845
    H     1.510594456     1.023096462     0.259947883
    H     1.516258229     1.059818131     2.010537025
    C    -0.479451941     1.102318793     1.103879102
    H    -0.616268611     2.064877218     0.613567367
    H    -0.874742231     1.189071444     2.118069595
    C    -1.182106501    -0.052796555     0.393345754
    H    -0.948882159    -0.026830303    -0.673804592
    H    -2.265664523    -0.033564738     0.501274026
    C    -0.530659579    -1.274889539     1.039309594
    H    -0.690390612    -2.197020928     0.482992214
    H    -0.950849387    -1.415411973     2.036747824
--
0 1
    C    -1.151462676    -0.423071419     4.166669566
    H    -1.484597174    -0.186372804     3.154085203
    H    -1.956251076    -0.966169882     4.659656069
    C     0.162143775    -1.218616332     4.118908368
    H     0.212088716    -1.876359022     3.252774546
    H     0.242431395    -1.849973963     5.003293660
    C     1.291458997    -0.155910506     4.119504462
    H     1.912723952    -0.216589355     3.227630843
    H     1.948868489    -0.305793548     4.974909632
    C     0.581285628     1.205758243     4.227371295
    H     0.401422452     1.614250028     3.231372171
    H     1.161669585     1.940161744     4.783344563
    C    -0.760766833     0.871285803     4.877183155
    H    -1.500435398     1.663797572     4.772301854
    H    -0.620726904     0.679645754     5.943732114
units angstrom
no_reorient  #important for SAPT in psi4, default
symmetry c1  #important for SAPT in psi4, default
}

set {
basis aug-cc-pVTZ
scf_type DF
freeze_core True
}
energy('sapt2+')
--------------------------------------------------------------------------

  Memory set to  30.000 GiB by Python script.

  //>>>>>>>>>>>>>>>>>>>>>>>>>>>>>>>>>>>//
  //              Dimer HF             //
  //<<<<<<<<<<<<<<<<<<<<<<<<<<<<<<<<<<<//


  No DF_BASIS_SCF auxiliary basis selected, defaulting to aug-cc-pvtz-jkfit


*** tstart() called on node31.bme.utexas.edu
*** at Thu Mar 13 15:43:25 2014


         ---------------------------------------------------------
                                   SCF
            by Justin Turney, Rob Parrish, and Andy Simmonett
                              RHF Reference
                        4 Threads,  30000 MiB Core
         ---------------------------------------------------------

  ==> Geometry <==

    Molecular point group: c1
    Full point group: C1

    Geometry (in Angstrom), charge = 0, multiplicity = 1:

       Center              X                  Y                   Z       
    ------------   -----------------  -----------------  -----------------
           C          0.967854742086    -0.873387737080    -1.491409829988
           H          1.515540525086    -1.259899728080    -2.349939645988
           H          1.432359030086    -1.296320037080    -0.602334377988
           C          1.001923986086     0.676966195920    -1.487855989988
           H          1.521569013086     1.041554358920    -2.373411951988
           H          1.527232786086     1.078276027920    -0.622822809988
           C         -0.468477383914     1.120776689920    -1.529480732988
           H         -0.605294053914     2.083335114920    -2.019792467988
           H         -0.863767673914     1.207529340920    -0.515290239988
           C         -1.171131943914    -0.034338658080    -2.240014080988
           H         -0.937907601914    -0.008372406080    -3.307164426988
           H         -2.254689965914    -0.015106841080    -2.132085808988
           C         -0.519685021914    -1.256431642080    -1.594050240988
           H         -0.679416054914    -2.178563031080    -2.150367620988
           H         -0.939874829914    -1.396954076080    -0.596612010988
           C         -1.140488118914    -0.404613522080     1.533309731012
           H         -1.473622616914    -0.167914907080     0.520725368012
           H         -1.945276518914    -0.947711985080     2.026296234012
           C          0.173118332086    -1.200158435080     1.485548533012
           H          0.223063273086    -1.857901125080     0.619414711012
           H          0.253405952086    -1.831516066080     2.369933825012
           C          1.302433554086    -0.137452609080     1.486144627012
           H          1.923698509086    -0.198131458080     0.594271008012
           H          1.959843046086    -0.287335651080     2.341549797012
           C          0.592260185086     1.224216139920     1.594011460012
           H          0.412397009086     1.632707924920     0.598012336012
           H          1.172644142086     1.958619640920     2.149984728012
           C         -0.749792275914     0.889743699920     2.243823320012
           H         -1.489460840914     1.682255468920     2.138942019012
           H         -0.609752346914     0.698103650920     3.310372279012

  Running in c1 symmetry.

  Nuclear repulsion =  602.773254737623802

  Charge       = 0
  Multiplicity = 1
  Electrons    = 80
  Nalpha       = 40
  Nbeta        = 40

  ==> Algorithm <==

  SCF Algorithm Type is DF.
  DIIS enabled.
  MOM disabled.
  Fractional occupation disabled.
  Guess Type is CORE.
  Energy threshold   = 1.00e-08
  Density threshold  = 1.00e-08
  Integral threshold = 0.00e+00

  ==> Primary Basis <==

  Basis Set: AUG-CC-PVTZ
    Number of shells: 320
    Number of basis function: 920
    Number of Cartesian functions: 1050
    Spherical Harmonics?: true
    Max angular momentum: 3

  ==> Pre-Iterations <==

   -------------------------------------------------------
    Irrep   Nso     Nmo     Nalpha   Nbeta   Ndocc  Nsocc
   -------------------------------------------------------
     A        920     920       0       0       0       0
   -------------------------------------------------------
    Total     920     920      40      40      40       0
   -------------------------------------------------------

 OEINTS: Wrapper to libmints.
   by Justin Turney

   Calculation information:
      Number of atoms:                  30
      Number of AO shells:             320
      Number of SO shells:             320
      Number of primitives:            520
      Number of atomic orbitals:      1050
      Number of basis functions:       920

      Number of irreps:                  1
      Number of functions per irrep: [ 920 ]

      Overlap, kinetic, potential, dipole, and quadrupole integrals
        stored in file 35.

  ==> Integral Setup <==

  ==> DFJK: Density-Fitted J/K Matrices <==

    J tasked:                  Yes
    K tasked:                  Yes
    wK tasked:                  No
    OpenMP threads:              4
    Integrals threads:           4
    Memory (MB):             21457
    Algorithm:                Core
    Integral Cache:           SAVE
    Schwarz Cutoff:          0E+00
    Fitting Condition:       1E-12

   => Auxiliary Basis Set <=

  Basis Set: aug-cc-pvtz-jkfit
    Number of shells: 580
    Number of basis function: 1960
    Number of Cartesian functions: 2410
    Spherical Harmonics?: true
    Max angular momentum: 4

  Minimum eigenvalue in the overlap matrix is 4.2793050104E-07.
  Using Symmetric Orthogonalization.
  SCF Guess: Core (One-Electron) Hamiltonian.

  Guess energy:  -327.72013756074341

  ==> Iterations <==

                        Total Energy        Delta E     RMS |[F,P]|

   @RHF iter   1:  -271.43952172328181   -2.71440e+02   1.68417e-02 
   @RHF iter   2:  -209.31675196775063    6.21228e+01   9.63361e-03 DIIS
   @RHF iter   3:  -313.08852057500712   -1.03772e+02   1.16374e-02 DIIS
   @RHF iter   4:  -377.19569876360174   -6.41072e+01   5.08073e-03 DIIS
   @RHF iter   5:  -389.27011632774668   -1.20744e+01   1.38248e-03 DIIS
   @RHF iter   6:  -390.27232102421260   -1.00220e+00   4.80902e-04 DIIS
   @RHF iter   7:  -390.39038920877181   -1.18068e-01   1.27141e-04 DIIS
   @RHF iter   8:  -390.40068791249746   -1.02987e-02   4.39276e-05 DIIS
   @RHF iter   9:  -390.40200975204993   -1.32184e-03   1.29680e-05 DIIS
   @RHF iter  10:  -390.40212314947144   -1.13397e-04   2.75062e-06 DIIS
   @RHF iter  11:  -390.40212792270540   -4.77323e-06   9.45954e-07 DIIS
   @RHF iter  12:  -390.40212842047413   -4.97769e-07   2.93257e-07 DIIS
   @RHF iter  13:  -390.40212848784870   -6.73746e-08   6.58785e-08 DIIS
   @RHF iter  14:  -390.40212849131285   -3.46415e-09   1.78047e-08 DIIS
   @RHF iter  15:  -390.40212849150225   -1.89402e-10   4.90164e-09 DIIS

  ==> Post-Iterations <==

	Orbital Energies (a.u.)
	-----------------------

	Doubly Occupied:                                                      

	   1A    -11.209575     2A    -11.209572     3A    -11.208025  
	   4A    -11.208022     5A    -11.206741     6A    -11.206733  
	   7A    -11.205717     8A    -11.205709     9A    -11.204320  
	  10A    -11.204316    11A     -1.127488    12A     -1.108924  
	  13A     -0.971608    14A     -0.969308    15A     -0.947085  
	  16A     -0.946940    17A     -0.795120    18A     -0.777193  
	  19A     -0.768580    20A     -0.760850    21A     -0.690172  
	  22A     -0.650003    23A     -0.642998    24A     -0.614948  
	  25A     -0.608742    26A     -0.594811    27A     -0.540972  
	  28A     -0.535198    29A     -0.487884    30A     -0.482296  
	  31A     -0.481198    32A     -0.469855    33A     -0.468733  
	  34A     -0.465044    35A     -0.462166    36A     -0.459833  
	  37A     -0.454691    38A     -0.449884    39A     -0.443465  
	  40A     -0.425539  

	Virtual:                                                              

	  41A      0.027024    42A      0.032717    43A      0.033546  
	  44A      0.033662    45A      0.045188    46A      0.045982  
	  47A      0.046480    48A      0.048168    49A      0.048564  
	  50A      0.063960    51A      0.066947    52A      0.068261  
	  53A      0.072343    54A      0.074016    55A      0.082655  
	  56A      0.083239    57A      0.093039    58A      0.094891  
	  59A      0.098216    60A      0.103967    61A      0.115485  
	  62A      0.116521    63A      0.119759    64A      0.122054  
	  65A      0.125431    66A      0.126258    67A      0.126735  
	  68A      0.128836    69A      0.132713    70A      0.139995  
	  71A      0.141139    72A      0.145884    73A      0.146138  
	  74A      0.154996    75A      0.156940    76A      0.161012  
	  77A      0.168367    78A      0.171708    79A      0.172374  
	  80A      0.173541    81A      0.176487    82A      0.181138  
	  83A      0.182246    84A      0.185710    85A      0.186875  
	  86A      0.187296    87A      0.189095    88A      0.196630  
	  89A      0.197703    90A      0.204805    91A      0.206451  
	  92A      0.220641    93A      0.225920    94A      0.236048  
	  95A      0.251500    96A      0.252907    97A      0.256335  
	  98A      0.258385    99A      0.263824   100A      0.264041  
	 101A      0.274730   102A      0.295165   103A      0.297910  
	 104A      0.302569   105A      0.304058   106A      0.308239  
	 107A      0.308432   108A      0.312066   109A      0.319484  
	 110A      0.323331   111A      0.328724   112A      0.331050  
	 113A      0.332896   114A      0.334984   115A      0.337568  
	 116A      0.339658   117A      0.339856   118A      0.344397  
	 119A      0.349469   120A      0.352405   121A      0.356692  
	 122A      0.360417   123A      0.362148   124A      0.366837  
	 125A      0.373682   126A      0.374633   127A      0.378764  
	 128A      0.379616   129A      0.384135   130A      0.385357  
	 131A      0.385698   132A      0.389598   133A      0.393736  
	 134A      0.399023   135A      0.402196   136A      0.402985  
	 137A      0.408352   138A      0.408461   139A      0.422673  
	 140A      0.428107   141A      0.437111   142A      0.440627  
	 143A      0.445258   144A      0.446862   145A      0.449647  
	 146A      0.451112   147A      0.453570   148A      0.459741  
	 149A      0.472128   150A      0.472822   151A      0.475164  
	 152A      0.481893   153A      0.487483   154A      0.488531  
	 155A      0.492423   156A      0.493124   157A      0.495029  
	 158A      0.497926   159A      0.501941   160A      0.505956  
	 161A      0.506232   162A      0.511009   163A      0.514558  
	 164A      0.515664   165A      0.519207   166A      0.530375  
	 167A      0.530493   168A      0.532891   169A      0.535514  
	 170A      0.542614   171A      0.542858   172A      0.545698  
	 173A      0.547437   174A      0.556326   175A      0.557663  
	 176A      0.564011   177A      0.567522   178A      0.571685  
	 179A      0.575615   180A      0.581446   181A      0.581855  
	 182A      0.588486   183A      0.597419   184A      0.597774  
	 185A      0.606540   186A      0.607634   187A      0.609991  
	 188A      0.612586   189A      0.613780   190A      0.621665  
	 191A      0.626552   192A      0.632177   193A      0.634322  
	 194A      0.645011   195A      0.646381   196A      0.647299  
	 197A      0.650796   198A      0.654857   199A      0.655983  
	 200A      0.662627   201A      0.666334   202A      0.666624  
	 203A      0.671497   204A      0.673908   205A      0.679949  
	 206A      0.683433   207A      0.690860   208A      0.691067  
	 209A      0.696275   210A      0.703872   211A      0.705690  
	 212A      0.713002   213A      0.714106   214A      0.720563  
	 215A      0.721004   216A      0.730085   217A      0.732799  
	 218A      0.733112   219A      0.737527   220A      0.739472  
	 221A      0.742264   222A      0.756229   223A      0.761962  
	 224A      0.763204   225A      0.779654   226A      0.784828  
	 227A      0.787123   228A      0.792204   229A      0.792541  
	 230A      0.800879   231A      0.801513   232A      0.814650  
	 233A      0.815080   234A      0.819495   235A      0.820375  
	 236A      0.831961   237A      0.835865   238A      0.843727  
	 239A      0.847306   240A      0.856403   241A      0.858133  
	 242A      0.872201   243A      0.880626   244A      0.889829  
	 245A      0.894361   246A      0.901650   247A      0.904039  
	 248A      0.906123   249A      0.912354   250A      0.917944  
	 251A      0.922136   252A      0.923492   253A      0.932469  
	 254A      0.937719   255A      0.941250   256A      0.945001  
	 257A      0.946199   258A      0.947486   259A      0.959436  
	 260A      0.961000   261A      0.963098   262A      0.973196  
	 263A      0.974768   264A      0.978122   265A      0.979033  
	 266A      0.987129   267A      0.987159   268A      0.995181  
	 269A      0.998029   270A      1.000174   271A      1.007387  
	 272A      1.008252   273A      1.016623   274A      1.021596  
	 275A      1.023729   276A      1.024001   277A      1.032862  
	 278A      1.040061   279A      1.044503   280A      1.050251  
	 281A      1.060257   282A      1.064082   283A      1.067194  
	 284A      1.071532   285A      1.075549   286A      1.079850  
	 287A      1.088527   288A      1.089562   289A      1.092157  
	 290A      1.097966   291A      1.102068   292A      1.108905  
	 293A      1.117148   294A      1.119467   295A      1.121470  
	 296A      1.124137   297A      1.128068   298A      1.136215  
	 299A      1.145368   300A      1.147469   301A      1.148307  
	 302A      1.151527   303A      1.156708   304A      1.158477  
	 305A      1.174397   306A      1.174888   307A      1.180076  
	 308A      1.192902   309A      1.196567   310A      1.200191  
	 311A      1.203519   312A      1.212513   313A      1.217385  
	 314A      1.221630   315A      1.226203   316A      1.234463  
	 317A      1.237473   318A      1.241864   319A      1.247259  
	 320A      1.257004   321A      1.260197   322A      1.260702  
	 323A      1.265885   324A      1.269114   325A      1.281927  
	 326A      1.282544   327A      1.285003   328A      1.295092  
	 329A      1.296422   330A      1.300179   331A      1.307406  
	 332A      1.308528   333A      1.310042   334A      1.326401  
	 335A      1.335417   336A      1.340390   337A      1.340506  
	 338A      1.351073   339A      1.352996   340A      1.361934  
	 341A      1.362440   342A      1.368427   343A      1.370532  
	 344A      1.383731   345A      1.395435   346A      1.405002  
	 347A      1.407137   348A      1.414927   349A      1.415125  
	 350A      1.420651   351A      1.424159   352A      1.431165  
	 353A      1.436634   354A      1.447140   355A      1.448157  
	 356A      1.461003   357A      1.470377   358A      1.475746  
	 359A      1.477771   360A      1.485109   361A      1.492168  
	 362A      1.494844   363A      1.503693   364A      1.506098  
	 365A      1.510073   366A      1.511255   367A      1.515973  
	 368A      1.531094   369A      1.539656   370A      1.544569  
	 371A      1.548786   372A      1.557576   373A      1.565394  
	 374A      1.567067   375A      1.574491   376A      1.582501  
	 377A      1.588001   378A      1.591556   379A      1.594226  
	 380A      1.598475   381A      1.603143   382A      1.612347  
	 383A      1.617861   384A      1.618853   385A      1.621283  
	 386A      1.621920   387A      1.632924   388A      1.637177  
	 389A      1.649386   390A      1.655620   391A      1.656149  
	 392A      1.660342   393A      1.669035   394A      1.673743  
	 395A      1.680835   396A      1.687568   397A      1.695813  
	 398A      1.701450   399A      1.704070   400A      1.708592  
	 401A      1.710658   402A      1.712121   403A      1.722143  
	 404A      1.726084   405A      1.727188   406A      1.737553  
	 407A      1.748158   408A      1.748559   409A      1.751664  
	 410A      1.757145   411A      1.763090   412A      1.770759  
	 413A      1.771541   414A      1.778890   415A      1.780803  
	 416A      1.783975   417A      1.789820   418A      1.802109  
	 419A      1.813076   420A      1.820353   421A      1.824508  
	 422A      1.827104   423A      1.842474   424A      1.845024  
	 425A      1.845955   426A      1.854271   427A      1.862042  
	 428A      1.866784   429A      1.866915   430A      1.875614  
	 431A      1.879304   432A      1.885544   433A      1.886170  
	 434A      1.899719   435A      1.900280   436A      1.908290  
	 437A      1.915893   438A      1.916752   439A      1.926161  
	 440A      1.929643   441A      1.935536   442A      1.940566  
	 443A      1.944986   444A      1.948270   445A      1.957283  
	 446A      1.957301   447A      1.961282   448A      1.970044  
	 449A      1.974259   450A      1.993022   451A      1.997284  
	 452A      2.006052   453A      2.009507   454A      2.013130  
	 455A      2.022583   456A      2.030182   457A      2.033202  
	 458A      2.034798   459A      2.041431   460A      2.051275  
	 461A      2.057277   462A      2.058560   463A      2.069363  
	 464A      2.072971   465A      2.076671   466A      2.086702  
	 467A      2.089667   468A      2.094143   469A      2.098030  
	 470A      2.110211   471A      2.110331   472A      2.123633  
	 473A      2.124307   474A      2.127567   475A      2.145806  
	 476A      2.148104   477A      2.166001   478A      2.169830  
	 479A      2.180036   480A      2.195820   481A      2.197765  
	 482A      2.205950   483A      2.213415   484A      2.218750  
	 485A      2.221964   486A      2.235255   487A      2.239044  
	 488A      2.243591   489A      2.244081   490A      2.251183  
	 491A      2.260003   492A      2.261884   493A      2.274136  
	 494A      2.280882   495A      2.282884   496A      2.303578  
	 497A      2.310737   498A      2.315137   499A      2.319301  
	 500A      2.321570   501A      2.330674   502A      2.331243  
	 503A      2.337732   504A      2.345304   505A      2.350572  
	 506A      2.354737   507A      2.356526   508A      2.373415  
	 509A      2.383403   510A      2.401714   511A      2.402757  
	 512A      2.405665   513A      2.413733   514A      2.430050  
	 515A      2.440333   516A      2.440695   517A      2.466767  
	 518A      2.468463   519A      2.473277   520A      2.481404  
	 521A      2.487706   522A      2.498832   523A      2.501514  
	 524A      2.508041   525A      2.514729   526A      2.525132  
	 527A      2.526807   528A      2.546185   529A      2.549477  
	 530A      2.553804   531A      2.567584   532A      2.569356  
	 533A      2.583228   534A      2.591501   535A      2.596650  
	 536A      2.600368   537A      2.600439   538A      2.610966  
	 539A      2.614392   540A      2.629520   541A      2.647387  
	 542A      2.649995   543A      2.654606   544A      2.673960  
	 545A      2.681618   546A      2.692079   547A      2.699752  
	 548A      2.707301   549A      2.716242   550A      2.718915  
	 551A      2.745294   552A      2.749092   553A      2.762752  
	 554A      2.767153   555A      2.771968   556A      2.795862  
	 557A      2.797763   558A      2.803173   559A      2.808537  
	 560A      2.816488   561A      2.820434   562A      2.836496  
	 563A      2.844384   564A      2.866868   565A      2.903846  
	 566A      2.922425   567A      2.926653   568A      2.933989  
	 569A      2.954785   570A      2.994458   571A      3.077311  
	 572A      3.106791   573A      3.153611   574A      3.169909  
	 575A      3.188907   576A      3.189381   577A      3.268827  
	 578A      3.269266   579A      3.327604   580A      3.336897  
	 581A      3.398536   582A      3.421947   583A      3.456115  
	 584A      3.459173   585A      3.502944   586A      3.504743  
	 587A      3.522345   588A      3.530030   589A      3.530957  
	 590A      3.544937   591A      3.552389   592A      3.577861  
	 593A      3.582344   594A      3.599575   595A      3.604110  
	 596A      3.638006   597A      3.642660   598A      3.658037  
	 599A      3.659827   600A      3.700423   601A      3.704234  
	 602A      3.708260   603A      3.722350   604A      3.736972  
	 605A      3.746645   606A      3.748774   607A      3.753795  
	 608A      3.758524   609A      3.779952   610A      3.789875  
	 611A      3.797431   612A      3.804191   613A      3.811358  
	 614A      3.820790   615A      3.826509   616A      3.828667  
	 617A      3.842365   618A      3.849479   619A      3.862745  
	 620A      3.869924   621A      3.871147   622A      3.883852  
	 623A      3.888826   624A      3.895247   625A      3.907307  
	 626A      3.911443   627A      3.921513   628A      3.924735  
	 629A      3.935577   630A      3.944945   631A      3.951969  
	 632A      3.952581   633A      3.957780   634A      3.963780  
	 635A      3.975152   636A      3.982754   637A      3.985793  
	 638A      3.999368   639A      4.007544   640A      4.008886  
	 641A      4.023277   642A      4.032616   643A      4.036378  
	 644A      4.039944   645A      4.042587   646A      4.042891  
	 647A      4.048046   648A      4.067169   649A      4.070127  
	 650A      4.084322   651A      4.084623   652A      4.091955  
	 653A      4.098484   654A      4.098700   655A      4.117074  
	 656A      4.126749   657A      4.127003   658A      4.129794  
	 659A      4.146700   660A      4.151877   661A      4.156714  
	 662A      4.157248   663A      4.165303   664A      4.169158  
	 665A      4.182340   666A      4.186399   667A      4.195512  
	 668A      4.200709   669A      4.211485   670A      4.216630  
	 671A      4.219261   672A      4.230972   673A      4.236043  
	 674A      4.239600   675A      4.256562   676A      4.260918  
	 677A      4.273693   678A      4.279873   679A      4.284324  
	 680A      4.295605   681A      4.306598   682A      4.317504  
	 683A      4.322728   684A      4.327542   685A      4.329893  
	 686A      4.338990   687A      4.356274   688A      4.362322  
	 689A      4.367813   690A      4.372677   691A      4.387448  
	 692A      4.389262   693A      4.401386   694A      4.409484  
	 695A      4.410824   696A      4.424245   697A      4.430765  
	 698A      4.437428   699A      4.453987   700A      4.462632  
	 701A      4.463155   702A      4.479023   703A      4.484487  
	 704A      4.499190   705A      4.505130   706A      4.510915  
	 707A      4.515962   708A      4.519570   709A      4.534092  
	 710A      4.536762   711A      4.551570   712A      4.556228  
	 713A      4.560033   714A      4.571944   715A      4.579628  
	 716A      4.597881   717A      4.599080   718A      4.624700  
	 719A      4.628784   720A      4.634107   721A      4.636495  
	 722A      4.660405   723A      4.664067   724A      4.677214  
	 725A      4.678673   726A      4.691451   727A      4.699002  
	 728A      4.699262   729A      4.720131   730A      4.733773  
	 731A      4.734322   732A      4.739659   733A      4.750341  
	 734A      4.753528   735A      4.768727   736A      4.780668  
	 737A      4.780908   738A      4.803976   739A      4.813418  
	 740A      4.822514   741A      4.823259   742A      4.851139  
	 743A      4.856623   744A      4.860439   745A      4.867070  
	 746A      4.870259   747A      4.889150   748A      4.890166  
	 749A      4.894256   750A      4.908525   751A      4.915983  
	 752A      4.930209   753A      4.932006   754A      4.954593  
	 755A      4.955211   756A      4.971961   757A      4.976736  
	 758A      4.981561   759A      4.995731   760A      4.999779  
	 761A      5.021119   762A      5.028421   763A      5.039741  
	 764A      5.042274   765A      5.045678   766A      5.068574  
	 767A      5.072397   768A      5.102163   769A      5.104960  
	 770A      5.112643   771A      5.117319   772A      5.121658  
	 773A      5.139768   774A      5.147639   775A      5.164551  
	 776A      5.164711   777A      5.168060   778A      5.198018  
	 779A      5.203957   780A      5.204738   781A      5.219009  
	 782A      5.232937   783A      5.239042   784A      5.258046  
	 785A      5.262395   786A      5.274186   787A      5.285211  
	 788A      5.289782   789A      5.302608   790A      5.304867  
	 791A      5.310067   792A      5.314247   793A      5.325436  
	 794A      5.328519   795A      5.342312   796A      5.347507  
	 797A      5.361136   798A      5.372120   799A      5.386904  
	 800A      5.395995   801A      5.405782   802A      5.418655  
	 803A      5.422553   804A      5.444721   805A      5.449783  
	 806A      5.462315   807A      5.463209   808A      5.486443  
	 809A      5.487706   810A      5.500200   811A      5.504580  
	 812A      5.510413   813A      5.516663   814A      5.524916  
	 815A      5.548900   816A      5.553675   817A      5.554510  
	 818A      5.567917   819A      5.571795   820A      5.584009  
	 821A      5.593240   822A      5.596638   823A      5.604143  
	 824A      5.608847   825A      5.623856   826A      5.636504  
	 827A      5.640217   828A      5.663614   829A      5.668942  
	 830A      5.677629   831A      5.680125   832A      5.691963  
	 833A      5.709461   834A      5.733252   835A      5.739179  
	 836A      5.757826   837A      5.772305   838A      5.789807  
	 839A      5.790602   840A      5.804000   841A      5.831188  
	 842A      5.849549   843A      5.852952   844A      5.868029  
	 845A      5.878618   846A      5.884169   847A      5.885020  
	 848A      5.897106   849A      5.915103   850A      5.932211  
	 851A      5.954496   852A      5.955571   853A      5.965640  
	 854A      5.987146   855A      5.992172   856A      5.993577  
	 857A      6.003214   858A      6.019106   859A      6.040405  
	 860A      6.043233   861A      6.055017   862A      6.055171  
	 863A      6.068678   864A      6.069993   865A      6.105968  
	 866A      6.107904   867A      6.153393   868A      6.165200  
	 869A      6.174278   870A      6.185931   871A      6.195641  
	 872A      6.208111   873A      6.223157   874A      6.236550  
	 875A      6.301359   876A      6.319297   877A      6.330591  
	 878A      6.334205   879A      6.372281   880A      6.381568  
	 881A      6.410838   882A      6.432774   883A      6.461037  
	 884A      6.488480   885A      6.543003   886A      6.550030  
	 887A      6.586075   888A      6.596828   889A      6.644720  
	 890A      6.644976   891A      6.692600   892A      6.697268  
	 893A      6.747000   894A      6.754464   895A      6.846851  
	 896A      6.880617   897A      6.909845   898A      6.955795  
	 899A      6.997274   900A      7.007611   901A      7.046947  
	 902A      7.049468   903A      7.137659   904A      7.177818  
	 905A      7.199905   906A      7.245858   907A      7.303131  
	 908A      7.321378   909A      7.338776   910A      7.351774  
	 911A     18.641880   912A     18.653183   913A     19.005828  
	 914A     19.474193   915A     19.731847   916A     19.845079  
	 917A     20.176562   918A     20.214190   919A     20.905736  
	 920A     20.974307  

	Final Occupation by Irrep:
	          A 
	DOCC [    40 ]

  Energy converged.

  @RHF Final Energy:  -390.40212849150225

   => Energetics <=

    Nuclear Repulsion Energy =            602.7732547376238017
    One-Electron Energy =               -1723.0102222809821342
    Two-Electron Energy =                 729.8348390518577844
    DFT Exchange-Correlation Energy =       0.0000000000000000
    Empirical Dispersion Energy =           0.0000000000000000
    Total Energy =                       -390.4021284915005481



Properties will be evaluated at   0.000000,   0.000000,   0.000000 Bohr
  ==> Properties <==


Properties computed using the SCF density density matrix
  Nuclear Dipole Moment: (a.u.)
     X:     0.1338      Y:    -0.0594      Z:    -0.0003

  Electronic Dipole Moment: (a.u.)
     X:    -0.1322      Y:     0.0587      Z:     0.0004

  Dipole Moment: (a.u.)
     X:     0.0016      Y:    -0.0007      Z:     0.0001     Total:     0.0017

  Dipole Moment: (Debye)
     X:     0.0040      Y:    -0.0018      Z:     0.0002     Total:     0.0044


  Saving occupied orbitals to File 180.

  Saving SAPT 2-DIMER file.

*** tstop() called on node31.bme.utexas.edu at Thu Mar 13 16:02:29 2014
Module time:
	user time   =    2861.12 seconds =      47.69 minutes
	system time =      54.57 seconds =       0.91 minutes
	total time  =       1144 seconds =      19.07 minutes
Total time:
	user time   =    2861.12 seconds =      47.69 minutes
	system time =      54.57 seconds =       0.91 minutes
	total time  =       1144 seconds =      19.07 minutes

  //>>>>>>>>>>>>>>>>>>>>>>>>>>>>>>>>>>>//
  //            Monomer A HF           //
  //<<<<<<<<<<<<<<<<<<<<<<<<<<<<<<<<<<<//


  No DF_BASIS_SCF auxiliary basis selected, defaulting to aug-cc-pvtz-jkfit


*** tstart() called on node31.bme.utexas.edu
*** at Thu Mar 13 16:02:29 2014


         ---------------------------------------------------------
                                   SCF
            by Justin Turney, Rob Parrish, and Andy Simmonett
                              RHF Reference
                        4 Threads,  30000 MiB Core
         ---------------------------------------------------------

  ==> Geometry <==

    Molecular point group: c1
    Full point group: C1

    Geometry (in Angstrom), charge = 0, multiplicity = 1:

       Center              X                  Y                   Z       
    ------------   -----------------  -----------------  -----------------
           C          0.967854742086    -0.873387737080    -1.491409829988
           H          1.515540525086    -1.259899728080    -2.349939645988
           H          1.432359030086    -1.296320037080    -0.602334377988
           C          1.001923986086     0.676966195920    -1.487855989988
           H          1.521569013086     1.041554358920    -2.373411951988
           H          1.527232786086     1.078276027920    -0.622822809988
           C         -0.468477383914     1.120776689920    -1.529480732988
           H         -0.605294053914     2.083335114920    -2.019792467988
           H         -0.863767673914     1.207529340920    -0.515290239988
           C         -1.171131943914    -0.034338658080    -2.240014080988
           H         -0.937907601914    -0.008372406080    -3.307164426988
           H         -2.254689965914    -0.015106841080    -2.132085808988
           C         -0.519685021914    -1.256431642080    -1.594050240988
           H         -0.679416054914    -2.178563031080    -2.150367620988
           H         -0.939874829914    -1.396954076080    -0.596612010988
           C(Gh)     -1.140488118914    -0.404613522080     1.533309731012
           H(Gh)     -1.473622616914    -0.167914907080     0.520725368012
           H(Gh)     -1.945276518914    -0.947711985080     2.026296234012
           C(Gh)      0.173118332086    -1.200158435080     1.485548533012
           H(Gh)      0.223063273086    -1.857901125080     0.619414711012
           H(Gh)      0.253405952086    -1.831516066080     2.369933825012
           C(Gh)      1.302433554086    -0.137452609080     1.486144627012
           H(Gh)      1.923698509086    -0.198131458080     0.594271008012
           H(Gh)      1.959843046086    -0.287335651080     2.341549797012
           C(Gh)      0.592260185086     1.224216139920     1.594011460012
           H(Gh)      0.412397009086     1.632707924920     0.598012336012
           H(Gh)      1.172644142086     1.958619640920     2.149984728012
           C(Gh)     -0.749792275914     0.889743699920     2.243823320012
           H(Gh)     -1.489460840914     1.682255468920     2.138942019012
           H(Gh)     -0.609752346914     0.698103650920     3.310372279012

  Running in c1 symmetry.

  Nuclear repulsion =  188.383588217339735

  Charge       = 0
  Multiplicity = 1
  Electrons    = 40
  Nalpha       = 20
  Nbeta        = 20

  ==> Algorithm <==

  SCF Algorithm Type is DF.
  DIIS enabled.
  MOM disabled.
  Fractional occupation disabled.
  Guess Type is CORE.
  Energy threshold   = 1.00e-08
  Density threshold  = 1.00e-08
  Integral threshold = 0.00e+00

  ==> Primary Basis <==

  Basis Set: AUG-CC-PVTZ
    Number of shells: 320
    Number of basis function: 920
    Number of Cartesian functions: 1050
    Spherical Harmonics?: true
    Max angular momentum: 3

  ==> Pre-Iterations <==

   -------------------------------------------------------
    Irrep   Nso     Nmo     Nalpha   Nbeta   Ndocc  Nsocc
   -------------------------------------------------------
     A        920     920       0       0       0       0
   -------------------------------------------------------
    Total     920     920      20      20      20       0
   -------------------------------------------------------

 OEINTS: Wrapper to libmints.
   by Justin Turney

   Calculation information:
      Number of atoms:                  30
      Number of AO shells:             320
      Number of SO shells:             320
      Number of primitives:            520
      Number of atomic orbitals:      1050
      Number of basis functions:       920

      Number of irreps:                  1
      Number of functions per irrep: [ 920 ]

      Overlap, kinetic, potential, dipole, and quadrupole integrals
        stored in file 35.

  ==> Integral Setup <==

  ==> DFJK: Density-Fitted J/K Matrices <==

    J tasked:                  Yes
    K tasked:                  Yes
    wK tasked:                  No
    OpenMP threads:              4
    Integrals threads:           4
    Memory (MB):             21457
    Algorithm:                Core
    Integral Cache:           LOAD
    Schwarz Cutoff:          0E+00
    Fitting Condition:       1E-12

   => Auxiliary Basis Set <=

  Basis Set: aug-cc-pvtz-jkfit
    Number of shells: 580
    Number of basis function: 1960
    Number of Cartesian functions: 2410
    Spherical Harmonics?: true
    Max angular momentum: 4

  Minimum eigenvalue in the overlap matrix is 4.2793050100E-07.
  Using Symmetric Orthogonalization.
  SCF Guess: Core (One-Electron) Hamiltonian.

  Guess energy:  -160.74940630169695

  ==> Iterations <==

                        Total Energy        Delta E     RMS |[F,P]|

   @RHF iter   1:  -140.61061417906635   -1.40611e+02   1.16566e-02 
   @RHF iter   2:  -116.42329168565706    2.41873e+01   5.92703e-03 DIIS
   @RHF iter   3:  -184.24593169440223   -6.78226e+01   4.78296e-03 DIIS
   @RHF iter   4:  -193.13544754136839   -8.88952e+00   1.95786e-03 DIIS
   @RHF iter   5:  -195.15591080079471   -2.02046e+00   3.33880e-04 DIIS
   @RHF iter   6:  -195.22704138390887   -7.11306e-02   6.74930e-05 DIIS
   @RHF iter   7:  -195.23000210583834   -2.96072e-03   1.74219e-05 DIIS
   @RHF iter   8:  -195.23024531795519   -2.43212e-04   6.27763e-06 DIIS
   @RHF iter   9:  -195.23027082163563   -2.55037e-05   1.85409e-06 DIIS
   @RHF iter  10:  -195.23027325157156   -2.42994e-06   1.99439e-07 DIIS
   @RHF iter  11:  -195.23027327533745   -2.37659e-08   8.37623e-08 DIIS
   @RHF iter  12:  -195.23027327826733   -2.92988e-09   2.90423e-08 DIIS
   @RHF iter  13:  -195.23027327870531   -4.37979e-10   2.11881e-09 DIIS

  ==> Post-Iterations <==

	Orbital Energies (a.u.)
	-----------------------

	Doubly Occupied:                                                      

	   1A    -11.210460     2A    -11.210072     3A    -11.210052  
	   4A    -11.209442     5A    -11.209303     6A     -1.116310  
	   7A     -0.956677     8A     -0.955835     9A     -0.776925  
	  10A     -0.767194    11A     -0.649699    12A     -0.644662  
	  13A     -0.569789    14A     -0.567932    15A     -0.475277  
	  16A     -0.474373    17A     -0.463470    18A     -0.460331  
	  19A     -0.459109    20A     -0.448716  

	Virtual:                                                              

	  21A      0.020308    22A      0.030842    23A      0.031031  
	  24A      0.031617    25A      0.044072    26A      0.044860  
	  27A      0.046090    28A      0.047754    29A      0.048322  
	  30A      0.063655    31A      0.066801    32A      0.067698  
	  33A      0.070630    34A      0.072494    35A      0.073901  
	  36A      0.082606    37A      0.083164    38A      0.093210  
	  39A      0.094336    40A      0.096952    41A      0.102313  
	  42A      0.103590    43A      0.109034    44A      0.119942  
	  45A      0.122042    46A      0.123114    47A      0.124237  
	  48A      0.125323    49A      0.128907    50A      0.136481  
	  51A      0.138337    52A      0.142845    53A      0.146358  
	  54A      0.149903    55A      0.154358    56A      0.158134  
	  57A      0.160285    58A      0.168084    59A      0.169540  
	  60A      0.172614    61A      0.173673    62A      0.175880  
	  63A      0.177906    64A      0.182137    65A      0.184352  
	  66A      0.185411    67A      0.187762    68A      0.190080  
	  69A      0.192687    70A      0.194518    71A      0.200999  
	  72A      0.203709    73A      0.206300    74A      0.219662  
	  75A      0.224352    76A      0.236230    77A      0.240246  
	  78A      0.248650    79A      0.251037    80A      0.252854  
	  81A      0.259904    82A      0.280111    83A      0.291554  
	  84A      0.298296    85A      0.299462    86A      0.302211  
	  87A      0.308741    88A      0.313362    89A      0.318177  
	  90A      0.323487    91A      0.326033    92A      0.331031  
	  93A      0.336101    94A      0.337558    95A      0.338931  
	  96A      0.340529    97A      0.344346    98A      0.347619  
	  99A      0.351385   100A      0.354729   101A      0.356399  
	 102A      0.360210   103A      0.362737   104A      0.365719  
	 105A      0.367307   106A      0.369325   107A      0.372551  
	 108A      0.376549   109A      0.383893   110A      0.386996  
	 111A      0.390392   112A      0.392614   113A      0.394819  
	 114A      0.399256   115A      0.401235   116A      0.402555  
	 117A      0.408522   118A      0.410572   119A      0.413315  
	 120A      0.420165   121A      0.422271   122A      0.424353  
	 123A      0.432581   124A      0.439854   125A      0.447773  
	 126A      0.449812   127A      0.457193   128A      0.462177  
	 129A      0.463636   130A      0.465390   131A      0.473326  
	 132A      0.475026   133A      0.480216   134A      0.484126  
	 135A      0.490259   136A      0.493267   137A      0.496471  
	 138A      0.497545   139A      0.499133   140A      0.507679  
	 141A      0.511939   142A      0.516045   143A      0.518719  
	 144A      0.523211   145A      0.528896   146A      0.532435  
	 147A      0.536048   148A      0.542606   149A      0.543210  
	 150A      0.545003   151A      0.556424   152A      0.558260  
	 153A      0.563462   154A      0.565323   155A      0.572462  
	 156A      0.578227   157A      0.579091   158A      0.583668  
	 159A      0.585337   160A      0.592453   161A      0.600439  
	 162A      0.604584   163A      0.608720   164A      0.612148  
	 165A      0.612634   166A      0.620301   167A      0.622543  
	 168A      0.625907   169A      0.629699   170A      0.634727  
	 171A      0.636717   172A      0.644535   173A      0.652473  
	 174A      0.654087   175A      0.660310   176A      0.661783  
	 177A      0.666114   178A      0.668641   179A      0.670364  
	 180A      0.677370   181A      0.678925   182A      0.683359  
	 183A      0.690212   184A      0.693837   185A      0.699647  
	 186A      0.702378   187A      0.703846   188A      0.705603  
	 189A      0.708456   190A      0.714327   191A      0.715214  
	 192A      0.725138   193A      0.726831   194A      0.730772  
	 195A      0.733160   196A      0.737796   197A      0.744349  
	 198A      0.747068   199A      0.755721   200A      0.760626  
	 201A      0.764539   202A      0.769979   203A      0.776435  
	 204A      0.782047   205A      0.787047   206A      0.790630  
	 207A      0.797944   208A      0.806368   209A      0.809034  
	 210A      0.811941   211A      0.818310   212A      0.823928  
	 213A      0.826402   214A      0.836725   215A      0.840106  
	 216A      0.840697   217A      0.848424   218A      0.851274  
	 219A      0.853489   220A      0.855997   221A      0.859069  
	 222A      0.861730   223A      0.865014   224A      0.877593  
	 225A      0.882892   226A      0.889753   227A      0.897155  
	 228A      0.897571   229A      0.907594   230A      0.910704  
	 231A      0.916708   232A      0.925717   233A      0.931750  
	 234A      0.936569   235A      0.939230   236A      0.946428  
	 237A      0.952646   238A      0.956411   239A      0.958896  
	 240A      0.964131   241A      0.971132   242A      0.972556  
	 243A      0.982225   244A      0.985692   245A      0.992526  
	 246A      0.997429   247A      1.007550   248A      1.017652  
	 249A      1.020436   250A      1.025467   251A      1.032441  
	 252A      1.033594   253A      1.041618   254A      1.048123  
	 255A      1.051825   256A      1.058833   257A      1.061054  
	 258A      1.064998   259A      1.072677   260A      1.082794  
	 261A      1.083961   262A      1.096886   263A      1.098835  
	 264A      1.101517   265A      1.114032   266A      1.121690  
	 267A      1.124864   268A      1.128336   269A      1.130902  
	 270A      1.139122   271A      1.144442   272A      1.149524  
	 273A      1.153468   274A      1.163526   275A      1.166870  
	 276A      1.173535   277A      1.177211   278A      1.179915  
	 279A      1.185913   280A      1.191372   281A      1.194328  
	 282A      1.199418   283A      1.204632   284A      1.209557  
	 285A      1.216124   286A      1.219606   287A      1.224486  
	 288A      1.228562   289A      1.232919   290A      1.239120  
	 291A      1.243317   292A      1.248323   293A      1.251579  
	 294A      1.254792   295A      1.265062   296A      1.274645  
	 297A      1.279689   298A      1.280131   299A      1.288732  
	 300A      1.292718   301A      1.295199   302A      1.295925  
	 303A      1.301852   304A      1.306707   305A      1.308244  
	 306A      1.318462   307A      1.324886   308A      1.331612  
	 309A      1.340744   310A      1.347269   311A      1.352969  
	 312A      1.355823   313A      1.359744   314A      1.362168  
	 315A      1.364871   316A      1.371494   317A      1.378924  
	 318A      1.380302   319A      1.388030   320A      1.393901  
	 321A      1.400069   322A      1.408638   323A      1.413730  
	 324A      1.418387   325A      1.419157   326A      1.426156  
	 327A      1.431608   328A      1.434209   329A      1.440397  
	 330A      1.444771   331A      1.450109   332A      1.455208  
	 333A      1.457770   334A      1.461087   335A      1.467957  
	 336A      1.473720   337A      1.483609   338A      1.490488  
	 339A      1.494938   340A      1.496252   341A      1.504165  
	 342A      1.512553   343A      1.520777   344A      1.525603  
	 345A      1.535488   346A      1.539964   347A      1.544628  
	 348A      1.545846   349A      1.550559   350A      1.557604  
	 351A      1.563857   352A      1.574731   353A      1.578608  
	 354A      1.587897   355A      1.592749   356A      1.598194  
	 357A      1.599805   358A      1.606769   359A      1.609796  
	 360A      1.618517   361A      1.623343   362A      1.627661  
	 363A      1.638350   364A      1.642072   365A      1.644923  
	 366A      1.645825   367A      1.653101   368A      1.661409  
	 369A      1.663136   370A      1.666296   371A      1.670705  
	 372A      1.675770   373A      1.688183   374A      1.691644  
	 375A      1.700857   376A      1.703350   377A      1.707059  
	 378A      1.714903   379A      1.717770   380A      1.723150  
	 381A      1.725942   382A      1.733094   383A      1.746333  
	 384A      1.750518   385A      1.754359   386A      1.766038  
	 387A      1.770616   388A      1.773784   389A      1.778837  
	 390A      1.782110   391A      1.789394   392A      1.791643  
	 393A      1.800696   394A      1.804975   395A      1.812567  
	 396A      1.816392   397A      1.820883   398A      1.831490  
	 399A      1.832601   400A      1.844029   401A      1.850504  
	 402A      1.856577   403A      1.865080   404A      1.870081  
	 405A      1.876856   406A      1.881333   407A      1.886470  
	 408A      1.897278   409A      1.903121   410A      1.908566  
	 411A      1.914089   412A      1.923548   413A      1.924952  
	 414A      1.934932   415A      1.947460   416A      1.948835  
	 417A      1.955538   418A      1.959877   419A      1.963048  
	 420A      1.972144   421A      1.976368   422A      1.982190  
	 423A      1.987987   424A      1.989388   425A      1.998840  
	 426A      2.006275   427A      2.012258   428A      2.018338  
	 429A      2.023049   430A      2.031359   431A      2.037663  
	 432A      2.049634   433A      2.054286   434A      2.060368  
	 435A      2.071275   436A      2.077357   437A      2.081511  
	 438A      2.089688   439A      2.093420   440A      2.097694  
	 441A      2.111088   442A      2.113677   443A      2.117014  
	 444A      2.123633   445A      2.127992   446A      2.135735  
	 447A      2.138583   448A      2.148039   449A      2.150601  
	 450A      2.156225   451A      2.167332   452A      2.175440  
	 453A      2.186057   454A      2.188238   455A      2.200695  
	 456A      2.207258   457A      2.219215   458A      2.223285  
	 459A      2.234696   460A      2.238974   461A      2.245687  
	 462A      2.252471   463A      2.265737   464A      2.267978  
	 465A      2.275594   466A      2.280654   467A      2.286534  
	 468A      2.293378   469A      2.302900   470A      2.307491  
	 471A      2.309360   472A      2.322306   473A      2.326587  
	 474A      2.335096   475A      2.343979   476A      2.346554  
	 477A      2.353829   478A      2.365257   479A      2.371613  
	 480A      2.385406   481A      2.387932   482A      2.393089  
	 483A      2.412583   484A      2.421934   485A      2.424528  
	 486A      2.433044   487A      2.439619   488A      2.446106  
	 489A      2.450372   490A      2.459950   491A      2.463519  
	 492A      2.471427   493A      2.478063   494A      2.485413  
	 495A      2.490299   496A      2.500646   497A      2.505780  
	 498A      2.515892   499A      2.524234   500A      2.534625  
	 501A      2.546470   502A      2.549403   503A      2.554169  
	 504A      2.565066   505A      2.568809   506A      2.580717  
	 507A      2.584990   508A      2.591558   509A      2.595185  
	 510A      2.607125   511A      2.610589   512A      2.624670  
	 513A      2.627418   514A      2.638185   515A      2.652848  
	 516A      2.661498   517A      2.684153   518A      2.688952  
	 519A      2.693214   520A      2.704107   521A      2.713247  
	 522A      2.718194   523A      2.724184   524A      2.730314  
	 525A      2.736240   526A      2.753698   527A      2.756656  
	 528A      2.767982   529A      2.789045   530A      2.793659  
	 531A      2.805162   532A      2.820730   533A      2.828732  
	 534A      2.838495   535A      2.854824   536A      2.865121  
	 537A      2.876540   538A      2.879951   539A      2.892454  
	 540A      2.913000   541A      2.914505   542A      2.922071  
	 543A      2.929825   544A      2.953793   545A      2.958026  
	 546A      2.972098   547A      2.988020   548A      2.995613  
	 549A      3.001972   550A      3.014398   551A      3.022637  
	 552A      3.040312   553A      3.049619   554A      3.056079  
	 555A      3.083576   556A      3.088868   557A      3.110172  
	 558A      3.120911   559A      3.148591   560A      3.166255  
	 561A      3.185010   562A      3.194949   563A      3.213377  
	 564A      3.226425   565A      3.246444   566A      3.263559  
	 567A      3.296427   568A      3.342296   569A      3.365098  
	 570A      3.435810   571A      3.444458   572A      3.473747  
	 573A      3.480670   574A      3.497522   575A      3.518157  
	 576A      3.528110   577A      3.545879   578A      3.581370  
	 579A      3.590199   580A      3.612877   581A      3.653510  
	 582A      3.671260   583A      3.683188   584A      3.706696  
	 585A      3.723443   586A      3.740081   587A      3.758990  
	 588A      3.774979   589A      3.796536   590A      3.811440  
	 591A      3.820424   592A      3.838911   593A      3.854535  
	 594A      3.876847   595A      3.902356   596A      3.917538  
	 597A      3.923663   598A      3.929224   599A      3.942167  
	 600A      3.949383   601A      3.955149   602A      3.966686  
	 603A      3.973955   604A      3.981723   605A      4.015909  
	 606A      4.021346   607A      4.030844   608A      4.048383  
	 609A      4.058539   610A      4.067729   611A      4.080244  
	 612A      4.087900   613A      4.101910   614A      4.111349  
	 615A      4.113962   616A      4.128677   617A      4.139417  
	 618A      4.139523   619A      4.157098   620A      4.167431  
	 621A      4.175035   622A      4.183110   623A      4.187071  
	 624A      4.198365   625A      4.208016   626A      4.214006  
	 627A      4.237072   628A      4.241655   629A      4.254434  
	 630A      4.263586   631A      4.273379   632A      4.287474  
	 633A      4.296080   634A      4.308347   635A      4.311324  
	 636A      4.317312   637A      4.323617   638A      4.326079  
	 639A      4.342860   640A      4.343993   641A      4.355641  
	 642A      4.367944   643A      4.379013   644A      4.391616  
	 645A      4.397341   646A      4.399793   647A      4.411554  
	 648A      4.424002   649A      4.429610   650A      4.435878  
	 651A      4.451163   652A      4.454203   653A      4.461403  
	 654A      4.468334   655A      4.476552   656A      4.490726  
	 657A      4.494831   658A      4.499680   659A      4.510810  
	 660A      4.516307   661A      4.536735   662A      4.539807  
	 663A      4.547512   664A      4.553442   665A      4.560549  
	 666A      4.570093   667A      4.574268   668A      4.590877  
	 669A      4.593976   670A      4.606656   671A      4.615999  
	 672A      4.629954   673A      4.639165   674A      4.644146  
	 675A      4.664863   676A      4.673496   677A      4.677508  
	 678A      4.688141   679A      4.696025   680A      4.717528  
	 681A      4.733835   682A      4.738626   683A      4.739403  
	 684A      4.754852   685A      4.766138   686A      4.774937  
	 687A      4.783124   688A      4.788290   689A      4.796901  
	 690A      4.824198   691A      4.825996   692A      4.827880  
	 693A      4.849932   694A      4.855553   695A      4.864353  
	 696A      4.874296   697A      4.877015   698A      4.890821  
	 699A      4.897999   700A      4.901790   701A      4.905687  
	 702A      4.916093   703A      4.934456   704A      4.941318  
	 705A      4.952695   706A      4.956754   707A      4.963231  
	 708A      4.972721   709A      4.984123   710A      4.991941  
	 711A      4.999208   712A      5.011996   713A      5.016678  
	 714A      5.033589   715A      5.039951   716A      5.041483  
	 717A      5.049067   718A      5.056667   719A      5.068270  
	 720A      5.070328   721A      5.079919   722A      5.087437  
	 723A      5.090240   724A      5.105568   725A      5.118749  
	 726A      5.130579   727A      5.135441   728A      5.138576  
	 729A      5.147772   730A      5.161856   731A      5.166612  
	 732A      5.183564   733A      5.189205   734A      5.195951  
	 735A      5.204716   736A      5.220155   737A      5.225224  
	 738A      5.231871   739A      5.238122   740A      5.241197  
	 741A      5.261146   742A      5.278395   743A      5.284060  
	 744A      5.302466   745A      5.310059   746A      5.322104  
	 747A      5.326918   748A      5.334207   749A      5.339695  
	 750A      5.365517   751A      5.371880   752A      5.378184  
	 753A      5.383155   754A      5.391221   755A      5.406066  
	 756A      5.423079   757A      5.432579   758A      5.434497  
	 759A      5.449497   760A      5.454880   761A      5.470353  
	 762A      5.476587   763A      5.489622   764A      5.496093  
	 765A      5.512264   766A      5.518939   767A      5.525660  
	 768A      5.527533   769A      5.536992   770A      5.558213  
	 771A      5.566615   772A      5.571271   773A      5.581316  
	 774A      5.600011   775A      5.611012   776A      5.620243  
	 777A      5.623774   778A      5.629452   779A      5.636075  
	 780A      5.650120   781A      5.656060   782A      5.663882  
	 783A      5.681827   784A      5.689431   785A      5.696409  
	 786A      5.699937   787A      5.704192   788A      5.719963  
	 789A      5.734440   790A      5.739265   791A      5.747270  
	 792A      5.757857   793A      5.762164   794A      5.778202  
	 795A      5.790976   796A      5.795548   797A      5.800544  
	 798A      5.823065   799A      5.828757   800A      5.847778  
	 801A      5.852329   802A      5.866264   803A      5.871785  
	 804A      5.883002   805A      5.885427   806A      5.904261  
	 807A      5.919094   808A      5.923221   809A      5.938114  
	 810A      5.946729   811A      5.963980   812A      5.979911  
	 813A      5.982615   814A      5.996048   815A      6.013651  
	 816A      6.015300   817A      6.027937   818A      6.038878  
	 819A      6.044650   820A      6.053045   821A      6.070749  
	 822A      6.082373   823A      6.097606   824A      6.106648  
	 825A      6.119584   826A      6.142743   827A      6.163049  
	 828A      6.169135   829A      6.188336   830A      6.199537  
	 831A      6.211082   832A      6.225907   833A      6.242283  
	 834A      6.257679   835A      6.266481   836A      6.283399  
	 837A      6.288707   838A      6.304847   839A      6.326522  
	 840A      6.330015   841A      6.338717   842A      6.361097  
	 843A      6.381795   844A      6.408779   845A      6.425494  
	 846A      6.434197   847A      6.456380   848A      6.476803  
	 849A      6.502310   850A      6.516612   851A      6.530472  
	 852A      6.537674   853A      6.569711   854A      6.590459  
	 855A      6.617212   856A      6.657078   857A      6.688274  
	 858A      6.706999   859A      6.731157   860A      6.736553  
	 861A      6.774896   862A      6.833773   863A      6.873715  
	 864A      6.910955   865A      6.937178   866A      6.970074  
	 867A      7.013462   868A      7.047653   869A      7.086503  
	 870A      7.148401   871A      7.179464   872A      7.205614  
	 873A      7.260020   874A      7.295412   875A      7.310402  
	 876A      7.331619   877A      7.477974   878A      7.493078  
	 879A      7.502981   880A      7.546557   881A      7.619024  
	 882A      7.634899   883A      7.689007   884A      7.759223  
	 885A      7.810486   886A      7.823103   887A      7.970948  
	 888A      8.005746   889A      8.079610   890A      8.084913  
	 891A      8.122870   892A      8.140629   893A      8.194135  
	 894A      8.204508   895A      8.304289   896A      8.629574  
	 897A      8.708075   898A      8.750752   899A      8.811131  
	 900A      8.835823   901A      9.179854   902A      9.272476  
	 903A      9.354373   904A      9.507492   905A      9.831117  
	 906A     10.751434   907A     10.875434   908A     11.002106  
	 909A     11.129230   910A     11.354225   911A     18.658794  
	 912A     19.258635   913A     19.794755   914A     20.205408  
	 915A     20.899556   916A     54.545409   917A     55.843169  
	 918A     56.880796   919A     57.653500   920A     58.914960  

	Final Occupation by Irrep:
	          A 
	DOCC [    20 ]

  Energy converged.

  @RHF Final Energy:  -195.23027327870531

   => Energetics <=

    Nuclear Repulsion Energy =            188.3835882173397351
    One-Electron Energy =                -635.5564629372528316
    Two-Electron Energy =                 251.9426014412098027
    DFT Exchange-Correlation Energy =       0.0000000000000000
    Empirical Dispersion Energy =           0.0000000000000000
    Total Energy =                       -195.2302732787033221



Properties will be evaluated at   0.000000,   0.000000,   0.000000 Bohr
  ==> Properties <==


Properties computed using the SCF density density matrix
  Nuclear Dipole Moment: (a.u.)
     X:    -2.6859      Y:    -5.5615      Z:  -126.0952

  Electronic Dipole Moment: (a.u.)
     X:     2.6798      Y:     5.5622      Z:   126.0932

  Dipole Moment: (a.u.)
     X:    -0.0062      Y:     0.0008      Z:    -0.0020     Total:     0.0065

  Dipole Moment: (Debye)
     X:    -0.0157      Y:     0.0019      Z:    -0.0051     Total:     0.0166


  Saving occupied orbitals to File 180.

  Saving SAPT 2-MONOMER_A file.

*** tstop() called on node31.bme.utexas.edu at Thu Mar 13 16:19:17 2014
Module time:
	user time   =    1818.37 seconds =      30.31 minutes
	system time =      22.43 seconds =       0.37 minutes
	total time  =       1008 seconds =      16.80 minutes
Total time:
	user time   =    4679.52 seconds =      77.99 minutes
	system time =      77.01 seconds =       1.28 minutes
	total time  =       2152 seconds =      35.87 minutes

  //>>>>>>>>>>>>>>>>>>>>>>>>>>>>>>>>>>>//
  //            Monomer B HF           //
  //<<<<<<<<<<<<<<<<<<<<<<<<<<<<<<<<<<<//


  No DF_BASIS_SCF auxiliary basis selected, defaulting to aug-cc-pvtz-jkfit


*** tstart() called on node31.bme.utexas.edu
*** at Thu Mar 13 16:19:17 2014


         ---------------------------------------------------------
                                   SCF
            by Justin Turney, Rob Parrish, and Andy Simmonett
                              RHF Reference
                        4 Threads,  30000 MiB Core
         ---------------------------------------------------------

  ==> Geometry <==

    Molecular point group: c1
    Full point group: C1

    Geometry (in Angstrom), charge = 0, multiplicity = 1:

       Center              X                  Y                   Z       
    ------------   -----------------  -----------------  -----------------
           C(Gh)      0.967854742086    -0.873387737080    -1.491409829988
           H(Gh)      1.515540525086    -1.259899728080    -2.349939645988
           H(Gh)      1.432359030086    -1.296320037080    -0.602334377988
           C(Gh)      1.001923986086     0.676966195920    -1.487855989988
           H(Gh)      1.521569013086     1.041554358920    -2.373411951988
           H(Gh)      1.527232786086     1.078276027920    -0.622822809988
           C(Gh)     -0.468477383914     1.120776689920    -1.529480732988
           H(Gh)     -0.605294053914     2.083335114920    -2.019792467988
           H(Gh)     -0.863767673914     1.207529340920    -0.515290239988
           C(Gh)     -1.171131943914    -0.034338658080    -2.240014080988
           H(Gh)     -0.937907601914    -0.008372406080    -3.307164426988
           H(Gh)     -2.254689965914    -0.015106841080    -2.132085808988
           C(Gh)     -0.519685021914    -1.256431642080    -1.594050240988
           H(Gh)     -0.679416054914    -2.178563031080    -2.150367620988
           H(Gh)     -0.939874829914    -1.396954076080    -0.596612010988
           C         -1.140488118914    -0.404613522080     1.533309731012
           H         -1.473622616914    -0.167914907080     0.520725368012
           H         -1.945276518914    -0.947711985080     2.026296234012
           C          0.173118332086    -1.200158435080     1.485548533012
           H          0.223063273086    -1.857901125080     0.619414711012
           H          0.253405952086    -1.831516066080     2.369933825012
           C          1.302433554086    -0.137452609080     1.486144627012
           H          1.923698509086    -0.198131458080     0.594271008012
           H          1.959843046086    -0.287335651080     2.341549797012
           C          0.592260185086     1.224216139920     1.594011460012
           H          0.412397009086     1.632707924920     0.598012336012
           H          1.172644142086     1.958619640920     2.149984728012
           C         -0.749792275914     0.889743699920     2.243823320012
           H         -1.489460840914     1.682255468920     2.138942019012
           H         -0.609752346914     0.698103650920     3.310372279012

  Running in c1 symmetry.

  Nuclear repulsion =  188.378652495442651

  Charge       = 0
  Multiplicity = 1
  Electrons    = 40
  Nalpha       = 20
  Nbeta        = 20

  ==> Algorithm <==

  SCF Algorithm Type is DF.
  DIIS enabled.
  MOM disabled.
  Fractional occupation disabled.
  Guess Type is CORE.
  Energy threshold   = 1.00e-08
  Density threshold  = 1.00e-08
  Integral threshold = 0.00e+00

  ==> Primary Basis <==

  Basis Set: AUG-CC-PVTZ
    Number of shells: 320
    Number of basis function: 920
    Number of Cartesian functions: 1050
    Spherical Harmonics?: true
    Max angular momentum: 3

  ==> Pre-Iterations <==

   -------------------------------------------------------
    Irrep   Nso     Nmo     Nalpha   Nbeta   Ndocc  Nsocc
   -------------------------------------------------------
     A        920     920       0       0       0       0
   -------------------------------------------------------
    Total     920     920      20      20      20       0
   -------------------------------------------------------

 OEINTS: Wrapper to libmints.
   by Justin Turney

   Calculation information:
      Number of atoms:                  30
      Number of AO shells:             320
      Number of SO shells:             320
      Number of primitives:            520
      Number of atomic orbitals:      1050
      Number of basis functions:       920

      Number of irreps:                  1
      Number of functions per irrep: [ 920 ]

      Overlap, kinetic, potential, dipole, and quadrupole integrals
        stored in file 35.

  ==> Integral Setup <==

  ==> DFJK: Density-Fitted J/K Matrices <==

    J tasked:                  Yes
    K tasked:                  Yes
    wK tasked:                  No
    OpenMP threads:              4
    Integrals threads:           4
    Memory (MB):             21457
    Algorithm:                Core
    Integral Cache:           LOAD
    Schwarz Cutoff:          0E+00
    Fitting Condition:       1E-12

   => Auxiliary Basis Set <=

  Basis Set: aug-cc-pvtz-jkfit
    Number of shells: 580
    Number of basis function: 1960
    Number of Cartesian functions: 2410
    Spherical Harmonics?: true
    Max angular momentum: 4

  Minimum eigenvalue in the overlap matrix is 4.2793050100E-07.
  Using Symmetric Orthogonalization.
  SCF Guess: Core (One-Electron) Hamiltonian.

  Guess energy:  -160.74867936541060

  ==> Iterations <==

                        Total Energy        Delta E     RMS |[F,P]|

   @RHF iter   1:  -140.61088155063831   -1.40611e+02   1.16566e-02 
   @RHF iter   2:  -116.42261339350929    2.41883e+01   5.92681e-03 DIIS
   @RHF iter   3:  -184.24620845971052   -6.78236e+01   4.78280e-03 DIIS
   @RHF iter   4:  -193.13534749159194   -8.88914e+00   1.95789e-03 DIIS
   @RHF iter   5:  -195.15591934748451   -2.02057e+00   3.33854e-04 DIIS
   @RHF iter   6:  -195.22704742365320   -7.11281e-02   6.74755e-05 DIIS
   @RHF iter   7:  -195.23000778200449   -2.96036e-03   1.74000e-05 DIIS
   @RHF iter   8:  -195.23025074783382   -2.42966e-04   6.26761e-06 DIIS
   @RHF iter   9:  -195.23027616558252   -2.54177e-05   1.85271e-06 DIIS
   @RHF iter  10:  -195.23027859064669   -2.42506e-06   1.99336e-07 DIIS
   @RHF iter  11:  -195.23027861441452   -2.37678e-08   8.35691e-08 DIIS
   @RHF iter  12:  -195.23027861732672   -2.91220e-09   2.89837e-08 DIIS
   @RHF iter  13:  -195.23027861776265   -4.35932e-10   2.11966e-09 DIIS

  ==> Post-Iterations <==

	Orbital Energies (a.u.)
	-----------------------

	Doubly Occupied:                                                      

	   1A    -11.210457     2A    -11.210070     3A    -11.210048  
	   4A    -11.209439     5A    -11.209301     6A     -1.116281  
	   7A     -0.956687     8A     -0.955848     9A     -0.776894  
	  10A     -0.767202    11A     -0.649703    12A     -0.644640  
	  13A     -0.569797    14A     -0.567947    15A     -0.475249  
	  16A     -0.474345    17A     -0.463483    18A     -0.460300  
	  19A     -0.459142    20A     -0.448718  

	Virtual:                                                              

	  21A      0.020307    22A      0.030842    23A      0.031033  
	  24A      0.031616    25A      0.044072    26A      0.044861  
	  27A      0.046090    28A      0.047755    29A      0.048321  
	  30A      0.063655    31A      0.066801    32A      0.067698  
	  33A      0.070624    34A      0.072494    35A      0.073903  
	  36A      0.082605    37A      0.083165    38A      0.093212  
	  39A      0.094335    40A      0.096950    41A      0.102306  
	  42A      0.103596    43A      0.109043    44A      0.119944  
	  45A      0.122041    46A      0.123113    47A      0.124238  
	  48A      0.125322    49A      0.128906    50A      0.136475  
	  51A      0.138343    52A      0.142840    53A      0.146357  
	  54A      0.149895    55A      0.154357    56A      0.158136  
	  57A      0.160281    58A      0.168087    59A      0.169543  
	  60A      0.172613    61A      0.173678    62A      0.175884  
	  63A      0.177914    64A      0.182137    65A      0.184356  
	  66A      0.185404    67A      0.187755    68A      0.190081  
	  69A      0.192682    70A      0.194511    71A      0.201004  
	  72A      0.203720    73A      0.206291    74A      0.219654  
	  75A      0.224352    76A      0.236240    77A      0.240230  
	  78A      0.248649    79A      0.251043    80A      0.252862  
	  81A      0.259907    82A      0.280113    83A      0.291537  
	  84A      0.298306    85A      0.299471    86A      0.302187  
	  87A      0.308717    88A      0.313357    89A      0.318183  
	  90A      0.323482    91A      0.326033    92A      0.331036  
	  93A      0.336091    94A      0.337549    95A      0.338933  
	  96A      0.340541    97A      0.344360    98A      0.347611  
	  99A      0.351400   100A      0.354714   101A      0.356392  
	 102A      0.360225   103A      0.362735   104A      0.365713  
	 105A      0.367310   106A      0.369319   107A      0.372536  
	 108A      0.376557   109A      0.383897   110A      0.387005  
	 111A      0.390394   112A      0.392611   113A      0.394812  
	 114A      0.399252   115A      0.401222   116A      0.402573  
	 117A      0.408534   118A      0.410586   119A      0.413328  
	 120A      0.420161   121A      0.422272   122A      0.424363  
	 123A      0.432577   124A      0.439834   125A      0.447774  
	 126A      0.449810   127A      0.457188   128A      0.462188  
	 129A      0.463614   130A      0.465414   131A      0.473341  
	 132A      0.475047   133A      0.480210   134A      0.484125  
	 135A      0.490267   136A      0.493263   137A      0.496461  
	 138A      0.497563   139A      0.499121   140A      0.507695  
	 141A      0.511914   142A      0.516049   143A      0.518747  
	 144A      0.523222   145A      0.528899   146A      0.532415  
	 147A      0.536022   148A      0.542611   149A      0.543215  
	 150A      0.544991   151A      0.556448   152A      0.558295  
	 153A      0.563435   154A      0.565343   155A      0.572463  
	 156A      0.578232   157A      0.579103   158A      0.583690  
	 159A      0.585339   160A      0.592449   161A      0.600405  
	 162A      0.604559   163A      0.608721   164A      0.612169  
	 165A      0.612614   166A      0.620269   167A      0.622570  
	 168A      0.625881   169A      0.629709   170A      0.634743  
	 171A      0.636708   172A      0.644516   173A      0.652470  
	 174A      0.654109   175A      0.660304   176A      0.661808  
	 177A      0.666077   178A      0.668634   179A      0.670355  
	 180A      0.677380   181A      0.678917   182A      0.683351  
	 183A      0.690199   184A      0.693801   185A      0.699708  
	 186A      0.702348   187A      0.703820   188A      0.705619  
	 189A      0.708447   190A      0.714372   191A      0.715206  
	 192A      0.725143   193A      0.726801   194A      0.730751  
	 195A      0.733159   196A      0.737797   197A      0.744344  
	 198A      0.747089   199A      0.755754   200A      0.760641  
	 201A      0.764548   202A      0.769993   203A      0.776426  
	 204A      0.782034   205A      0.787094   206A      0.790658  
	 207A      0.797936   208A      0.806348   209A      0.809034  
	 210A      0.811965   211A      0.818308   212A      0.823894  
	 213A      0.826422   214A      0.836766   215A      0.840076  
	 216A      0.840644   217A      0.848392   218A      0.851190  
	 219A      0.853433   220A      0.855978   221A      0.859093  
	 222A      0.861806   223A      0.864995   224A      0.877621  
	 225A      0.882856   226A      0.889816   227A      0.897139  
	 228A      0.897586   229A      0.907645   230A      0.910659  
	 231A      0.916753   232A      0.925725   233A      0.931736  
	 234A      0.936564   235A      0.939226   236A      0.946443  
	 237A      0.952702   238A      0.956436   239A      0.958886  
	 240A      0.964128   241A      0.971110   242A      0.972580  
	 243A      0.982253   244A      0.985715   245A      0.992498  
	 246A      0.997478   247A      1.007584   248A      1.017625  
	 249A      1.020471   250A      1.025405   251A      1.032447  
	 252A      1.033556   253A      1.041623   254A      1.048093  
	 255A      1.051847   256A      1.058791   257A      1.061068  
	 258A      1.065008   259A      1.072640   260A      1.082799  
	 261A      1.083928   262A      1.096881   263A      1.098837  
	 264A      1.101500   265A      1.113986   266A      1.121692  
	 267A      1.124821   268A      1.128330   269A      1.130953  
	 270A      1.139186   271A      1.144508   272A      1.149505  
	 273A      1.153498   274A      1.163511   275A      1.166838  
	 276A      1.173544   277A      1.177197   278A      1.179951  
	 279A      1.185804   280A      1.191376   281A      1.194279  
	 282A      1.199405   283A      1.204628   284A      1.209537  
	 285A      1.216103   286A      1.219623   287A      1.224435  
	 288A      1.228580   289A      1.232971   290A      1.239127  
	 291A      1.243353   292A      1.248321   293A      1.251562  
	 294A      1.254756   295A      1.264969   296A      1.274686  
	 297A      1.279715   298A      1.280106   299A      1.288797  
	 300A      1.292677   301A      1.295142   302A      1.295941  
	 303A      1.301818   304A      1.306725   305A      1.308189  
	 306A      1.318487   307A      1.324827   308A      1.331625  
	 309A      1.340758   310A      1.347299   311A      1.352973  
	 312A      1.355884   313A      1.359709   314A      1.362141  
	 315A      1.364876   316A      1.371588   317A      1.378924  
	 318A      1.380246   319A      1.388026   320A      1.394056  
	 321A      1.400028   322A      1.408685   323A      1.413730  
	 324A      1.418349   325A      1.419251   326A      1.426165  
	 327A      1.431612   328A      1.434168   329A      1.440312  
	 330A      1.444770   331A      1.450089   332A      1.455181  
	 333A      1.457769   334A      1.461064   335A      1.467943  
	 336A      1.473786   337A      1.483632   338A      1.490469  
	 339A      1.494954   340A      1.496296   341A      1.504104  
	 342A      1.512489   343A      1.520742   344A      1.525533  
	 345A      1.535436   346A      1.539963   347A      1.544648  
	 348A      1.545879   349A      1.550601   350A      1.557567  
	 351A      1.563844   352A      1.574774   353A      1.578598  
	 354A      1.587910   355A      1.592706   356A      1.598199  
	 357A      1.599755   358A      1.606846   359A      1.609734  
	 360A      1.618543   361A      1.623359   362A      1.627671  
	 363A      1.638426   364A      1.642084   365A      1.645121  
	 366A      1.645879   367A      1.653177   368A      1.661401  
	 369A      1.663150   370A      1.666217   371A      1.670702  
	 372A      1.675771   373A      1.688190   374A      1.691655  
	 375A      1.700909   376A      1.703319   377A      1.707015  
	 378A      1.714947   379A      1.717847   380A      1.723148  
	 381A      1.725921   382A      1.733149   383A      1.746319  
	 384A      1.750514   385A      1.754334   386A      1.765985  
	 387A      1.770585   388A      1.773770   389A      1.778871  
	 390A      1.782142   391A      1.789411   392A      1.791633  
	 393A      1.800818   394A      1.804989   395A      1.812575  
	 396A      1.816346   397A      1.820820   398A      1.831551  
	 399A      1.832564   400A      1.843936   401A      1.850461  
	 402A      1.856561   403A      1.865005   404A      1.870003  
	 405A      1.876874   406A      1.881326   407A      1.886495  
	 408A      1.897278   409A      1.903078   410A      1.908514  
	 411A      1.914176   412A      1.923568   413A      1.925098  
	 414A      1.934979   415A      1.947582   416A      1.948748  
	 417A      1.955467   418A      1.959870   419A      1.962987  
	 420A      1.972147   421A      1.976353   422A      1.982109  
	 423A      1.987882   424A      1.989364   425A      1.998791  
	 426A      2.006157   427A      2.012302   428A      2.018321  
	 429A      2.022981   430A      2.031396   431A      2.037704  
	 432A      2.049636   433A      2.054289   434A      2.060310  
	 435A      2.071244   436A      2.077379   437A      2.081581  
	 438A      2.089689   439A      2.093381   440A      2.097704  
	 441A      2.111105   442A      2.113792   443A      2.117111  
	 444A      2.123670   445A      2.128023   446A      2.135743  
	 447A      2.138664   448A      2.147991   449A      2.150596  
	 450A      2.156266   451A      2.167237   452A      2.175356  
	 453A      2.186100   454A      2.188423   455A      2.200665  
	 456A      2.207304   457A      2.219005   458A      2.223238  
	 459A      2.234610   460A      2.238989   461A      2.245752  
	 462A      2.252557   463A      2.265730   464A      2.267983  
	 465A      2.275649   466A      2.280735   467A      2.286564  
	 468A      2.293360   469A      2.302861   470A      2.307412  
	 471A      2.309285   472A      2.322379   473A      2.326583  
	 474A      2.335059   475A      2.344058   476A      2.346726  
	 477A      2.353938   478A      2.365241   479A      2.371679  
	 480A      2.385408   481A      2.387911   482A      2.393175  
	 483A      2.412663   484A      2.421910   485A      2.424523  
	 486A      2.433208   487A      2.439670   488A      2.446028  
	 489A      2.450293   490A      2.459963   491A      2.463380  
	 492A      2.471339   493A      2.478082   494A      2.485361  
	 495A      2.490217   496A      2.500549   497A      2.505658  
	 498A      2.515782   499A      2.524346   500A      2.534715  
	 501A      2.546444   502A      2.549468   503A      2.554223  
	 504A      2.565008   505A      2.568754   506A      2.580753  
	 507A      2.585044   508A      2.591590   509A      2.595247  
	 510A      2.607128   511A      2.610463   512A      2.624527  
	 513A      2.627316   514A      2.638251   515A      2.652805  
	 516A      2.661496   517A      2.684091   518A      2.688937  
	 519A      2.693190   520A      2.704142   521A      2.713181  
	 522A      2.718232   523A      2.724142   524A      2.730305  
	 525A      2.736204   526A      2.753725   527A      2.756736  
	 528A      2.768135   529A      2.789004   530A      2.793635  
	 531A      2.805212   532A      2.820642   533A      2.828828  
	 534A      2.838473   535A      2.854698   536A      2.865164  
	 537A      2.876436   538A      2.879922   539A      2.892453  
	 540A      2.913011   541A      2.914486   542A      2.922150  
	 543A      2.929919   544A      2.953615   545A      2.958094  
	 546A      2.972072   547A      2.988312   548A      2.995745  
	 549A      3.001942   550A      3.014329   551A      3.022577  
	 552A      3.040243   553A      3.049822   554A      3.056058  
	 555A      3.083620   556A      3.088843   557A      3.110125  
	 558A      3.120888   559A      3.148551   560A      3.166395  
	 561A      3.185006   562A      3.195179   563A      3.213379  
	 564A      3.226465   565A      3.246386   566A      3.263565  
	 567A      3.296256   568A      3.342476   569A      3.364955  
	 570A      3.435784   571A      3.444411   572A      3.473656  
	 573A      3.480650   574A      3.497442   575A      3.518178  
	 576A      3.528086   577A      3.545874   578A      3.581312  
	 579A      3.590324   580A      3.612827   581A      3.653464  
	 582A      3.671133   583A      3.683119   584A      3.706641  
	 585A      3.723515   586A      3.740083   587A      3.758975  
	 588A      3.774820   589A      3.796467   590A      3.811376  
	 591A      3.820388   592A      3.839053   593A      3.854602  
	 594A      3.876726   595A      3.902419   596A      3.917630  
	 597A      3.923800   598A      3.929281   599A      3.942104  
	 600A      3.949385   601A      3.955065   602A      3.966655  
	 603A      3.973913   604A      3.981845   605A      4.016020  
	 606A      4.021364   607A      4.030839   608A      4.048375  
	 609A      4.058528   610A      4.067766   611A      4.080339  
	 612A      4.087953   613A      4.101887   614A      4.111309  
[...]
     444A      1.970838   445A      1.975286   446A      1.979209  
     447A      1.989544   448A      1.994761   449A      1.999878  
     450A      2.005992   451A      2.010593   452A      2.016734  
     453A      2.020419   454A      2.026021   455A      2.029684  
     456A      2.035969   457A      2.039167   458A      2.042684  
     459A      2.048778   460A      2.061218   461A      2.068090  
     462A      2.074499   463A      2.081613   464A      2.084750  
     465A      2.088747   466A      2.096342   467A      2.104434  
     468A      2.111957   469A      2.117920   470A      2.126243  
     471A      2.132395   472A      2.134156   473A      2.145753  
     474A      2.149215   475A      2.152449   476A      2.156697  
     477A      2.158426   478A      2.164157   479A      2.182996  
     480A      2.186179   481A      2.201355   482A      2.216552  
     483A      2.226246   484A      2.228803   485A      2.231131  
     486A      2.244119   487A      2.247962   488A      2.251302  
     489A      2.254367   490A      2.258265   491A      2.267916  
     492A      2.280731   493A      2.285391   494A      2.293504  
     495A      2.297161   496A      2.303578   497A      2.306602  
     498A      2.314519   499A      2.323592   500A      2.324687  
     501A      2.328739   502A      2.335350   503A      2.343841  
     504A      2.344815   505A      2.354869   506A      2.356785  
     507A      2.382806   508A      2.391952   509A      2.400953  
     510A      2.402088   511A      2.410543   512A      2.421878  
     513A      2.430114   514A      2.439183   515A      2.450891  
     516A      2.459331   517A      2.469039   518A      2.486747  
     519A      2.494774   520A      2.496162   521A      2.519573  
     522A      2.527024   523A      2.532544   524A      2.543993  
     525A      2.547815   526A      2.550616   527A      2.564732  
     528A      2.568221   529A      2.574413   530A      2.583855  
     531A      2.589489   532A      2.595040   533A      2.612919  
     534A      2.615889   535A      2.638386   536A      2.646470  
     537A      2.659738   538A      2.668808   539A      2.674054  
     540A      2.681907   541A      2.684068   542A      2.702730  
     543A      2.705542   544A      2.718873   545A      2.733033  
     546A      2.752638   547A      2.766945   548A      2.777929  
     549A      2.781027   550A      2.803823   551A      2.824002  
     552A      2.832402   553A      2.842020   554A      2.853097  
     555A      2.872925   556A      2.890430   557A      2.919561  
     558A      2.932057   559A      2.957711   560A      2.964954  
     561A      2.978312   562A      3.001208   563A      3.033318  
     564A      3.038820   565A      3.048192   566A      3.087188  
     567A      3.108411   568A      3.186493   569A      3.194103  
     570A      3.219419   571A      3.255578   572A      3.326755  
     573A      3.339840   574A      3.361531   575A      3.365473  
     576A      3.375992   577A      3.388671   578A      3.401991  
     579A      3.409381   580A      3.428276   581A      3.472687  
     582A      3.508119   583A      3.514001   584A      3.519511  
     585A      3.541093   586A      3.563678   587A      3.565447  
     588A      3.569665   589A      3.597072   590A      3.609942  
     591A      3.619727   592A      3.631073   593A      3.656966  
     594A      3.683872   595A      3.699722   596A      3.710209  
     597A      3.718940   598A      3.743394   599A      3.752782  
     600A      3.761085   601A      3.776644   602A      3.782526  
     603A      3.819200   604A      3.824345   605A      3.842212  
     606A      3.859793   607A      3.899093   608A      3.904398  
     609A      3.918510   610A      3.929567   611A      3.933410  
     612A      3.961070   613A      3.976725   614A      3.991806  
     615A      4.003222   616A      4.006769   617A      4.010405  
     618A      4.030113   619A      4.031983   620A      4.034033  
     621A      4.045992   622A      4.056235   623A      4.058077  
     624A      4.061573   625A      4.067228   626A      4.077177  
     627A      4.090258   628A      4.097571   629A      4.099943  
     630A      4.102596   631A      4.113219   632A      4.121261  
     633A      4.124232   634A      4.144266   635A      4.156214  
     636A      4.163241   637A      4.165738   638A      4.171874  
     639A      4.185278   640A      4.186459   641A      4.199704  
     642A      4.212774   643A      4.217334   644A      4.229511  
     645A      4.235913   646A      4.240826   647A      4.249141  
     648A      4.251172   649A      4.268293   650A      4.269992  
     651A      4.279292   652A      4.283672   653A      4.290228  
     654A      4.296557   655A      4.328173   656A      4.333759  
     657A      4.341570   658A      4.344763   659A      4.352708  
     660A      4.356880   661A      4.373751   662A      4.394347  
     663A      4.400917   664A      4.405095   665A      4.420242  
     666A      4.426536   667A      4.427713   668A      4.434519  
     669A      4.444084   670A      4.448076   671A      4.463460  
     672A      4.479288   673A      4.487164   674A      4.496070  
     675A      4.499430   676A      4.513350   677A      4.522454  
     678A      4.532865   679A      4.553270   680A      4.556419  
     681A      4.564976   682A      4.582942   683A      4.602181  
     684A      4.614910   685A      4.619463   686A      4.627526  
     687A      4.643933   688A      4.657417   689A      4.663173  
     690A      4.680003   691A      4.685076   692A      4.696600  
     693A      4.700740   694A      4.704528   695A      4.708154  
     696A      4.717103   697A      4.736652   698A      4.740797  
     699A      4.745973   700A      4.748036   701A      4.760922  
     702A      4.772650   703A      4.778993   704A      4.782210  
     705A      4.786526   706A      4.789929   707A      4.805908  
     708A      4.815814   709A      4.826343   710A      4.840562  
     711A      4.843315   712A      4.847193   713A      4.855215  
     714A      4.865487   715A      4.881368   716A      4.903856  
     717A      4.907144   718A      4.910623   719A      4.924697  
     720A      4.932830   721A      4.934538   722A      4.939039  
     723A      4.944473   724A      4.955992   725A      4.967939  
     726A      4.971154   727A      4.972691   728A      4.975813  
     729A      4.982871   730A      4.988492   731A      4.995857  
     732A      5.025823   733A      5.030227   734A      5.033708  
     735A      5.038606   736A      5.040109   737A      5.048380  
     738A      5.068209   739A      5.078354   740A      5.087098  
     741A      5.087697   742A      5.091571   743A      5.097879  
     744A      5.100094   745A      5.105141   746A      5.136011  
     747A      5.145983   748A      5.147964   749A      5.177946  
     750A      5.180646   751A      5.182740   752A      5.188447  
     753A      5.216233   754A      5.235255   755A      5.247104  
     756A      5.265580   757A      5.277407   758A      5.283457  
     759A      5.289801   760A      5.303087   761A      5.307420  
     762A      5.330863   763A      5.340217   764A      5.343058  
     765A      5.352491   766A      5.368229   767A      5.370066  
     768A      5.397993   769A      5.412085   770A      5.412358  
     771A      5.418881   772A      5.427774   773A      5.454932  
     774A      5.455140   775A      5.463692   776A      5.472307  
     777A      5.478243   778A      5.493768   779A      5.496339  
     780A      5.500945   781A      5.505729   782A      5.508489  
     783A      5.513083   784A      5.514193   785A      5.523817  
     786A      5.535503   787A      5.541750   788A      5.545969  
     789A      5.553172   790A      5.562728   791A      5.573153  
     792A      5.578539   793A      5.585273   794A      5.604412  
     795A      5.607900   796A      5.626973   797A      5.630691  
     798A      5.645202   799A      5.664305   800A      5.673011  
     801A      5.681230   802A      5.710354   803A      5.711834  
     804A      5.723684   805A      5.727735   806A      5.748346  
     807A      5.757306   808A      5.758701   809A      5.789970  
     810A      5.793482   811A      5.801819   812A      5.810396  
     813A      5.819660   814A      5.838073   815A      5.850065  
     816A      5.852769   817A      5.864832   818A      5.865686  
     819A      5.873855   820A      5.886284   821A      5.901066  
     822A      5.920031   823A      5.923809   824A      5.943631  
     825A      5.953318   826A      5.963161   827A      5.992409  
     828A      6.000477   829A      6.013740   830A      6.046623  
     831A      6.050605   832A      6.057140   833A      6.062900  
     834A      6.073929   835A      6.086686   836A      6.104991  
     837A      6.122403   838A      6.134324   839A      6.165916  
     840A      6.171174   841A      6.201287   842A      6.206113  
     843A      6.233464   844A      6.248579   845A      6.266701  
     846A      6.271244   847A      6.305210   848A      6.322265  
     849A      6.340525   850A      6.346963   851A      6.365815  
     852A      6.368103   853A      6.422812   854A      6.438401  
     855A      6.443904   856A      6.452604   857A      6.498137  
     858A      6.518990   859A      6.597902   860A      6.624880  
     861A      6.629816   862A      6.658101   863A      6.668056  
     864A      6.706954   865A      6.752591   866A      6.846562  
     867A      6.848157   868A      6.883809   869A      6.897208  
     870A      6.908615   871A      6.960413   872A      6.971065  
     873A      7.017273   874A      7.033898   875A      7.052984  
     876A      7.149311   877A      7.185829   878A      7.233496  
     879A      7.301862   880A      7.346971   881A      7.376974  
     882A      7.404094   883A      7.520348   884A      7.532369  
     885A      7.628793   886A      7.636736   887A      7.761178  
     888A      7.829270   889A      7.897141   890A      7.920504  
     891A      7.928422   892A      7.951102   893A      7.980608  
     894A      8.003528   895A      8.077461   896A      8.376432  
     897A      8.424575   898A      8.489793   899A      8.508331  
     900A      8.512645   901A      8.933052   902A      9.002960  
     903A      9.061498   904A      9.233773   905A      9.667556  
     906A     10.537981   907A     10.560312   908A     10.791723  
     909A     10.920152   910A     11.086523   911A     17.874696  
     912A     18.053034   913A     18.836190   914A     19.511796  
     915A     20.074729   916A     52.941150   917A     53.487134  
     918A     54.903486   919A     56.321448   920A     57.384575  

    Final Occupation by Irrep:
              A 
    DOCC [    20 ]

  @DF-RHF Final Energy:  -195.23013770104384

   => Energetics <=

    Nuclear Repulsion Energy =            188.3786276958155952
    One-Electron Energy =                -635.5468491271469702
    Two-Electron Energy =                 251.9380837302875591
    Total Energy =                       -195.2301377010438443

Computation Completed


Properties will be evaluated at   0.000000,   0.000000,   0.000000 [a0]

Properties computed using the SCF density matrix

  Nuclear Dipole Moment: [e a0]
     X:     5.8836      Y:    11.6608      Z:   265.9815

  Electronic Dipole Moment: [e a0]
     X:    -5.8883      Y:   -11.6568      Z:  -265.9795

  Dipole Moment: [e a0]
     X:    -0.0047      Y:     0.0041      Z:     0.0020     Total:     0.0065

  Dipole Moment: [D]
     X:    -0.0118      Y:     0.0103      Z:     0.0050     Total:     0.0165


*** tstop() called on node43.bme.utexas.edu at Sat Apr 25 00:41:59 2020
Module time:
	user time   =     341.35 seconds =       5.69 minutes
	system time =       5.23 seconds =       0.09 minutes
	total time  =         49 seconds =       0.82 minutes
Total time:
	user time   =    1391.23 seconds =      23.19 minutes
	system time =      21.95 seconds =       0.37 minutes
	total time  =        195 seconds =       3.25 minutes
  Constructing Basis Sets for SAPT...

   => Loading Basis Set <=

    Name: (AUG-CC-PVTZ AUX)
    Role: RIFIT
    Keyword: DF_BASIS_SAPT
    atoms 1, 4, 7, 10, 13, 16, 19, 22, 25, 28                            entry C          line   148 file /home/liuchw/anaconda3/envs/psi4env/share/psi4/basis/aug-cc-pvtz-ri.gbs 
    atoms 2-3, 5-6, 8-9, 11-12, 14-15, 17-18, 20-21, 23-24, 26-27, 29-30 entry H          line    30 file /home/liuchw/anaconda3/envs/psi4env/share/psi4/basis/aug-cc-pvtz-ri.gbs 


  //>>>>>>>>>>>>>>>>>>>>>>>>>>>>>>>>>>>//
  //               SAPT2+              //
  //<<<<<<<<<<<<<<<<<<<<<<<<<<<<<<<<<<<//


*** tstart() called on node43.bme.utexas.edu
*** at Sat Apr 25 00:41:59 2020

        SAPT2+  
    Ed Hohenstein
     6 June 2009

      Orbital Information
  --------------------------
    NSO        =       920
    NMO        =       920
    NRI        =      1980
    NOCC A     =        20
    NOCC B     =        20
    FOCC A     =         5
    FOCC B     =         5
    NVIR A     =       900
    NVIR B     =       900

    Estimated memory usage: 20606.4 MB

    Natural Orbital Cutoff:   1.000E-06
    Disp(T3) Truncation:            Yes
    CCD (vv|vv) Truncation:         Yes
    MBPT T2 Truncation:             Yes

    Monomer A: 526 virtual orbitals dropped
    Monomer B: 526 virtual orbitals dropped

    Elst10,r            =     0.000008371034 [Eh]
    Exch10 (S^2)        =     0.000000505101 [Eh]
    Exch10              =     0.000000505101 [Eh]
    Ind20,r (A<-B)      =    -0.000000193050 [Eh]
    Ind20,r (B<-A)      =    -0.000000192958 [Eh]
    Ind20,r             =    -0.000000386008 [Eh]
    Exch-Ind20,r (A<-B) =     0.000000011650 [Eh]
    Exch-Ind20,r (B<-A) =     0.000000011652 [Eh]
    Exch-Ind20,r        =     0.000000023302 [Eh]
    Disp20              =    -0.000335854552 [Eh]
    Disp20 (NO)         =    -0.000327949652 [Eh]
    Exch-Disp20         =     0.000000143598 [Eh]
    Elst12,r            =    -0.000000514027 [Eh]
    Exch11              =    -0.000000014343 [Eh]
    Exch12              =     0.000000163335 [Eh]
    Ind22               =     0.000000044847 [Eh]
    Disp21              =     0.000061309660 [Eh]
    Disp22 (SDQ)        =     0.000008910682 [Eh]

    (i =   1 of  15)        540 seconds
    (i =   2 of  15)       1079 seconds
    (i =   3 of  15)       1619 seconds
    (i =   4 of  15)       2159 seconds
    (i =   5 of  15)       2701 seconds
    (i =   6 of  15)       3237 seconds
    (i =   7 of  15)       3772 seconds
    (i =   8 of  15)       4311 seconds
    (i =   9 of  15)       4848 seconds
    (i =  10 of  15)       5386 seconds
    (i =  11 of  15)       5929 seconds
    (i =  12 of  15)       6469 seconds
    (i =  13 of  15)       7008 seconds
    (i =  14 of  15)       7545 seconds
    (i =  15 of  15)       8086 seconds

    Disp220 (T)         =    -0.000028465722 [Eh]

    (i =   1 of  15)        540 seconds
    (i =   2 of  15)       1083 seconds
    (i =   3 of  15)       1622 seconds
    (i =   4 of  15)       2163 seconds
    (i =   5 of  15)       2710 seconds
    (i =   6 of  15)       3252 seconds
    (i =   7 of  15)       3795 seconds
    (i =   8 of  15)       4342 seconds
    (i =   9 of  15)       4888 seconds
    (i =  10 of  15)       5434 seconds
    (i =  11 of  15)       5978 seconds
    (i =  12 of  15)       6526 seconds
    (i =  13 of  15)       7070 seconds
    (i =  14 of  15)       7613 seconds
    (i =  15 of  15)       8160 seconds

    Disp202 (T)         =    -0.000028464724 [Eh]

    Disp22 (T)          =    -0.000056930447 [Eh]

    Est. Disp220 (T)    =    -0.000029151860 [Eh]
    Est. Disp202 (T)    =    -0.000029150838 [Eh]

    Est. Disp22 (T)     =    -0.000058302698 [Eh]

    SAPT Results 
  --------------------------------------------------------------------------------------------------------
    Electrostatics                  0.00785701 [mEh]       0.00493035 [kcal/mol]       0.02062857 [kJ/mol]
      Elst10,r                      0.00837103 [mEh]       0.00525290 [kcal/mol]       0.02197815 [kJ/mol]
      Elst12,r                     -0.00051403 [mEh]      -0.00032256 [kcal/mol]      -0.00134958 [kJ/mol]

    Exchange                        0.00065409 [mEh]       0.00041045 [kcal/mol]       0.00171732 [kJ/mol]
      Exch10                        0.00050510 [mEh]       0.00031696 [kcal/mol]       0.00132614 [kJ/mol]
      Exch10(S^2)                   0.00050510 [mEh]       0.00031696 [kcal/mol]       0.00132614 [kJ/mol]
      Exch11(S^2)                  -0.00001434 [mEh]      -0.00000900 [kcal/mol]      -0.00003766 [kJ/mol]
      Exch12(S^2)                   0.00016333 [mEh]       0.00010249 [kcal/mol]       0.00042884 [kJ/mol]

    Induction                      -0.00014925 [mEh]      -0.00009365 [kcal/mol]      -0.00039185 [kJ/mol]
      Ind20,r                      -0.00038601 [mEh]      -0.00024222 [kcal/mol]      -0.00101346 [kJ/mol]
      Ind22                         0.00004485 [mEh]       0.00002814 [kcal/mol]       0.00011775 [kJ/mol]
      Exch-Ind20,r                  0.00002330 [mEh]       0.00001462 [kcal/mol]       0.00006118 [kJ/mol]
      Exch-Ind22                   -0.00000271 [mEh]      -0.00000170 [kcal/mol]      -0.00000711 [kJ/mol]
      delta HF,r (2)                0.00017132 [mEh]       0.00010750 [kcal/mol]       0.00044980 [kJ/mol]

    Dispersion                     -0.32379331 [mEh]      -0.20318337 [kcal/mol]      -0.85011922 [kJ/mol]
      Disp20                       -0.33585455 [mEh]      -0.21075191 [kcal/mol]      -0.88178601 [kJ/mol]
      Disp21                        0.06130966 [mEh]       0.03847239 [kcal/mol]       0.16096849 [kJ/mol]
      Disp22 (SDQ)                  0.00891068 [mEh]       0.00559154 [kcal/mol]       0.02339499 [kJ/mol]
      Disp22 (T)                   -0.05693045 [mEh]      -0.03572439 [kcal/mol]      -0.14947087 [kJ/mol]
      Est. Disp22 (T)              -0.05830270 [mEh]      -0.03658550 [kcal/mol]      -0.15307371 [kJ/mol]
      Exch-Disp20                   0.00014360 [mEh]       0.00009011 [kcal/mol]       0.00037702 [kJ/mol]

  Total HF                          0.00868475 [mEh]       0.00544976 [kcal/mol]       0.02280180 [kJ/mol]
  Total SAPT0                      -0.32702621 [mEh]      -0.20521204 [kcal/mol]      -0.85860719 [kJ/mol]
  Total SAPT2                      -0.32734910 [mEh]      -0.20541466 [kcal/mol]      -0.85945495 [kJ/mol]
  Total SAPT2+                     -0.31543146 [mEh]      -0.19793623 [kcal/mol]      -0.82816518 [kJ/mol]

  Special recipe for scaled SAPT0 (see Manual):
    Electrostatics sSAPT0           0.00837103 [mEh]       0.00525290 [kcal/mol]       0.02197815 [kJ/mol]
    Exchange sSAPT0                 0.00050510 [mEh]       0.00031696 [kcal/mol]       0.00132614 [kJ/mol]
    Induction sSAPT0               -0.00019139 [mEh]      -0.00012010 [kcal/mol]      -0.00050249 [kJ/mol]
    Dispersion sSAPT0              -0.33571095 [mEh]      -0.21066180 [kcal/mol]      -0.88140899 [kJ/mol]
  Total sSAPT0                     -0.32702621 [mEh]      -0.20521204 [kcal/mol]      -0.85860719 [kJ/mol]
  --------------------------------------------------------------------------------------------------------

*** tstop() called on node43.bme.utexas.edu at Sat Apr 25 06:12:33 2020
Module time:
	user time   =  149015.01 seconds =    2483.58 minutes
	system time =    2304.73 seconds =      38.41 minutes
	total time  =      19834 seconds =     330.57 minutes
Total time:
	user time   =  150407.17 seconds =    2506.79 minutes
	system time =    2326.74 seconds =      38.78 minutes
	total time  =      20029 seconds =     333.82 minutes

    Psi4 stopped on: Saturday, 25 April 2020 06:12AM
    Psi4 wall time for execution: 5:33:48.79

*** Psi4 exiting successfully. Buy a developer a beer!
