
    -----------------------------------------------------------------------
          Psi4: An Open-Source Ab Initio Electronic Structure Package
                               Psi4 1.4a2.dev224 

                         Git: Rev {master} e453b16 


    R. M. Parrish, L. A. Burns, D. G. A. Smith, A. C. Simmonett,
    A. E. DePrince III, E. G. Hohenstein, U. Bozkaya, A. Yu. Sokolov,
    R. Di Remigio, R. M. Richard, J. F. Gonthier, A. M. James,
    H. R. McAlexander, A. Kumar, M. Saitow, X. Wang, B. P. Pritchard,
    P. Verma, H. F. Schaefer III, K. Patkowski, R. A. King, E. F. Valeev,
    F. A. Evangelista, J. M. Turney, T. D. Crawford, and C. D. Sherrill,
    J. Chem. Theory Comput. 13(7) pp 3185--3197 (2017).
    (doi: 10.1021/acs.jctc.7b00174)


                         Additional Contributions by
    P. Kraus, H. Kruse, M. H. Lechner, M. C. Schieber, R. A. Shaw,
    A. Alenaizan, R. Galvelis, Z. L. Glick, S. Lehtola, and J. P. Misiewicz

    -----------------------------------------------------------------------


    Psi4 started on: Friday, 24 April 2020 10:54PM

    Process ID: 85582
    Host:       node43.bme.utexas.edu
    PSIDATADIR: /home/liuchw/anaconda3/envs/psi4env/share/psi4
    Memory:     500.0 MiB
    Threads:    8
    
  ==> Input File <==

--------------------------------------------------------------------------
#Generated by lconvert.py for sapt job

memory 50 GB

molecule  {
0 1
  C       0.956880   -0.891850    1.141950
  H       1.504570   -1.278360    0.283420
  H       1.421380   -1.314780    2.031030
  C       0.990950    0.658510    1.145500
  H       1.510590    1.023100    0.259950
  H       1.516260    1.059820    2.010540
  C      -0.479450    1.102320    1.103880
  H      -0.616270    2.064880    0.613570
  H      -0.874740    1.189070    2.118070
  C      -1.182110   -0.052800    0.393350
  H      -0.948880   -0.026830   -0.673800
  H      -2.265660   -0.033560    0.501270
  C      -0.530660   -1.274890    1.039310
  H      -0.690390   -2.197020    0.482990
  H      -0.950850   -1.415410    2.036750
--
0 1
  C      -1.090900   -0.301340    6.931730
  H      -1.424030   -0.064640    5.919140
  H      -1.895690   -0.844430    7.424710
  C       0.222700   -1.096880    6.883970
  H       0.272650   -1.754620    6.017830
  H       0.302990   -1.728240    7.768350
  C       1.352020   -0.034170    6.884560
  H       1.973290   -0.094850    5.992690
  H       2.009430   -0.184060    7.739970
  C       0.641850    1.327500    6.992430
  H       0.461980    1.735990    5.996430
  H       1.222230    2.061900    7.548400
  C      -0.700200    0.993020    7.642240
  H      -1.439870    1.785530    7.537360
  H      -0.560170    0.801380    8.708790
units angstrom
no_reorient
symmetry c1
}

set {
scf_type DF
basis aug-cc-pvtz
freeze_core True
guess SAD
}
energy('sapt2+')
--------------------------------------------------------------------------

  Memory set to  46.566 GiB by Python driver.

Scratch directory: /scratch/liuchw/

  //>>>>>>>>>>>>>>>>>>>>>>>>>>>>>>>>>>>//
  //              Dimer HF             //
  //<<<<<<<<<<<<<<<<<<<<<<<<<<<<<<<<<<<//


*** tstart() called on node43.bme.utexas.edu
*** at Fri Apr 24 22:54:30 2020

   => Loading Basis Set <=

    Name: AUG-CC-PVTZ
    Role: ORBITAL
    Keyword: BASIS
    atoms 1, 4, 7, 10, 13, 16, 19, 22, 25, 28                            entry C          line   239 file /home/liuchw/anaconda3/envs/psi4env/share/psi4/basis/aug-cc-pvtz.gbs 
    atoms 2-3, 5-6, 8-9, 11-12, 14-15, 17-18, 20-21, 23-24, 26-27, 29-30 entry H          line    40 file /home/liuchw/anaconda3/envs/psi4env/share/psi4/basis/aug-cc-pvtz.gbs 


         ---------------------------------------------------------
                                   SCF
               by Justin Turney, Rob Parrish, Andy Simmonett
                          and Daniel G. A. Smith
                              RHF Reference
                        8 Threads,  47683 MiB Core
         ---------------------------------------------------------

  ==> Geometry <==

    Molecular point group: c1
    Full point group: C1

    Geometry (in Angstrom), charge = 0, multiplicity = 1:

       Center              X                  Y                   Z               Mass       
    ------------   -----------------  -----------------  -----------------  -----------------
         C            0.937573595937    -0.934260103033    -2.873939267529    12.000000000000
         H            1.485263595937    -1.320770103033    -3.732469267529     1.007825032230
         H            1.402073595937    -1.357190103033    -1.984859267529     1.007825032230
         C            0.971643595937     0.616099896967    -2.870389267529    12.000000000000
         H            1.491283595937     0.980689896967    -3.755939267529     1.007825032230
         H            1.496953595937     1.017409896967    -2.005349267529     1.007825032230
         C           -0.498756404063     1.059909896967    -2.912009267529    12.000000000000
         H           -0.635576404063     2.022469896967    -3.402319267529     1.007825032230
         H           -0.894046404063     1.146659896967    -1.897819267529     1.007825032230
         C           -1.201416404063    -0.095210103033    -3.622539267529    12.000000000000
         H           -0.968186404063    -0.069240103033    -4.689689267529     1.007825032230
         H           -2.284966404063    -0.075970103033    -3.514619267529     1.007825032230
         C           -0.549966404063    -1.317300103033    -2.976579267529    12.000000000000
         H           -0.709696404063    -2.239430103033    -3.532899267529     1.007825032230
         H           -0.970156404063    -1.457820103033    -1.979139267529     1.007825032230
         C           -1.110206404063    -0.343750103033     2.915840732471    12.000000000000
         H           -1.443336404063    -0.107050103033     1.903250732471     1.007825032230
         H           -1.914996404063    -0.886840103033     3.408820732471     1.007825032230
         C            0.203393595937    -1.139290103033     2.868080732471    12.000000000000
         H            0.253343595937    -1.797030103033     2.001940732471     1.007825032230
         H            0.283683595937    -1.770650103033     3.752460732471     1.007825032230
         C            1.332713595937    -0.076580103033     2.868670732471    12.000000000000
         H            1.953983595937    -0.137260103033     1.976800732471     1.007825032230
         H            1.990123595937    -0.226470103033     3.724080732471     1.007825032230
         C            0.622543595937     1.285089896967     2.976540732471    12.000000000000
         H            0.442673595937     1.693579896967     1.980540732471     1.007825032230
         H            1.202923595937     2.019489896967     3.532510732471     1.007825032230
         C           -0.719506404063     0.950609896967     3.626350732471    12.000000000000
         H           -1.459176404063     1.743119896967     3.521470732471     1.007825032230
         H           -0.579476404063     0.758969896967     4.692900732471     1.007825032230

  Running in c1 symmetry.

  Rotational constants: A =      0.06551  B =      0.01151  C =      0.01149 [cm^-1]
  Rotational constants: A =   1963.83700  B =    344.99924  C =    344.42916 [MHz]
  Nuclear repulsion =  510.217857315982485

  Charge       = 0
  Multiplicity = 1
  Electrons    = 80
  Nalpha       = 40
  Nbeta        = 40

  ==> Algorithm <==

  SCF Algorithm Type is DF.
  DIIS enabled.
  MOM disabled.
  Fractional occupation disabled.
  Guess Type is SAD.
  Energy threshold   = 1.00e-08
  Density threshold  = 1.00e-08
  Integral threshold = 0.00e+00

  ==> Primary Basis <==

  Basis Set: AUG-CC-PVTZ
    Blend: AUG-CC-PVTZ
    Number of shells: 320
    Number of basis function: 920
    Number of Cartesian functions: 1050
    Spherical Harmonics?: true
    Max angular momentum: 3

   => Loading Basis Set <=

    Name: (AUG-CC-PVTZ AUX)
    Role: JKFIT
    Keyword: DF_BASIS_SCF
    atoms 1, 4, 7, 10, 13, 16, 19, 22, 25, 28                            entry C          line   162 file /home/liuchw/anaconda3/envs/psi4env/share/psi4/basis/aug-cc-pvtz-jkfit.gbs 
    atoms 2-3, 5-6, 8-9, 11-12, 14-15, 17-18, 20-21, 23-24, 26-27, 29-30 entry H          line    70 file /home/liuchw/anaconda3/envs/psi4env/share/psi4/basis/aug-cc-pvtz-jkfit.gbs 

  ==> Pre-Iterations <==

   -------------------------------------------------------
    Irrep   Nso     Nmo     Nalpha   Nbeta   Ndocc  Nsocc
   -------------------------------------------------------
     A        920     920       0       0       0       0
   -------------------------------------------------------
    Total     920     920      40      40      40       0
   -------------------------------------------------------

  ==> Integral Setup <==

  ==> DiskDFJK: Density-Fitted J/K Matrices <==

    J tasked:                  Yes
    K tasked:                  Yes
    wK tasked:                  No
    OpenMP threads:              8
    Integrals threads:           8
    Memory [MiB]:            35762
    Algorithm:                Core
    Integral Cache:           SAVE
    Schwarz Cutoff:          1E-12
    Fitting Condition:       1E-10

   => Auxiliary Basis Set <=

  Basis Set: (AUG-CC-PVTZ AUX)
    Blend: AUG-CC-PVTZ-JKFIT
    Number of shells: 580
    Number of basis function: 1960
    Number of Cartesian functions: 2410
    Spherical Harmonics?: true
    Max angular momentum: 4

  Minimum eigenvalue in the overlap matrix is 2.3088256709E-06.
  Using Symmetric Orthogonalization.

  SCF Guess: Superposition of Atomic Densities via on-the-fly atomic UHF.

  ==> Iterations <==

                           Total Energy        Delta E     RMS |[F,P]|

   @DF-RHF iter SAD:  -390.30735304256984   -3.90307e+02   0.00000e+00 
   @DF-RHF iter   1:  -389.94985099538042    3.57502e-01   9.95959e-04 DIIS
   @DF-RHF iter   2:  -390.31353525816672   -3.63684e-01   5.76452e-04 DIIS
   @DF-RHF iter   3:  -390.45368782417449   -1.40153e-01   8.67762e-05 DIIS
   @DF-RHF iter   4:  -390.46004312122307   -6.35530e-03   1.38000e-05 DIIS
   @DF-RHF iter   5:  -390.46025231336381   -2.09192e-04   3.05651e-06 DIIS
   @DF-RHF iter   6:  -390.46026242088016   -1.01075e-05   5.06587e-07 DIIS
   @DF-RHF iter   7:  -390.46026262389245   -2.03012e-07   1.62151e-07 DIIS
   @DF-RHF iter   8:  -390.46026263872380   -1.48314e-08   2.42147e-08 DIIS
   @DF-RHF iter   9:  -390.46026263916377   -4.39968e-10   7.09074e-09 DIIS
  Energy and wave function converged.


  ==> Post-Iterations <==

    Orbital Energies [Eh]
    ---------------------

    Doubly Occupied:                                                      

       1A    -11.210883     2A    -11.210880     3A    -11.210489  
       4A    -11.210485     5A    -11.210474     6A    -11.210472  
       7A    -11.209871     8A    -11.209867     9A    -11.209718  
      10A    -11.209716    11A     -1.116772    12A     -1.116728  
      13A     -0.957165    14A     -0.957123    15A     -0.956305  
      16A     -0.956259    17A     -0.777429    18A     -0.777277  
      19A     -0.767652    20A     -0.767644    21A     -0.650470  
      22A     -0.649861    23A     -0.645180    24A     -0.644990  
      25A     -0.570448    26A     -0.570045    27A     -0.568691  
      28A     -0.568147    29A     -0.475777    30A     -0.475651  
      31A     -0.474947    32A     -0.474636    33A     -0.463931  
      34A     -0.463917    35A     -0.461278    36A     -0.460289  
      37A     -0.459605    38A     -0.459535    39A     -0.449196  
      40A     -0.449176  

    Virtual:                                                              

      41A      0.028243    42A      0.032541    43A      0.035119  
      44A      0.035793    45A      0.043294    46A      0.043962  
      47A      0.043975    48A      0.050696    49A      0.051356  
      50A      0.059175    51A      0.062665    52A      0.063044  
      53A      0.063968    54A      0.064022    55A      0.074495  
      56A      0.086476    57A      0.087823    58A      0.092047  
      59A      0.093441    60A      0.104313    61A      0.113106  
      62A      0.116879    63A      0.119768    64A      0.120926  
      65A      0.122772    66A      0.128261    67A      0.129195  
      68A      0.129708    69A      0.129800    70A      0.134344  
      71A      0.135213    72A      0.142062    73A      0.143541  
      74A      0.144899    75A      0.145161    76A      0.146963  
      77A      0.148879    78A      0.157557    79A      0.159691  
      80A      0.159918    81A      0.162539    82A      0.165666  
      83A      0.167797    84A      0.170478    85A      0.171155  
      86A      0.175240    87A      0.179963    88A      0.181908  
      89A      0.184871    90A      0.195174    91A      0.197162  
      92A      0.203341    93A      0.210349    94A      0.215151  
      95A      0.218290    96A      0.227630    97A      0.230078  
      98A      0.236413    99A      0.237613   100A      0.241907  
     101A      0.248931   102A      0.274425   103A      0.276369  
     104A      0.279115   105A      0.282630   106A      0.285098  
     107A      0.292830   108A      0.296502   109A      0.298161  
     110A      0.303318   111A      0.304723   112A      0.308933  
     113A      0.310905   114A      0.313231   115A      0.314559  
     116A      0.319707   117A      0.321719   118A      0.327882  
     119A      0.328903   120A      0.332932   121A      0.333205  
     122A      0.337069   123A      0.338472   124A      0.344279  
     125A      0.345104   126A      0.346298   127A      0.349830  
     128A      0.352173   129A      0.356115   130A      0.361668  
     131A      0.362184   132A      0.364586   133A      0.366350  
     134A      0.379146   135A      0.379645   136A      0.381720  
     137A      0.386038   138A      0.388254   139A      0.392172  
     140A      0.393836   141A      0.396883   142A      0.399025  
     143A      0.402007   144A      0.407367   145A      0.409604  
     146A      0.411568   147A      0.414429   148A      0.421723  
     149A      0.422481   150A      0.426100   151A      0.427488  
     152A      0.428946   153A      0.431378   154A      0.434603  
     155A      0.441227   156A      0.445531   157A      0.452375  
     158A      0.455137   159A      0.460930   160A      0.462653  
     161A      0.471821   162A      0.472449   163A      0.477660  
     164A      0.483128   165A      0.483607   166A      0.486636  
     167A      0.487976   168A      0.492051   169A      0.494156  
     170A      0.497248   171A      0.502659   172A      0.505864  
     173A      0.509480   174A      0.510946   175A      0.512272  
     176A      0.516600   177A      0.518302   178A      0.524000  
     179A      0.527982   180A      0.530798   181A      0.532119  
     182A      0.535292   183A      0.539744   184A      0.540615  
     185A      0.540899   186A      0.546731   187A      0.548788  
     188A      0.549304   189A      0.551714   190A      0.557195  
     191A      0.561156   192A      0.569043   193A      0.572259  
     194A      0.577780   195A      0.578602   196A      0.580511  
     197A      0.581499   198A      0.587345   199A      0.589689  
     200A      0.594618   201A      0.598203   202A      0.601100  
     203A      0.604209   204A      0.608848   205A      0.612796  
     206A      0.621273   207A      0.624074   208A      0.628346  
     209A      0.630937   210A      0.632246   211A      0.634319  
     212A      0.641547   213A      0.643378   214A      0.649265  
     215A      0.650712   216A      0.653323   217A      0.654020  
     218A      0.658442   219A      0.660789   220A      0.662674  
     221A      0.664903   222A      0.672139   223A      0.675985  
     224A      0.678391   225A      0.678671   226A      0.695769  
     227A      0.703177   228A      0.706411   229A      0.710473  
     230A      0.720238   231A      0.722114   232A      0.728124  
     233A      0.728709   234A      0.730505   235A      0.737962  
     236A      0.741302   237A      0.759213   238A      0.761722  
     239A      0.772023   240A      0.781698   241A      0.786855  
     242A      0.797954   243A      0.807524   244A      0.815461  
     245A      0.816916   246A      0.823107   247A      0.831023  
     248A      0.842794   249A      0.845715   250A      0.848986  
     251A      0.857420   252A      0.863515   253A      0.865817  
     254A      0.872619   255A      0.877586   256A      0.881716  
     257A      0.886267   258A      0.897616   259A      0.898521  
     260A      0.903543   261A      0.911326   262A      0.915120  
     263A      0.919466   264A      0.919490   265A      0.925253  
     266A      0.927265   267A      0.933114   268A      0.937592  
     269A      0.940927   270A      0.946110   271A      0.950448  
     272A      0.951080   273A      0.952315   274A      0.958007  
     275A      0.962140   276A      0.967923   277A      0.968791  
     278A      0.976252   279A      0.979203   280A      0.984923  
     281A      0.987074   282A      0.989956   283A      0.993291  
     284A      0.996389   285A      0.999696   286A      1.002465  
     287A      1.008071   288A      1.011937   289A      1.013574  
     290A      1.020364   291A      1.022539   292A      1.029208  
     293A      1.032502   294A      1.038088   295A      1.039472  
     296A      1.043867   297A      1.044576   298A      1.055608  
     299A      1.056774   300A      1.063897   301A      1.065447  
     302A      1.070615   303A      1.076485   304A      1.077781  
     305A      1.083087   306A      1.090939   307A      1.091993  
     308A      1.095775   309A      1.098979   310A      1.100073  
     311A      1.108509   312A      1.111178   313A      1.114955  
     314A      1.115867   315A      1.123406   316A      1.127888  
     317A      1.129128   318A      1.131697   319A      1.137676  
     320A      1.145598   321A      1.155361   322A      1.155484  
     323A      1.166278   324A      1.168750   325A      1.170891  
     326A      1.176652   327A      1.180332   328A      1.188597  
     329A      1.192620   330A      1.199212   331A      1.202064  
     332A      1.207681   333A      1.209386   334A      1.212260  
     335A      1.216453   336A      1.219850   337A      1.225083  
     338A      1.232808   339A      1.239411   340A      1.244380  
     341A      1.252804   342A      1.254019   343A      1.257839  
     344A      1.261982   345A      1.264575   346A      1.265734  
     347A      1.266714   348A      1.274921   349A      1.288866  
     350A      1.289537   351A      1.292914   352A      1.297358  
     353A      1.302259   354A      1.306073   355A      1.308811  
     356A      1.318601   357A      1.322026   358A      1.327580  
     359A      1.336415   360A      1.336954   361A      1.338511  
     362A      1.342546   363A      1.345023   364A      1.355949  
     365A      1.358758   366A      1.368039   367A      1.377327  
     368A      1.387836   369A      1.388080   370A      1.398294  
     371A      1.402840   372A      1.416818   373A      1.422851  
     374A      1.425759   375A      1.431126   376A      1.437815  
     377A      1.449945   378A      1.452298   379A      1.454113  
     380A      1.458594   381A      1.459229   382A      1.465002  
     383A      1.468269   384A      1.471851   385A      1.478966  
     386A      1.485010   387A      1.494410   388A      1.496469  
     389A      1.498366   390A      1.516171   391A      1.517827  
     392A      1.522371   393A      1.523732   394A      1.528748  
     395A      1.531059   396A      1.533976   397A      1.540003  
     398A      1.547850   399A      1.555821   400A      1.561212  
     401A      1.565711   402A      1.565778   403A      1.571265  
     404A      1.580587   405A      1.585006   406A      1.585428  
     407A      1.595405   408A      1.597506   409A      1.600314  
     410A      1.602600   411A      1.612657   412A      1.620496  
     413A      1.629762   414A      1.640422   415A      1.642819  
     416A      1.652718   417A      1.655671   418A      1.662096  
     419A      1.663359   420A      1.664780   421A      1.667348  
     422A      1.673983   423A      1.691222   424A      1.694768  
     425A      1.706218   426A      1.716525   427A      1.719752  
     428A      1.724338   429A      1.729260   430A      1.734658  
     431A      1.735494   432A      1.740590   433A      1.740998  
     434A      1.747951   435A      1.755704   436A      1.756799  
     437A      1.770316   438A      1.779568   439A      1.787442  
     440A      1.790466   441A      1.799820   442A      1.800334  
     443A      1.801805   444A      1.809398   445A      1.810474  
     446A      1.813495   447A      1.832685   448A      1.832817  
     449A      1.834616   450A      1.845974   451A      1.846075  
     452A      1.851918   453A      1.856195   454A      1.857410  
     455A      1.861886   456A      1.872088   457A      1.893995  
     458A      1.898265   459A      1.898338   460A      1.904813  
     461A      1.908115   462A      1.917953   463A      1.920549  
     464A      1.924830   465A      1.933979   466A      1.943581  
     467A      1.944281   468A      1.951389   469A      1.956895  
     470A      1.971610   471A      1.971939   472A      1.976224  
     473A      1.979022   474A      1.984633   475A      1.985333  
     476A      1.995723   477A      1.997625   478A      2.006402  
     479A      2.008589   480A      2.017490   481A      2.018095  
     482A      2.027337   483A      2.030636   484A      2.032838  
     485A      2.034058   486A      2.045319   487A      2.045391  
     488A      2.047061   489A      2.055593   490A      2.057071  
     491A      2.078626   492A      2.086080   493A      2.088067  
     494A      2.103208   495A      2.113549   496A      2.118966  
     497A      2.121521   498A      2.124447   499A      2.128093  
     500A      2.129632   501A      2.132538   502A      2.136897  
     503A      2.147206   504A      2.151929   505A      2.159960  
     506A      2.165023   507A      2.170497   508A      2.175203  
     509A      2.176348   510A      2.187638   511A      2.197059  
     512A      2.209474   513A      2.243302   514A      2.251968  
     515A      2.258716   516A      2.272776   517A      2.278221  
     518A      2.281675   519A      2.291250   520A      2.296906  
     521A      2.302332   522A      2.303540   523A      2.310580  
     524A      2.315091   525A      2.318175   526A      2.321797  
     527A      2.328617   528A      2.330053   529A      2.351660  
     530A      2.358001   531A      2.366838   532A      2.395456  
     533A      2.402147   534A      2.407034   535A      2.411067  
     536A      2.414488   537A      2.424749   538A      2.430336  
     539A      2.434216   540A      2.442275   541A      2.461898  
     542A      2.464587   543A      2.465936   544A      2.469491  
     545A      2.474978   546A      2.483409   547A      2.490067  
     548A      2.500384   549A      2.508107   550A      2.515024  
     551A      2.539673   552A      2.542751   553A      2.558333  
     554A      2.563521   555A      2.580446   556A      2.588126  
     557A      2.591982   558A      2.592508   559A      2.634929  
     560A      2.636977   561A      2.647414   562A      2.660374  
     563A      2.677853   564A      2.678209   565A      2.683434  
     566A      2.693915   567A      2.710411   568A      2.715396  
     569A      2.778271   570A      2.787354   571A      2.818146  
     572A      2.820466   573A      2.979027   574A      2.979367  
     575A      3.053672   576A      3.062649   577A      3.085384  
     578A      3.097890   579A      3.189364   580A      3.226370  
     581A      3.255531   582A      3.264853   583A      3.325849  
     584A      3.338437   585A      3.367379   586A      3.373401  
     587A      3.380520   588A      3.386742   589A      3.397730  
     590A      3.398221   591A      3.408656   592A      3.418584  
     593A      3.475971   594A      3.487693   595A      3.510048  
     596A      3.515720   597A      3.526238   598A      3.526343  
     599A      3.544297   600A      3.548942   601A      3.564218  
     602A      3.566198   603A      3.571049   604A      3.573354  
     605A      3.575279   606A      3.581696   607A      3.604672  
     608A      3.605495   609A      3.614468   610A      3.616044  
     611A      3.625347   612A      3.626844   613A      3.646837  
     614A      3.650067   615A      3.666439   616A      3.669450  
     617A      3.688680   618A      3.695936   619A      3.704307  
     620A      3.710697   621A      3.721930   622A      3.722231  
     623A      3.733982   624A      3.736167   625A      3.748498  
     626A      3.756616   627A      3.764088   628A      3.764242  
     629A      3.767967   630A      3.771625   631A      3.788326  
     632A      3.793652   633A      3.803455   634A      3.820325  
     635A      3.828440   636A      3.834890   637A      3.839499  
     638A      3.842163   639A      3.853494   640A      3.863411  
     641A      3.866501   642A      3.873024   643A      3.901541  
     644A      3.907188   645A      3.908406   646A      3.915899  
     647A      3.919903   648A      3.929395   649A      3.933545  
     650A      3.939215   651A      3.939820   652A      3.947259  
     653A      3.969023   654A      3.973555   655A      3.981365  
     656A      3.982321   657A      3.994435   658A      3.999121  
     659A      4.005150   660A      4.007127   661A      4.016387  
     662A      4.023432   663A      4.024509   664A      4.029548  
     665A      4.033670   666A      4.033744   667A      4.041915  
     668A      4.044726   669A      4.051149   670A      4.059026  
     671A      4.060029   672A      4.069971   673A      4.074036  
     674A      4.079948   675A      4.082023   676A      4.092398  
     677A      4.095375   678A      4.098123   679A      4.101614  
     680A      4.104555   681A      4.110851   682A      4.112390  
     683A      4.130308   684A      4.134298   685A      4.148952  
     686A      4.153425   687A      4.186213   688A      4.197025  
     689A      4.199161   690A      4.202705   691A      4.210313  
     692A      4.225415   693A      4.228263   694A      4.235307  
     695A      4.244695   696A      4.252915   697A      4.253295  
     698A      4.259727   699A      4.280586   700A      4.292571  
     701A      4.302502   702A      4.304272   703A      4.335674  
     704A      4.340096   705A      4.343353   706A      4.350141  
     707A      4.374645   708A      4.380014   709A      4.398687  
     710A      4.402591   711A      4.405736   712A      4.408689  
     713A      4.420719   714A      4.427882   715A      4.431429  
     716A      4.432683   717A      4.449055   718A      4.454428  
     719A      4.457777   720A      4.460229   721A      4.482935  
     722A      4.483722   723A      4.498535   724A      4.499407  
     725A      4.501998   726A      4.513040   727A      4.519606  
     728A      4.528795   729A      4.556849   730A      4.561293  
     731A      4.586285   732A      4.586492   733A      4.618134  
     734A      4.618336   735A      4.628719   736A      4.636889  
     737A      4.650873   738A      4.652617   739A      4.662306  
     740A      4.669455   741A      4.706268   742A      4.709536  
     743A      4.715399   744A      4.720006   745A      4.724392  
     746A      4.725110   747A      4.743782   748A      4.747172  
     749A      4.753642   750A      4.753729   751A      4.777939  
     752A      4.791537   753A      4.831807   754A      4.838547  
     755A      4.845069   756A      4.845134   757A      4.849680  
     758A      4.851582   759A      4.903854   760A      4.907507  
     761A      4.928167   762A      4.930257   763A      4.941044  
     764A      4.944471   765A      4.953186   766A      4.953286  
     767A      4.960985   768A      4.963433   769A      4.978924  
     770A      4.979957   771A      4.985573   772A      4.991113  
     773A      4.997619   774A      4.998447   775A      5.001238  
     776A      5.006248   777A      5.027600   778A      5.030722  
     779A      5.031244   780A      5.039205   781A      5.047928  
     782A      5.050814   783A      5.074486   784A      5.081293  
     785A      5.082391   786A      5.085165   787A      5.097715  
     788A      5.099126   789A      5.106125   790A      5.108626  
     791A      5.110522   792A      5.127502   793A      5.149187  
     794A      5.158127   795A      5.182061   796A      5.182652  
     797A      5.183739   798A      5.193338   799A      5.217601  
     800A      5.226674   801A      5.240120   802A      5.245177  
     803A      5.250983   804A      5.258844   805A      5.292809  
     806A      5.293343   807A      5.306086   808A      5.309743  
     809A      5.315291   810A      5.318733   811A      5.336322  
     812A      5.336342   813A      5.365298   814A      5.369134  
     815A      5.417848   816A      5.430899   817A      5.459282  
     818A      5.464534   819A      5.477961   820A      5.485545  
     821A      5.487131   822A      5.490201   823A      5.497250  
     824A      5.500251   825A      5.509414   826A      5.510113  
     827A      5.513156   828A      5.515696   829A      5.520314  
     830A      5.522139   831A      5.525206   832A      5.541011  
     833A      5.546266   834A      5.552993   835A      5.578777  
     836A      5.587941   837A      5.588990   838A      5.594636  
     839A      5.608350   840A      5.609061   841A      5.675902  
     842A      5.677176   843A      5.713021   844A      5.714951  
     845A      5.730756   846A      5.732989   847A      5.762929  
     848A      5.764429   849A      5.792954   850A      5.794725  
     851A      5.795941   852A      5.805099   853A      5.810835  
     854A      5.815236   855A      5.852794   856A      5.855799  
     857A      5.869142   858A      5.870587   859A      5.873747  
     860A      5.881323   861A      5.902638   862A      5.908297  
     863A      5.924513   864A      5.934766   865A      5.952842  
     866A      5.956156   867A      6.009002   868A      6.009362  
     869A      6.054478   870A      6.059535   871A      6.060589  
     872A      6.065449   873A      6.074135   874A      6.087991  
     875A      6.136603   876A      6.136731   877A      6.168741  
     878A      6.176618   879A      6.241631   880A      6.245717  
     881A      6.273459   882A      6.280849   883A      6.335238  
     884A      6.337954   885A      6.366907   886A      6.369095  
     887A      6.425573   888A      6.428859   889A      6.437976  
     890A      6.444858   891A      6.450349   892A      6.472696  
     893A      6.530260   894A      6.543740   895A      6.673664  
     896A      6.679588   897A      6.710113   898A      6.719949  
     899A      6.757451   900A      6.770633   901A      6.878183  
     902A      6.898540   903A      6.908101   904A      6.965698  
     905A      6.971626   906A      6.987151   907A      7.049007  
     908A      7.052504   909A      7.057622   910A      7.069877  
     911A     17.905523   912A     17.907271   913A     18.077773  
     914A     18.105641   915A     18.904098   916A     18.912539  
     917A     19.563517   918A     19.569251   919A     20.100474  
     920A     20.119943  

    Final Occupation by Irrep:
              A 
    DOCC [    40 ]

  @DF-RHF Final Energy:  -390.46026263916377

   => Energetics <=

    Nuclear Repulsion Energy =            510.2178573159824850
    One-Electron Energy =               -1537.9782728116465478
    Two-Electron Energy =                 637.3001528565002900
    Total Energy =                       -390.4602626391638296

Computation Completed


Properties will be evaluated at   0.000000,   0.000000,   0.000000 [a0]

Properties computed using the SCF density matrix

  Nuclear Dipole Moment: [e a0]
     X:     0.1338      Y:    -0.0594      Z:    -0.0003

  Electronic Dipole Moment: [e a0]
     X:    -0.1440      Y:     0.0639      Z:     0.0003

  Dipole Moment: [e a0]
     X:    -0.0102      Y:     0.0045      Z:     0.0000     Total:     0.0111

  Dipole Moment: [D]
     X:    -0.0259      Y:     0.0115      Z:     0.0001     Total:     0.0283


*** tstop() called on node43.bme.utexas.edu at Fri Apr 24 22:56:08 2020
Module time:
	user time   =     717.18 seconds =      11.95 minutes
	system time =       9.85 seconds =       0.16 minutes
	total time  =         98 seconds =       1.63 minutes
Total time:
	user time   =     717.18 seconds =      11.95 minutes
	system time =       9.85 seconds =       0.16 minutes
	total time  =         98 seconds =       1.63 minutes

  //>>>>>>>>>>>>>>>>>>>>>>>>>>>>>>>>>>>//
  //            Monomer A HF           //
  //<<<<<<<<<<<<<<<<<<<<<<<<<<<<<<<<<<<//


*** tstart() called on node43.bme.utexas.edu
*** at Fri Apr 24 22:56:08 2020

   => Loading Basis Set <=

    Name: AUG-CC-PVTZ
    Role: ORBITAL
    Keyword: BASIS
    atoms 1, 4, 7, 10, 13, 16, 19, 22, 25, 28                            entry C          line   239 file /home/liuchw/anaconda3/envs/psi4env/share/psi4/basis/aug-cc-pvtz.gbs 
    atoms 2-3, 5-6, 8-9, 11-12, 14-15, 17-18, 20-21, 23-24, 26-27, 29-30 entry H          line    40 file /home/liuchw/anaconda3/envs/psi4env/share/psi4/basis/aug-cc-pvtz.gbs 


         ---------------------------------------------------------
                                   SCF
               by Justin Turney, Rob Parrish, Andy Simmonett
                          and Daniel G. A. Smith
                              RHF Reference
                        8 Threads,  47683 MiB Core
         ---------------------------------------------------------

  ==> Geometry <==

    Molecular point group: c1
    Full point group: C1

    Geometry (in Angstrom), charge = 0, multiplicity = 1:

       Center              X                  Y                   Z               Mass       
    ------------   -----------------  -----------------  -----------------  -----------------
         C            0.937573595937    -0.934260103033    -2.873939267529    12.000000000000
         H            1.485263595937    -1.320770103033    -3.732469267529     1.007825032230
         H            1.402073595937    -1.357190103033    -1.984859267529     1.007825032230
         C            0.971643595937     0.616099896967    -2.870389267529    12.000000000000
         H            1.491283595937     0.980689896967    -3.755939267529     1.007825032230
         H            1.496953595937     1.017409896967    -2.005349267529     1.007825032230
         C           -0.498756404063     1.059909896967    -2.912009267529    12.000000000000
         H           -0.635576404063     2.022469896967    -3.402319267529     1.007825032230
         H           -0.894046404063     1.146659896967    -1.897819267529     1.007825032230
         C           -1.201416404063    -0.095210103033    -3.622539267529    12.000000000000
         H           -0.968186404063    -0.069240103033    -4.689689267529     1.007825032230
         H           -2.284966404063    -0.075970103033    -3.514619267529     1.007825032230
         C           -0.549966404063    -1.317300103033    -2.976579267529    12.000000000000
         H           -0.709696404063    -2.239430103033    -3.532899267529     1.007825032230
         H           -0.970156404063    -1.457820103033    -1.979139267529     1.007825032230
      Gh(C)          -1.110206404063    -0.343750103033     2.915840732471    12.000000000000
      Gh(H)          -1.443336404063    -0.107050103033     1.903250732471     1.007825032230
      Gh(H)          -1.914996404063    -0.886840103033     3.408820732471     1.007825032230
      Gh(C)           0.203393595937    -1.139290103033     2.868080732471    12.000000000000
      Gh(H)           0.253343595937    -1.797030103033     2.001940732471     1.007825032230
      Gh(H)           0.283683595937    -1.770650103033     3.752460732471     1.007825032230
      Gh(C)           1.332713595937    -0.076580103033     2.868670732471    12.000000000000
      Gh(H)           1.953983595937    -0.137260103033     1.976800732471     1.007825032230
      Gh(H)           1.990123595937    -0.226470103033     3.724080732471     1.007825032230
      Gh(C)           0.622543595937     1.285089896967     2.976540732471    12.000000000000
      Gh(H)           0.442673595937     1.693579896967     1.980540732471     1.007825032230
      Gh(H)           1.202923595937     2.019489896967     3.532510732471     1.007825032230
      Gh(C)          -0.719506404063     0.950609896967     3.626350732471    12.000000000000
      Gh(H)          -1.459176404063     1.743119896967     3.521470732471     1.007825032230
      Gh(H)          -0.579476404063     0.758969896967     4.692900732471     1.007825032230

  Running in c1 symmetry.

  Rotational constants: A =      0.06551  B =      0.01151  C =      0.01149 [cm^-1]
  Rotational constants: A =   1963.83700  B =    344.99924  C =    344.42916 [MHz]
  Nuclear repulsion =  188.383512001777007

  Charge       = 0
  Multiplicity = 1
  Electrons    = 40
  Nalpha       = 20
  Nbeta        = 20

  ==> Algorithm <==

  SCF Algorithm Type is DF.
  DIIS enabled.
  MOM disabled.
  Fractional occupation disabled.
  Guess Type is SAD.
  Energy threshold   = 1.00e-08
  Density threshold  = 1.00e-08
  Integral threshold = 0.00e+00

  ==> Primary Basis <==

  Basis Set: AUG-CC-PVTZ
    Blend: AUG-CC-PVTZ
    Number of shells: 320
    Number of basis function: 920
    Number of Cartesian functions: 1050
    Spherical Harmonics?: true
    Max angular momentum: 3

   => Loading Basis Set <=

    Name: (AUG-CC-PVTZ AUX)
    Role: JKFIT
    Keyword: DF_BASIS_SCF
    atoms 1, 4, 7, 10, 13, 16, 19, 22, 25, 28                            entry C          line   162 file /home/liuchw/anaconda3/envs/psi4env/share/psi4/basis/aug-cc-pvtz-jkfit.gbs 
    atoms 2-3, 5-6, 8-9, 11-12, 14-15, 17-18, 20-21, 23-24, 26-27, 29-30 entry H          line    70 file /home/liuchw/anaconda3/envs/psi4env/share/psi4/basis/aug-cc-pvtz-jkfit.gbs 

  ==> Pre-Iterations <==

   -------------------------------------------------------
    Irrep   Nso     Nmo     Nalpha   Nbeta   Ndocc  Nsocc
   -------------------------------------------------------
     A        920     920       0       0       0       0
   -------------------------------------------------------
    Total     920     920      20      20      20       0
   -------------------------------------------------------

  ==> Integral Setup <==

  ==> DiskDFJK: Density-Fitted J/K Matrices <==

    J tasked:                  Yes
    K tasked:                  Yes
    wK tasked:                  No
    OpenMP threads:              8
    Integrals threads:           8
    Memory [MiB]:            35762
    Algorithm:                Core
    Integral Cache:           LOAD
    Schwarz Cutoff:          1E-12
    Fitting Condition:       1E-10

   => Auxiliary Basis Set <=

  Basis Set: (AUG-CC-PVTZ AUX)
    Blend: AUG-CC-PVTZ-JKFIT
    Number of shells: 580
    Number of basis function: 1960
    Number of Cartesian functions: 2410
    Spherical Harmonics?: true
    Max angular momentum: 4

  Minimum eigenvalue in the overlap matrix is 2.3088256709E-06.
  Using Symmetric Orthogonalization.

  SCF Guess: Superposition of Atomic Densities via on-the-fly atomic UHF.

  ==> Iterations <==

                           Total Energy        Delta E     RMS |[F,P]|

   @DF-RHF iter SAD:  -195.14929550562513   -1.95149e+02   0.00000e+00 
   @DF-RHF iter   1:  -194.97485929223959    1.74436e-01   7.04370e-04 DIIS
   @DF-RHF iter   2:  -195.15701747422685   -1.82158e-01   4.06864e-04 DIIS
   @DF-RHF iter   3:  -195.22686426538172   -6.98468e-02   6.11537e-05 DIIS
   @DF-RHF iter   4:  -195.23003122815135   -3.16696e-03   9.64362e-06 DIIS
   @DF-RHF iter   5:  -195.23013442835889   -1.03200e-04   2.10539e-06 DIIS
   @DF-RHF iter   6:  -195.23013935659498   -4.92824e-06   2.65352e-07 DIIS
   @DF-RHF iter   7:  -195.23013943122993   -7.46350e-08   4.84756e-08 DIIS
   @DF-RHF iter   8:  -195.23013943270630   -1.47637e-09   1.67596e-08 DIIS
   @DF-RHF iter   9:  -195.23013943286989   -1.63595e-10   2.35862e-09 DIIS
  Energy and wave function converged.


  ==> Post-Iterations <==

    Orbital Energies [Eh]
    ---------------------

    Doubly Occupied:                                                      

       1A    -11.210425     2A    -11.210045     3A    -11.210017  
       4A    -11.209405     5A    -11.209281     6A     -1.116304  
       7A     -0.956674     8A     -0.955831     9A     -0.776920  
      10A     -0.767188    11A     -0.649693    12A     -0.644656  
      13A     -0.569786    14A     -0.567930    15A     -0.475277  
      16A     -0.474374    17A     -0.463468    18A     -0.460328  
      19A     -0.459109    20A     -0.448716  

    Virtual:                                                              

      21A      0.018279    22A      0.030971    23A      0.032082  
      24A      0.032588    25A      0.041554    26A      0.042124  
      27A      0.042929    28A      0.050258    29A      0.050943  
      30A      0.057933    31A      0.062220    32A      0.062493  
      33A      0.063033    34A      0.063396    35A      0.064780  
      36A      0.084194    37A      0.085891    38A      0.087267  
      39A      0.089702    40A      0.092268    41A      0.103054  
      42A      0.106456    43A      0.108999    44A      0.113914  
      45A      0.115189    46A      0.119382    47A      0.123736  
      48A      0.126056    49A      0.128531    50A      0.130093  
      51A      0.133969    52A      0.138479    53A      0.141967  
      54A      0.143724    55A      0.145557    56A      0.146455  
      57A      0.147571    58A      0.151686    59A      0.155039  
      60A      0.156820    61A      0.159630    62A      0.162237  
      63A      0.166347    64A      0.166678    65A      0.169873  
      66A      0.173983    67A      0.178253    68A      0.179791  
      69A      0.181110    70A      0.185668    71A      0.190354  
      72A      0.192995    73A      0.195091    74A      0.197226  
      75A      0.206833    76A      0.218447    77A      0.219649  
      78A      0.226421    79A      0.230283    80A      0.237522  
      81A      0.244982    82A      0.252869    83A      0.269725  
      84A      0.277216    85A      0.280565    86A      0.283220  
      87A      0.286117    88A      0.288525    89A      0.293871  
      90A      0.296052    91A      0.301140    92A      0.303402  
      93A      0.308710    94A      0.311084    95A      0.315136  
      96A      0.318777    97A      0.321525    98A      0.323426  
      99A      0.329708   100A      0.330974   101A      0.332971  
     102A      0.333898   103A      0.342083   104A      0.343149  
     105A      0.345339   106A      0.347243   107A      0.351490  
     108A      0.353076   109A      0.354765   110A      0.356156  
     111A      0.361551   112A      0.363761   113A      0.365063  
     114A      0.369006   115A      0.372802   116A      0.376654  
     117A      0.383508   118A      0.386687   119A      0.387515  
     120A      0.390112   121A      0.393629   122A      0.395734  
     123A      0.401123   124A      0.403466   125A      0.405741  
     126A      0.410926   127A      0.411725   128A      0.416560  
     129A      0.420203   130A      0.424241   131A      0.426173  
     132A      0.428753   133A      0.433069   134A      0.435183  
     135A      0.435988   136A      0.441574   137A      0.443236  
     138A      0.448390   139A      0.453484   140A      0.457199  
     141A      0.464892   142A      0.469780   143A      0.471966  
     144A      0.479477   145A      0.484113   146A      0.485228  
     147A      0.486966   148A      0.494350   149A      0.502115  
     150A      0.503398   151A      0.505167   152A      0.511184  
     153A      0.512108   154A      0.516327   155A      0.517916  
     156A      0.518711   157A      0.526244   158A      0.530026  
     159A      0.530558   160A      0.534263   161A      0.540656  
     162A      0.540962   163A      0.543022   164A      0.549455  
     165A      0.554283   166A      0.559042   167A      0.560690  
     168A      0.562040   169A      0.564886   170A      0.568322  
     171A      0.573336   172A      0.576269   173A      0.582260  
     174A      0.586927   175A      0.593351   176A      0.595286  
     177A      0.597403   178A      0.599399   179A      0.602840  
     180A      0.605112   181A      0.613595   182A      0.614443  
     183A      0.618915   184A      0.623967   185A      0.625055  
     186A      0.630854   187A      0.632493   188A      0.638371  
     189A      0.644694   190A      0.648439   191A      0.654006  
     192A      0.655202   193A      0.656423   194A      0.659222  
     195A      0.664077   196A      0.665122   197A      0.668836  
     198A      0.671456   199A      0.678790   200A      0.680891  
     201A      0.689781   202A      0.691188   203A      0.693965  
     204A      0.702568   205A      0.707761   206A      0.711083  
     207A      0.713516   208A      0.721289   209A      0.724959  
     210A      0.730562   211A      0.731712   212A      0.734758  
     213A      0.736912   214A      0.741458   215A      0.748008  
     216A      0.759013   217A      0.762049   218A      0.769599  
     219A      0.776039   220A      0.777542   221A      0.778645  
     222A      0.787842   223A      0.798526   224A      0.802730  
     225A      0.811303   226A      0.814058   227A      0.822265  
     228A      0.829355   229A      0.832709   230A      0.833752  
     231A      0.844414   232A      0.848175   233A      0.857506  
     234A      0.859549   235A      0.862405   236A      0.870814  
     237A      0.873082   238A      0.879628   239A      0.888137  
     240A      0.899361   241A      0.905604   242A      0.907608  
     243A      0.910051   244A      0.917171   245A      0.919323  
     246A      0.931631   247A      0.941439   248A      0.948477  
     249A      0.949607   250A      0.955203   251A      0.960747  
     252A      0.963886   253A      0.970330   254A      0.977980  
     255A      0.979573   256A      0.995522   257A      0.998703  
     258A      1.005534   259A      1.006504   260A      1.008581  
     261A      1.018102   262A      1.023336   263A      1.030888  
     264A      1.035102   265A      1.037966   266A      1.040733  
     267A      1.044989   268A      1.050932   269A      1.053604  
     270A      1.060952   271A      1.066667   272A      1.069642  
     273A      1.079728   274A      1.082084   275A      1.084024  
     276A      1.088412   277A      1.091596   278A      1.093151  
     279A      1.101297   280A      1.102666   281A      1.110690  
     282A      1.111620   283A      1.116466   284A      1.118677  
     285A      1.125316   286A      1.125723   287A      1.129420  
     288A      1.130722   289A      1.131927   290A      1.137816  
     291A      1.139537   292A      1.148590   293A      1.150563  
     294A      1.158293   295A      1.165878   296A      1.171881  
     297A      1.175584   298A      1.177512   299A      1.179817  
     300A      1.186193   301A      1.188089   302A      1.193554  
     303A      1.199792   304A      1.202369   305A      1.205718  
     306A      1.209510   307A      1.214208   308A      1.217227  
     309A      1.222537   310A      1.225037   311A      1.237696  
     312A      1.244014   313A      1.247722   314A      1.250882  
     315A      1.254962   316A      1.258714   317A      1.263256  
     318A      1.269692   319A      1.270165   320A      1.276044  
     321A      1.281754   322A      1.282992   323A      1.287949  
     324A      1.292949   325A      1.294871   326A      1.299819  
     327A      1.301427   328A      1.308678   329A      1.313412  
     330A      1.321070   331A      1.323980   332A      1.325172  
     333A      1.329819   334A      1.338275   335A      1.341644  
     336A      1.355369   337A      1.355658   338A      1.361886  
     339A      1.365658   340A      1.371356   341A      1.375571  
     342A      1.382614   343A      1.389243   344A      1.393735  
     345A      1.396434   346A      1.401603   347A      1.406284  
     348A      1.409872   349A      1.423151   350A      1.429315  
     351A      1.433508   352A      1.440784   353A      1.442450  
     354A      1.444043   355A      1.446483   356A      1.453622  
     357A      1.458346   358A      1.465894   359A      1.470031  
     360A      1.474843   361A      1.480907   362A      1.485286  
     363A      1.490317   364A      1.495660   365A      1.500691  
     366A      1.503820   367A      1.508126   368A      1.513715  
     369A      1.520942   370A      1.521137   371A      1.527888  
     372A      1.530237   373A      1.537228   374A      1.542279  
     375A      1.547443   376A      1.550443   377A      1.554095  
     378A      1.558674   379A      1.563304   380A      1.564840  
     381A      1.573787   382A      1.575349   383A      1.580369  
     384A      1.585509   385A      1.590854   386A      1.594428  
     387A      1.596948   388A      1.602936   389A      1.606808  
     390A      1.616899   391A      1.628458   392A      1.630353  
     393A      1.640133   394A      1.646145   395A      1.650995  
     396A      1.656536   397A      1.660117   398A      1.664090  
     399A      1.668296   400A      1.671498   401A      1.677821  
     402A      1.687170   403A      1.688125   404A      1.695851  
     405A      1.703981   406A      1.715122   407A      1.719389  
     408A      1.721081   409A      1.729167   410A      1.736858  
     411A      1.743599   412A      1.744139   413A      1.754150  
     414A      1.756596   415A      1.761028   416A      1.765434  
     417A      1.767869   418A      1.783098   419A      1.790204  
     420A      1.797411   421A      1.805725   422A      1.810884  
     423A      1.812896   424A      1.817642   425A      1.823925  
     426A      1.837611   427A      1.844162   428A      1.854158  
     429A      1.856597   430A      1.860209   431A      1.865964  
     432A      1.887743   433A      1.896837   434A      1.898504  
     435A      1.905414   436A      1.913168   437A      1.918119  
     438A      1.938610   439A      1.943631   440A      1.945182  
     441A      1.948921   442A      1.965199   443A      1.975479  
     444A      1.979384   445A      1.988959   446A      1.995889  
     447A      2.000050   448A      2.001633   449A      2.004675  
     450A      2.010739   451A      2.024251   452A      2.033138  
     453A      2.038335   454A      2.039447   455A      2.043711  
     456A      2.045600   457A      2.049783   458A      2.064061  
     459A      2.073637   460A      2.078240   461A      2.085441  
     462A      2.088516   463A      2.095335   464A      2.101547  
     465A      2.107144   466A      2.112839   467A      2.117885  
     468A      2.122439   469A      2.125291   470A      2.137983  
     471A      2.144235   472A      2.148696   473A      2.153999  
     474A      2.161679   475A      2.164221   476A      2.168274  
     477A      2.177948   478A      2.187585   479A      2.193392  
     480A      2.201807   481A      2.221901   482A      2.223281  
     483A      2.230721   484A      2.238720   485A      2.240270  
     486A      2.247100   487A      2.255759   488A      2.260495  
     489A      2.264897   490A      2.277233   491A      2.284082  
     492A      2.290505   493A      2.303852   494A      2.304486  
     495A      2.311281   496A      2.317839   497A      2.322657  
     498A      2.325805   499A      2.332140   500A      2.338010  
     501A      2.343419   502A      2.353036   503A      2.354234  
     504A      2.361242   505A      2.365941   506A      2.374119  
     507A      2.390809   508A      2.407066   509A      2.413124  
     510A      2.422707   511A      2.426750   512A      2.432243  
     513A      2.439084   514A      2.457532   515A      2.464004  
     516A      2.467287   517A      2.474886   518A      2.491781  
     519A      2.506807   520A      2.512838   521A      2.530129  
     522A      2.540272   523A      2.542464   524A      2.553564  
     525A      2.560737   526A      2.566661   527A      2.579354  
     528A      2.583595   529A      2.586411   530A      2.596170  
     531A      2.608888   532A      2.610411   533A      2.617278  
     534A      2.648053   535A      2.653112   536A      2.660032  
     537A      2.669779   538A      2.680334   539A      2.690643  
     540A      2.693250   541A      2.701482   542A      2.708973  
     543A      2.715206   544A      2.734862   545A      2.739897  
     546A      2.758350   547A      2.779581   548A      2.784821  
     549A      2.801255   550A      2.820601   551A      2.839164  
     552A      2.845301   553A      2.848191   554A      2.865122  
     555A      2.876779   556A      2.901374   557A      2.935078  
     558A      2.944075   559A      2.965151   560A      2.981247  
     561A      2.993516   562A      3.015774   563A      3.047736  
     564A      3.049430   565A      3.065504   566A      3.092900  
     567A      3.110804   568A      3.191965   569A      3.207866  
     570A      3.230202   571A      3.261517   572A      3.333745  
     573A      3.346123   574A      3.376769   575A      3.378920  
     576A      3.382447   577A      3.401403   578A      3.412530  
     579A      3.419665   580A      3.437713   581A      3.484187  
     582A      3.515708   583A      3.522952   584A      3.527988  
     585A      3.549816   586A      3.571674   587A      3.572975  
     588A      3.581665   589A      3.613041   590A      3.617200  
     591A      3.625290   592A      3.650603   593A      3.670136  
     594A      3.692000   595A      3.716174   596A      3.724185  
     597A      3.737160   598A      3.755658   599A      3.762238  
     600A      3.771066   601A      3.787420   602A      3.815700  
     603A      3.827024   604A      3.838519   605A      3.852884  
     606A      3.869085   607A      3.905080   608A      3.911356  
     609A      3.924924   610A      3.937009   611A      3.940375  
     612A      3.972682   613A      3.981443   614A      3.996896  
     615A      4.007550   616A      4.015627   617A      4.021363  
     618A      4.034247   619A      4.037682   620A      4.040624  
     621A      4.053581   622A      4.064878   623A      4.066693  
     624A      4.075037   625A      4.078786   626A      4.088551  
     627A      4.096097   628A      4.099591   629A      4.106101  
     630A      4.112375   631A      4.123617   632A      4.126263  
     633A      4.135016   634A      4.149600   635A      4.159146  
     636A      4.170929   637A      4.175522   638A      4.181210  
     639A      4.192887   640A      4.194891   641A      4.210653  
     642A      4.225999   643A      4.232111   644A      4.240454  
     645A      4.245965   646A      4.249866   647A      4.254431  
     648A      4.259876   649A      4.273715   650A      4.283724  
     651A      4.286551   652A      4.291133   653A      4.299876  
     654A      4.308969   655A      4.333381   656A      4.338825  
     657A      4.345695   658A      4.347946   659A      4.357916  
     660A      4.363998   661A      4.378649   662A      4.399212  
     663A      4.407258   664A      4.413608   665A      4.424758  
     666A      4.428857   667A      4.430604   668A      4.440163  
     669A      4.452219   670A      4.456399   671A      4.467089  
     672A      4.483772   673A      4.492805   674A      4.500720  
     675A      4.508139   676A      4.521465   677A      4.529151  
     678A      4.535826   679A      4.558436   680A      4.571925  
     681A      4.574309   682A      4.587579   683A      4.606246  
     684A      4.619004   685A      4.625957   686A      4.634283  
     687A      4.650701   688A      4.661346   689A      4.673865  
     690A      4.686826   691A      4.691416   692A      4.702088  
     693A      4.709082   694A      4.716183   695A      4.721734  
     696A      4.727508   697A      4.742160   698A      4.748743  
     699A      4.753170   700A      4.753525   701A      4.763209  
     702A      4.783707   703A      4.787854   704A      4.792513  
     705A      4.795848   706A      4.804606   707A      4.821108  
     708A      4.829786   709A      4.838024   710A      4.845299  
     711A      4.849824   712A      4.855391   713A      4.864051  
     714A      4.873045   715A      4.884405   716A      4.906257  
     717A      4.913957   718A      4.916303   719A      4.931352  
     720A      4.936937   721A      4.937723   722A      4.947156  
     723A      4.953681   724A      4.960969   725A      4.971501  
     726A      4.977188   727A      4.978244   728A      4.985239  
     729A      4.992688   730A      4.997378   731A      4.999944  
     732A      5.030301   733A      5.033456   734A      5.038864  
     735A      5.044936   736A      5.049551   737A      5.054060  
     738A      5.075617   739A      5.082187   740A      5.092238  
     741A      5.093364   742A      5.099975   743A      5.103157  
     744A      5.106602   745A      5.118880   746A      5.140045  
     747A      5.152769   748A      5.155797   749A      5.182425  
     750A      5.183904   751A      5.186934   752A      5.194573  
     753A      5.222023   754A      5.244741   755A      5.252805  
     756A      5.267574   757A      5.284705   758A      5.290825  
     759A      5.294096   760A      5.309844   761A      5.313379  
     762A      5.335828   763A      5.344876   764A      5.345719  
     765A      5.365974   766A      5.371909   767A      5.381821  
     768A      5.403357   769A      5.419088   770A      5.421853  
     771A      5.427069   772A      5.439675   773A      5.461555  
     774A      5.465232   775A      5.468809   776A      5.482587  
     777A      5.489281   778A      5.498508   779A      5.507668  
     780A      5.508765   781A      5.512886   782A      5.513452  
     783A      5.518741   784A      5.519766   785A      5.531621  
     786A      5.543670   787A      5.550473   788A      5.556003  
     789A      5.558765   790A      5.566758   791A      5.582731  
     792A      5.587872   793A      5.592330   794A      5.609068  
     795A      5.613362   796A      5.633668   797A      5.636376  
     798A      5.654064   799A      5.672633   800A      5.679232  
     801A      5.692308   802A      5.714623   803A      5.715655  
     804A      5.729792   805A      5.732254   806A      5.753545  
     807A      5.762750   808A      5.764365   809A      5.794660  
     810A      5.801362   811A      5.809760   812A      5.823231  
     813A      5.824476   814A      5.841517   815A      5.854420  
     816A      5.857080   817A      5.869595   818A      5.871296  
     819A      5.878086   820A      5.890038   821A      5.906040  
     822A      5.925568   823A      5.930576   824A      5.956157  
     825A      5.965327   826A      5.971107   827A      5.996851  
     828A      6.009625   829A      6.019242   830A      6.051474  
     831A      6.058338   832A      6.061027   833A      6.079798  
     834A      6.087257   835A      6.093892   836A      6.113821  
     837A      6.131871   838A      6.137376   839A      6.173288  
     840A      6.176432   841A      6.207011   842A      6.216478  
     843A      6.244582   844A      6.251866   845A      6.272377  
     846A      6.281279   847A      6.306901   848A      6.336955  
     849A      6.348363   850A      6.351192   851A      6.368266  
     852A      6.377156   853A      6.428485   854A      6.441621  
     855A      6.453977   856A      6.461034   857A      6.500835  
     858A      6.537424   859A      6.613325   860A      6.628686  
     861A      6.633924   862A      6.662240   863A      6.677312  
     864A      6.714798   865A      6.764063   866A      6.847664  
     867A      6.863442   868A      6.900519   869A      6.920805  
     870A      6.929165   871A      6.969153   872A      6.983530  
     873A      7.032719   874A      7.048888   875A      7.063849  
     876A      7.157463   877A      7.203193   878A      7.265570  
     879A      7.322605   880A      7.353823   881A      7.384106  
     882A      7.416415   883A      7.525927   884A      7.541171  
     885A      7.633123   886A      7.645879   887A      7.764143  
     888A      7.849782   889A      7.904316   890A      7.930814  
     891A      7.943719   892A      7.959564   893A      7.985623  
     894A      8.006476   895A      8.093214   896A      8.391538  
     897A      8.455609   898A      8.500298   899A      8.517321  
     900A      8.523949   901A      8.954373   902A      9.019812  
     903A      9.075768   904A      9.247647   905A      9.678545  
     906A     10.556606   907A     10.575067   908A     10.805444  
     909A     10.934055   910A     11.100745   911A     17.907492  
     912A     18.093017   913A     18.907049   914A     19.565700  
     915A     20.110507   916A     53.008119   917A     53.545471  
     918A     55.063011   919A     56.428683   920A     57.446633  

    Final Occupation by Irrep:
              A 
    DOCC [    20 ]

  @DF-RHF Final Energy:  -195.23013943286989

   => Energetics <=

    Nuclear Repulsion Energy =            188.3835120017770066
    One-Electron Energy =                -635.5564461519549013
    Two-Electron Energy =                 251.9427947173079758
    Total Energy =                       -195.2301394328698905

Computation Completed


Properties will be evaluated at   0.000000,   0.000000,   0.000000 [a0]

Properties computed using the SCF density matrix

  Nuclear Dipole Moment: [e a0]
     X:    -4.9749      Y:   -10.1625      Z:  -230.5992

  Electronic Dipole Moment: [e a0]
     X:     4.9687      Y:    10.1632      Z:   230.5973

  Dipole Moment: [e a0]
     X:    -0.0062      Y:     0.0008      Z:    -0.0019     Total:     0.0065

  Dipole Moment: [D]
     X:    -0.0156      Y:     0.0019      Z:    -0.0049     Total:     0.0165


*** tstop() called on node43.bme.utexas.edu at Fri Apr 24 22:57:01 2020
Module time:
	user time   =     356.18 seconds =       5.94 minutes
	system time =       5.36 seconds =       0.09 minutes
	total time  =         53 seconds =       0.88 minutes
Total time:
	user time   =    1073.42 seconds =      17.89 minutes
	system time =      15.22 seconds =       0.25 minutes
	total time  =        151 seconds =       2.52 minutes

  //>>>>>>>>>>>>>>>>>>>>>>>>>>>>>>>>>>>//
  //            Monomer B HF           //
  //<<<<<<<<<<<<<<<<<<<<<<<<<<<<<<<<<<<//


*** tstart() called on node43.bme.utexas.edu
*** at Fri Apr 24 22:57:02 2020

   => Loading Basis Set <=

    Name: AUG-CC-PVTZ
    Role: ORBITAL
    Keyword: BASIS
    atoms 1, 4, 7, 10, 13, 16, 19, 22, 25, 28                            entry C          line   239 file /home/liuchw/anaconda3/envs/psi4env/share/psi4/basis/aug-cc-pvtz.gbs 
    atoms 2-3, 5-6, 8-9, 11-12, 14-15, 17-18, 20-21, 23-24, 26-27, 29-30 entry H          line    40 file /home/liuchw/anaconda3/envs/psi4env/share/psi4/basis/aug-cc-pvtz.gbs 


         ---------------------------------------------------------
                                   SCF
               by Justin Turney, Rob Parrish, Andy Simmonett
                          and Daniel G. A. Smith
                              RHF Reference
                        8 Threads,  47683 MiB Core
         ---------------------------------------------------------

  ==> Geometry <==

    Molecular point group: c1
    Full point group: C1

    Geometry (in Angstrom), charge = 0, multiplicity = 1:

       Center              X                  Y                   Z               Mass       
    ------------   -----------------  -----------------  -----------------  -----------------
      Gh(C)           0.937573595937    -0.934260103033    -2.873939267529    12.000000000000
      Gh(H)           1.485263595937    -1.320770103033    -3.732469267529     1.007825032230
      Gh(H)           1.402073595937    -1.357190103033    -1.984859267529     1.007825032230
      Gh(C)           0.971643595937     0.616099896967    -2.870389267529    12.000000000000
      Gh(H)           1.491283595937     0.980689896967    -3.755939267529     1.007825032230
      Gh(H)           1.496953595937     1.017409896967    -2.005349267529     1.007825032230
      Gh(C)          -0.498756404063     1.059909896967    -2.912009267529    12.000000000000
      Gh(H)          -0.635576404063     2.022469896967    -3.402319267529     1.007825032230
      Gh(H)          -0.894046404063     1.146659896967    -1.897819267529     1.007825032230
      Gh(C)          -1.201416404063    -0.095210103033    -3.622539267529    12.000000000000
      Gh(H)          -0.968186404063    -0.069240103033    -4.689689267529     1.007825032230
      Gh(H)          -2.284966404063    -0.075970103033    -3.514619267529     1.007825032230
      Gh(C)          -0.549966404063    -1.317300103033    -2.976579267529    12.000000000000
      Gh(H)          -0.709696404063    -2.239430103033    -3.532899267529     1.007825032230
      Gh(H)          -0.970156404063    -1.457820103033    -1.979139267529     1.007825032230
         C           -1.110206404063    -0.343750103033     2.915840732471    12.000000000000
         H           -1.443336404063    -0.107050103033     1.903250732471     1.007825032230
         H           -1.914996404063    -0.886840103033     3.408820732471     1.007825032230
         C            0.203393595937    -1.139290103033     2.868080732471    12.000000000000
         H            0.253343595937    -1.797030103033     2.001940732471     1.007825032230
         H            0.283683595937    -1.770650103033     3.752460732471     1.007825032230
         C            1.332713595937    -0.076580103033     2.868670732471    12.000000000000
         H            1.953983595937    -0.137260103033     1.976800732471     1.007825032230
         H            1.990123595937    -0.226470103033     3.724080732471     1.007825032230
         C            0.622543595937     1.285089896967     2.976540732471    12.000000000000
         H            0.442673595937     1.693579896967     1.980540732471     1.007825032230
         H            1.202923595937     2.019489896967     3.532510732471     1.007825032230
         C           -0.719506404063     0.950609896967     3.626350732471    12.000000000000
         H           -1.459176404063     1.743119896967     3.521470732471     1.007825032230
         H           -0.579476404063     0.758969896967     4.692900732471     1.007825032230

  Running in c1 symmetry.

  Rotational constants: A =      0.06551  B =      0.01151  C =      0.01149 [cm^-1]
  Rotational constants: A =   1963.83700  B =    344.99924  C =    344.42916 [MHz]
  Nuclear repulsion =  188.378676246838836

  Charge       = 0
  Multiplicity = 1
  Electrons    = 40
  Nalpha       = 20
  Nbeta        = 20

  ==> Algorithm <==

  SCF Algorithm Type is DF.
  DIIS enabled.
  MOM disabled.
  Fractional occupation disabled.
  Guess Type is SAD.
  Energy threshold   = 1.00e-08
  Density threshold  = 1.00e-08
  Integral threshold = 0.00e+00

  ==> Primary Basis <==

  Basis Set: AUG-CC-PVTZ
    Blend: AUG-CC-PVTZ
    Number of shells: 320
    Number of basis function: 920
    Number of Cartesian functions: 1050
    Spherical Harmonics?: true
    Max angular momentum: 3

   => Loading Basis Set <=

    Name: (AUG-CC-PVTZ AUX)
    Role: JKFIT
    Keyword: DF_BASIS_SCF
    atoms 1, 4, 7, 10, 13, 16, 19, 22, 25, 28                            entry C          line   162 file /home/liuchw/anaconda3/envs/psi4env/share/psi4/basis/aug-cc-pvtz-jkfit.gbs 
    atoms 2-3, 5-6, 8-9, 11-12, 14-15, 17-18, 20-21, 23-24, 26-27, 29-30 entry H          line    70 file /home/liuchw/anaconda3/envs/psi4env/share/psi4/basis/aug-cc-pvtz-jkfit.gbs 

  ==> Pre-Iterations <==

   -------------------------------------------------------
    Irrep   Nso     Nmo     Nalpha   Nbeta   Ndocc  Nsocc
   -------------------------------------------------------
     A        920     920       0       0       0       0
   -------------------------------------------------------
    Total     920     920      20      20      20       0
   -------------------------------------------------------

  ==> Integral Setup <==

  ==> DiskDFJK: Density-Fitted J/K Matrices <==

    J tasked:                  Yes
    K tasked:                  Yes
    wK tasked:                  No
    OpenMP threads:              8
    Integrals threads:           8
    Memory [MiB]:            35762
    Algorithm:                Core
    Integral Cache:           LOAD
    Schwarz Cutoff:          1E-12
    Fitting Condition:       1E-10

   => Auxiliary Basis Set <=

  Basis Set: (AUG-CC-PVTZ AUX)
    Blend: AUG-CC-PVTZ-JKFIT
    Number of shells: 580
    Number of basis function: 1960
    Number of Cartesian functions: 2410
    Spherical Harmonics?: true
    Max angular momentum: 4

  Minimum eigenvalue in the overlap matrix is 2.3088256709E-06.
  Using Symmetric Orthogonalization.

  SCF Guess: Superposition of Atomic Densities via on-the-fly atomic UHF.

  ==> Iterations <==

                           Total Energy        Delta E     RMS |[F,P]|

   @DF-RHF iter SAD:  -195.14900581134009   -1.95149e+02   0.00000e+00 
   @DF-RHF iter   1:  -194.97488178524000    1.74124e-01   7.04339e-04 DIIS
   @DF-RHF iter   2:  -195.15703426294115   -1.82152e-01   4.06825e-04 DIIS
   @DF-RHF iter   3:  -195.22686969767898   -6.98354e-02   6.11519e-05 DIIS
   @DF-RHF iter   4:  -195.23003653440497   -3.16684e-03   9.64421e-06 DIIS
   @DF-RHF iter   5:  -195.23013974829726   -1.03214e-04   2.10542e-06 DIIS
   @DF-RHF iter   6:  -195.23014467702421   -4.92873e-06   2.65314e-07 DIIS
   @DF-RHF iter   7:  -195.23014475164103   -7.46168e-08   4.83996e-08 DIIS
   @DF-RHF iter   8:  -195.23014475311561   -1.47458e-09   1.67504e-08 DIIS
   @DF-RHF iter   9:  -195.23014475327881   -1.63197e-10   2.35947e-09 DIIS
  Energy and wave function converged.


  ==> Post-Iterations <==

    Orbital Energies [Eh]
    ---------------------

    Doubly Occupied:                                                      

       1A    -11.210422     2A    -11.210043     3A    -11.210013  
       4A    -11.209401     5A    -11.209279     6A     -1.116276  
       7A     -0.956685     8A     -0.955844     9A     -0.776889  
      10A     -0.767196    11A     -0.649697    12A     -0.644635  
      13A     -0.569793    14A     -0.567944    15A     -0.475253  
      16A     -0.474343    17A     -0.463481    18A     -0.460298  
      19A     -0.459143    20A     -0.448717  

    Virtual:                                                              

      21A      0.018278    22A      0.030972    23A      0.032080  
      24A      0.032588    25A      0.041553    26A      0.042126  
      27A      0.042931    28A      0.050258    29A      0.050943  
      30A      0.057933    31A      0.062220    32A      0.062491  
      33A      0.063033    34A      0.063399    35A      0.064775  
      36A      0.084190    37A      0.085893    38A      0.087270  
      39A      0.089693    40A      0.092269    41A      0.103048  
      42A      0.106448    43A      0.109001    44A      0.113915  
      45A      0.115190    46A      0.119383    47A      0.123741  
      48A      0.126066    49A      0.128538    50A      0.130097  
      51A      0.133968    52A      0.138478    53A      0.141969  
      54A      0.143717    55A      0.145557    56A      0.146458  
      57A      0.147570    58A      0.151681    59A      0.155033  
      60A      0.156822    61A      0.159630    62A      0.162253  
      63A      0.166339    64A      0.166678    65A      0.169868  
      66A      0.173987    67A      0.178246    68A      0.179792  
      69A      0.181111    70A      0.185669    71A      0.190355  
      72A      0.192997    73A      0.195098    74A      0.197228  
      75A      0.206809    76A      0.218449    77A      0.219645  
      78A      0.226431    79A      0.230272    80A      0.237514  
      81A      0.244971    82A      0.252854    83A      0.269725  
      84A      0.277216    85A      0.280566    86A      0.283213  
      87A      0.286122    88A      0.288527    89A      0.293876  
      90A      0.296055    91A      0.301155    92A      0.303416  
      93A      0.308700    94A      0.311074    95A      0.315148  
      96A      0.318779    97A      0.321519    98A      0.323403  
      99A      0.329732   100A      0.330976   101A      0.332976  
     102A      0.333921   103A      0.342075   104A      0.343139  
     105A      0.345353   106A      0.347239   107A      0.351499  
     108A      0.353083   109A      0.354768   110A      0.356168  
     111A      0.361554   112A      0.363752   113A      0.365064  
     114A      0.368996   115A      0.372815   116A      0.376647  
     117A      0.383507   118A      0.386677   119A      0.387516  
     120A      0.390101   121A      0.393600   122A      0.395741  
     123A      0.401132   124A      0.403474   125A      0.405748  
     126A      0.410932   127A      0.411727   128A      0.416562  
     129A      0.420175   130A      0.424249   131A      0.426182  
     132A      0.428726   133A      0.433063   134A      0.435163  
     135A      0.435976   136A      0.441562   137A      0.443241  
     138A      0.448375   139A      0.453488   140A      0.457220  
     141A      0.464918   142A      0.469788   143A      0.471950  
     144A      0.479473   145A      0.484100   146A      0.485229  
     147A      0.486976   148A      0.494327   149A      0.502111  
     150A      0.503389   151A      0.505173   152A      0.511163  
     153A      0.512115   154A      0.516335   155A      0.517928  
     156A      0.518722   157A      0.526263   158A      0.530027  
     159A      0.530567   160A      0.534261   161A      0.540664  
     162A      0.540969   163A      0.543026   164A      0.549455  
     165A      0.554289   166A      0.559043   167A      0.560686  
     168A      0.562053   169A      0.564931   170A      0.568337  
     171A      0.573360   172A      0.576250   173A      0.582272  
     174A      0.586924   175A      0.593362   176A      0.595298  
     177A      0.597363   178A      0.599411   179A      0.602836  
     180A      0.605130   181A      0.613598   182A      0.614413  
     183A      0.618939   184A      0.624007   185A      0.625077  
     186A      0.630837   187A      0.632504   188A      0.638392  
     189A      0.644671   190A      0.648414   191A      0.653983  
     192A      0.655190   193A      0.656386   194A      0.659221  
     195A      0.664090   196A      0.665145   197A      0.668809  
     198A      0.671453   199A      0.678748   200A      0.680847  
     201A      0.689783   202A      0.691159   203A      0.693997  
     204A      0.702559   205A      0.707756   206A      0.711108  
     207A      0.713480   208A      0.721268   209A      0.724941  
     210A      0.730611   211A      0.731737   212A      0.734781  
     213A      0.736954   214A      0.741477   215A      0.747984  
     216A      0.759007   217A      0.762062   218A      0.769654  
     219A      0.776035   220A      0.777586   221A      0.778640  
     222A      0.787830   223A      0.798566   224A      0.802731  
     225A      0.811348   226A      0.814042   227A      0.822248  
     228A      0.829329   229A      0.832675   230A      0.833783  
     231A      0.844433   232A      0.848153   233A      0.857555  
     234A      0.859523   235A      0.862411   236A      0.870844  
     237A      0.873033   238A      0.879688   239A      0.888134  
     240A      0.899341   241A      0.905590   242A      0.907628  
     243A      0.910066   244A      0.917133   245A      0.919303  
     246A      0.931651   247A      0.941466   248A      0.948455  
     249A      0.949629   250A      0.955205   251A      0.960737  
     252A      0.963826   253A      0.970272   254A      0.978017  
     255A      0.979565   256A      0.995490   257A      0.998645  
     258A      1.005532   259A      1.006493   260A      1.008587  
     261A      1.018053   262A      1.023348   263A      1.030840  
     264A      1.035059   265A      1.038020   266A      1.040739  
     267A      1.044927   268A      1.050915   269A      1.053603  
     270A      1.060941   271A      1.066626   272A      1.069661  
     273A      1.079700   274A      1.082124   275A      1.083987  
     276A      1.088380   277A      1.091583   278A      1.093108  
     279A      1.101281   280A      1.102682   281A      1.110688  
     282A      1.111603   283A      1.116495   284A      1.118665  
     285A      1.125322   286A      1.125733   287A      1.129429  
     288A      1.130710   289A      1.132002   290A      1.137831  
     291A      1.139544   292A      1.148638   293A      1.150526  
     294A      1.158350   295A      1.165939   296A      1.171907  
     297A      1.175556   298A      1.177552   299A      1.179843  
     300A      1.186223   301A      1.188071   302A      1.193566  
     303A      1.199761   304A      1.202328   305A      1.205719  
     306A      1.209535   307A      1.214181   308A      1.217252  
     309A      1.222574   310A      1.225032   311A      1.237666  
     312A      1.244002   313A      1.247594   314A      1.250914  
     315A      1.254915   316A      1.258755   317A      1.263200  
     318A      1.269706   319A      1.270132   320A      1.276047  
     321A      1.281693   322A      1.282980   323A      1.287972  
     324A      1.292927   325A      1.294883   326A      1.299857  
     327A      1.301415   328A      1.308676   329A      1.313364  
     330A      1.321086   331A      1.324016   332A      1.325134  
     333A      1.329844   334A      1.338198   335A      1.341576  
     336A      1.355339   337A      1.355590   338A      1.361823  
     339A      1.365658   340A      1.371367   341A      1.375626  
     342A      1.382575   343A      1.389335   344A      1.393761  
     345A      1.396454   346A      1.401636   347A      1.406321  
     348A      1.409963   349A      1.423181   350A      1.429283  
     351A      1.433578   352A      1.440789   353A      1.442543  
     354A      1.444135   355A      1.446483   356A      1.453527  
     357A      1.458347   358A      1.465841   359A      1.470077  
     360A      1.474856   361A      1.480957   362A      1.485320  
     363A      1.490333   364A      1.495746   365A      1.500636  
     366A      1.503804   367A      1.508179   368A      1.513752  
     369A      1.520970   370A      1.521205   371A      1.527826  
     372A      1.530272   373A      1.537151   374A      1.542383  
     375A      1.547469   376A      1.550384   377A      1.554156  
     378A      1.558707   379A      1.563297   380A      1.564816  
     381A      1.573831   382A      1.575421   383A      1.580349  
     384A      1.585507   385A      1.590815   386A      1.594531  
     387A      1.596971   388A      1.602896   389A      1.606840  
     390A      1.616892   391A      1.628311   392A      1.630350  
     393A      1.640091   394A      1.646184   395A      1.650968  
[...]
     444A      1.979321   445A      1.988904   446A      1.995921  
     447A      1.999997   448A      2.001676   449A      2.004730  
     450A      2.010762   451A      2.024270   452A      2.033053  
     453A      2.038293   454A      2.039393   455A      2.043735  
     456A      2.045656   457A      2.049762   458A      2.064046  
     459A      2.073643   460A      2.078209   461A      2.085329  
     462A      2.088539   463A      2.095312   464A      2.101528  
     465A      2.107146   466A      2.112943   467A      2.117861  
     468A      2.122404   469A      2.125274   470A      2.138000  
     471A      2.144304   472A      2.148782   473A      2.154095  
     474A      2.161685   475A      2.164275   476A      2.168304  
     477A      2.178006   478A      2.187656   479A      2.193605  
     480A      2.201917   481A      2.221966   482A      2.223292  
     483A      2.230651   484A      2.238929   485A      2.240291  
     486A      2.247026   487A      2.255749   488A      2.260579  
     489A      2.264905   490A      2.277119   491A      2.284086  
     492A      2.290333   493A      2.303802   494A      2.304563  
     495A      2.311319   496A      2.317738   497A      2.322520  
     498A      2.325976   499A      2.332191   500A      2.338000  
     501A      2.343466   502A      2.353043   503A      2.354281  
     504A      2.361183   505A      2.365942   506A      2.374053  
     507A      2.390749   508A      2.407177   509A      2.413128  
     510A      2.422664   511A      2.426747   512A      2.432321  
     513A      2.439097   514A      2.457483   515A      2.464005  
     516A      2.467318   517A      2.474744   518A      2.491613  
     519A      2.506726   520A      2.512795   521A      2.530070  
     522A      2.540276   523A      2.542455   524A      2.553444  
     525A      2.560668   526A      2.566519   527A      2.579365  
     528A      2.583648   529A      2.586376   530A      2.596140  
     531A      2.608878   532A      2.610385   533A      2.617277  
     534A      2.648028   535A      2.652917   536A      2.660033  
     537A      2.669862   538A      2.680467   539A      2.690602  
     540A      2.693441   541A      2.701569   542A      2.708951  
     543A      2.715261   544A      2.734940   545A      2.739954  
     546A      2.758394   547A      2.779742   548A      2.784765  
     549A      2.801354   550A      2.820707   551A      2.839262  
     552A      2.845393   553A      2.848228   554A      2.865254  
     555A      2.876925   556A      2.901297   557A      2.934903  
     558A      2.943972   559A      2.965307   560A      2.981318  
     561A      2.993544   562A      3.015675   563A      3.047853  
     564A      3.049521   565A      3.065612   566A      3.092944  
     567A      3.110728   568A      3.191981   569A      3.207915  
     570A      3.230193   571A      3.261322   572A      3.333440  
     573A      3.346009   574A      3.376801   575A      3.378911  
     576A      3.382527   577A      3.401346   578A      3.412349  
     579A      3.419516   580A      3.437570   581A      3.484129  
     582A      3.515558   583A      3.522862   584A      3.527945  
     585A      3.549695   586A      3.571635   587A      3.573011  
     588A      3.581556   589A      3.613024   590A      3.617236  
     591A      3.625349   592A      3.650662   593A      3.670245  
     594A      3.692027   595A      3.716113   596A      3.724141  
     597A      3.737223   598A      3.755589   599A      3.762249  
     600A      3.771278   601A      3.787261   602A      3.815697  
     603A      3.826948   604A      3.838496   605A      3.852981  
     606A      3.869197   607A      3.905316   608A      3.911240  
     609A      3.924893   610A      3.936915   611A      3.940273  
     612A      3.972727   613A      3.981665   614A      3.996995  
     615A      4.007349   616A      4.015583   617A      4.021444  
     618A      4.034183   619A      4.037743   620A      4.040637  
     621A      4.053644   622A      4.064949   623A      4.066624  
     624A      4.075043   625A      4.078869   626A      4.088576  
     627A      4.095985   628A      4.099708   629A      4.106104  
     630A      4.112374   631A      4.123643   632A      4.126396  
     633A      4.135176   634A      4.149640   635A      4.159219  
     636A      4.171039   637A      4.175723   638A      4.181245  
     639A      4.192882   640A      4.194935   641A      4.210639  
     642A      4.225919   643A      4.232082   644A      4.240428  
     645A      4.246149   646A      4.249900   647A      4.254316  
     648A      4.259819   649A      4.273621   650A      4.283690  
     651A      4.286545   652A      4.291189   653A      4.299879  
     654A      4.308972   655A      4.333343   656A      4.338853  
     657A      4.345833   658A      4.347939   659A      4.357932  
     660A      4.363970   661A      4.378730   662A      4.399252  
     663A      4.407219   664A      4.413559   665A      4.424699  
     666A      4.428883   667A      4.430595   668A      4.440039  
     669A      4.452145   670A      4.456377   671A      4.466982  
     672A      4.483729   673A      4.492936   674A      4.500614  
     675A      4.508213   676A      4.521448   677A      4.529189  
     678A      4.535848   679A      4.558436   680A      4.571753  
     681A      4.574079   682A      4.587745   683A      4.606192  
     684A      4.618818   685A      4.625997   686A      4.634249  
     687A      4.650640   688A      4.661271   689A      4.673732  
     690A      4.686786   691A      4.691304   692A      4.702051  
     693A      4.709085   694A      4.716162   695A      4.721554  
     696A      4.727524   697A      4.742126   698A      4.748683  
     699A      4.753185   700A      4.753508   701A      4.763276  
     702A      4.783489   703A      4.787741   704A      4.792406  
     705A      4.795762   706A      4.804752   707A      4.821051  
     708A      4.829786   709A      4.838013   710A      4.845336  
     711A      4.849838   712A      4.855369   713A      4.864127  
     714A      4.873057   715A      4.884479   716A      4.906339  
     717A      4.914106   718A      4.916308   719A      4.931247  
     720A      4.937089   721A      4.937757   722A      4.946782  
     723A      4.953774   724A      4.961143   725A      4.971588  
     726A      4.977440   727A      4.978460   728A      4.985265  
     729A      4.992673   730A      4.997380   731A      4.999926  
     732A      5.030318   733A      5.033476   734A      5.038902  
     735A      5.044874   736A      5.049470   737A      5.054151  
     738A      5.075524   739A      5.082210   740A      5.092342  
     741A      5.093497   742A      5.099969   743A      5.103112  
     744A      5.106608   745A      5.118800   746A      5.140189  
     747A      5.152836   748A      5.155904   749A      5.182411  
     750A      5.183881   751A      5.186980   752A      5.194487  
     753A      5.221953   754A      5.244750   755A      5.253117  
     756A      5.267376   757A      5.284736   758A      5.290846  
     759A      5.294234   760A      5.309855   761A      5.313436  
     762A      5.335842   763A      5.345046   764A      5.345788  
     765A      5.365856   766A      5.372023   767A      5.381810  
     768A      5.403461   769A      5.419405   770A      5.421888  
     771A      5.427212   772A      5.439620   773A      5.461422  
     774A      5.465214   775A      5.468798   776A      5.482582  
     777A      5.489263   778A      5.498393   779A      5.507725  
     780A      5.508633   781A      5.512966   782A      5.513474  
     783A      5.518732   784A      5.519747   785A      5.531527  
     786A      5.543682   787A      5.550554   788A      5.555994  
     789A      5.558788   790A      5.566960   791A      5.582588  
     792A      5.587789   793A      5.592262   794A      5.609013  
     795A      5.613440   796A      5.633561   797A      5.636466  
     798A      5.653965   799A      5.672710   800A      5.679216  
     801A      5.692404   802A      5.714601   803A      5.715635  
     804A      5.729711   805A      5.732083   806A      5.753623  
     807A      5.762635   808A      5.764449   809A      5.794487  
     810A      5.801457   811A      5.809800   812A      5.823252  
     813A      5.824595   814A      5.841500   815A      5.854383  
     816A      5.857024   817A      5.869528   818A      5.871231  
     819A      5.878390   820A      5.890123   821A      5.905823  
     822A      5.925455   823A      5.930266   824A      5.955982  
     825A      5.965480   826A      5.971202   827A      5.996869  
     828A      6.009839   829A      6.019239   830A      6.051536  
     831A      6.058514   832A      6.061194   833A      6.079920  
     834A      6.087142   835A      6.093774   836A      6.113916  
     837A      6.131693   838A      6.137269   839A      6.173194  
     840A      6.176342   841A      6.207065   842A      6.216677  
     843A      6.244590   844A      6.252071   845A      6.272427  
     846A      6.281366   847A      6.306898   848A      6.336843  
     849A      6.348614   850A      6.351023   851A      6.368513  
     852A      6.377161   853A      6.428519   854A      6.441670  
     855A      6.454024   856A      6.460667   857A      6.500807  
     858A      6.537149   859A      6.613362   860A      6.628722  
     861A      6.634061   862A      6.662084   863A      6.677247  
     864A      6.714852   865A      6.764010   866A      6.847521  
     867A      6.862975   868A      6.900463   869A      6.920670  
     870A      6.929012   871A      6.969061   872A      6.983381  
     873A      7.032777   874A      7.048931   875A      7.063793  
     876A      7.157437   877A      7.203417   878A      7.265818  
     879A      7.322878   880A      7.353626   881A      7.384095  
     882A      7.416728   883A      7.526033   884A      7.540908  
     885A      7.633087   886A      7.645824   887A      7.764284  
     888A      7.849612   889A      7.904415   890A      7.930887  
     891A      7.943731   892A      7.959582   893A      7.985908  
     894A      8.006572   895A      8.093208   896A      8.391335  
     897A      8.455768   898A      8.500509   899A      8.517427  
     900A      8.524380   901A      8.954315   902A      9.019860  
     903A      9.075864   904A      9.247691   905A      9.677995  
     906A     10.556987   907A     10.575071   908A     10.804678  
     909A     10.933939   910A     11.100661   911A     17.908376  
     912A     18.091912   913A     18.909656   914A     19.567454  
     915A     20.110831   916A     53.006072   917A     53.547410  
     918A     55.058357   919A     56.424909   920A     57.445913  

    Final Occupation by Irrep:
              A 
    DOCC [    20 ]

  @DF-RHF Final Energy:  -195.23014475327881

   => Energetics <=

    Nuclear Repulsion Energy =            188.3786762468388361
    One-Electron Energy =                -635.5469346485074311
    Two-Electron Energy =                 251.9381136483897876
    Total Energy =                       -195.2301447532788075

Computation Completed


Properties will be evaluated at   0.000000,   0.000000,   0.000000 [a0]

Properties computed using the SCF density matrix

  Nuclear Dipole Moment: [e a0]
     X:     5.1086      Y:    10.1031      Z:   230.5989

  Electronic Dipole Moment: [e a0]
     X:    -5.1133      Y:   -10.0991      Z:  -230.5969

  Dipole Moment: [e a0]
     X:    -0.0046      Y:     0.0041      Z:     0.0020     Total:     0.0065

  Dipole Moment: [D]
     X:    -0.0118      Y:     0.0103      Z:     0.0050     Total:     0.0165


*** tstop() called on node43.bme.utexas.edu at Fri Apr 24 22:57:52 2020
Module time:
	user time   =     359.36 seconds =       5.99 minutes
	system time =       4.94 seconds =       0.08 minutes
	total time  =         50 seconds =       0.83 minutes
Total time:
	user time   =    1432.84 seconds =      23.88 minutes
	system time =      20.17 seconds =       0.34 minutes
	total time  =        202 seconds =       3.37 minutes
  Constructing Basis Sets for SAPT...

   => Loading Basis Set <=

    Name: (AUG-CC-PVTZ AUX)
    Role: RIFIT
    Keyword: DF_BASIS_SAPT
    atoms 1, 4, 7, 10, 13, 16, 19, 22, 25, 28                            entry C          line   148 file /home/liuchw/anaconda3/envs/psi4env/share/psi4/basis/aug-cc-pvtz-ri.gbs 
    atoms 2-3, 5-6, 8-9, 11-12, 14-15, 17-18, 20-21, 23-24, 26-27, 29-30 entry H          line    30 file /home/liuchw/anaconda3/envs/psi4env/share/psi4/basis/aug-cc-pvtz-ri.gbs 


  //>>>>>>>>>>>>>>>>>>>>>>>>>>>>>>>>>>>//
  //               SAPT2+              //
  //<<<<<<<<<<<<<<<<<<<<<<<<<<<<<<<<<<<//


*** tstart() called on node43.bme.utexas.edu
*** at Fri Apr 24 22:57:53 2020

        SAPT2+  
    Ed Hohenstein
     6 June 2009

      Orbital Information
  --------------------------
    NSO        =       920
    NMO        =       920
    NRI        =      1980
    NOCC A     =        20
    NOCC B     =        20
    FOCC A     =         5
    FOCC B     =         5
    NVIR A     =       900
    NVIR B     =       900

    Estimated memory usage: 20606.4 MB

    Natural Orbital Cutoff:   1.000E-06
    Disp(T3) Truncation:            Yes
    CCD (vv|vv) Truncation:         Yes
    MBPT T2 Truncation:             Yes

    Monomer A: 526 virtual orbitals dropped
    Monomer B: 526 virtual orbitals dropped

    Elst10,r            =     0.000010807726 [Eh]
    Exch10 (S^2)        =     0.000013210981 [Eh]
    Exch10              =     0.000013211028 [Eh]
    Ind20,r (A<-B)      =    -0.000000989081 [Eh]
    Ind20,r (B<-A)      =    -0.000000989108 [Eh]
    Ind20,r             =    -0.000001978190 [Eh]
    Exch-Ind20,r (A<-B) =     0.000000375113 [Eh]
    Exch-Ind20,r (B<-A) =     0.000000375108 [Eh]
    Exch-Ind20,r        =     0.000000750221 [Eh]
    Disp20              =    -0.000837511581 [Eh]
    Disp20 (NO)         =    -0.000808425396 [Eh]
    Exch-Disp20         =     0.000002934539 [Eh]
    Elst12,r            =    -0.000002662054 [Eh]
    Exch11              =    -0.000000109541 [Eh]
    Exch12              =     0.000003300283 [Eh]
    Ind22               =    -0.000000171884 [Eh]
    Disp21              =     0.000131926197 [Eh]
    Disp22 (SDQ)        =     0.000022151295 [Eh]

    (i =   1 of  15)        538 seconds
    (i =   2 of  15)       1076 seconds
    (i =   3 of  15)       1613 seconds
    (i =   4 of  15)       2153 seconds
    (i =   5 of  15)       2699 seconds
    (i =   6 of  15)       3246 seconds
    (i =   7 of  15)       3787 seconds
    (i =   8 of  15)       4331 seconds
    (i =   9 of  15)       4871 seconds
    (i =  10 of  15)       5415 seconds
    (i =  11 of  15)       5956 seconds
    (i =  12 of  15)       6494 seconds
    (i =  13 of  15)       7029 seconds
    (i =  14 of  15)       7569 seconds
    (i =  15 of  15)       8107 seconds

    Disp220 (T)         =    -0.000069500199 [Eh]

    (i =   1 of  15)        542 seconds
    (i =   2 of  15)       1079 seconds
    (i =   3 of  15)       1613 seconds
    (i =   4 of  15)       2150 seconds
    (i =   5 of  15)       2685 seconds
    (i =   6 of  15)       3225 seconds
    (i =   7 of  15)       3765 seconds
    (i =   8 of  15)       4302 seconds
    (i =   9 of  15)       4840 seconds
    (i =  10 of  15)       5378 seconds
    (i =  11 of  15)       5915 seconds
    (i =  12 of  15)       6455 seconds
    (i =  13 of  15)       6997 seconds
    (i =  14 of  15)       7536 seconds
    (i =  15 of  15)       8077 seconds

    Disp202 (T)         =    -0.000069497771 [Eh]

    Disp22 (T)          =    -0.000138997970 [Eh]

    Est. Disp220 (T)    =    -0.000072000734 [Eh]
    Est. Disp202 (T)    =    -0.000071998218 [Eh]

    Est. Disp22 (T)     =    -0.000143998952 [Eh]

    SAPT Results 
  --------------------------------------------------------------------------------------------------------
    Electrostatics                  0.00814567 [mEh]       0.00511149 [kcal/mol]       0.02138646 [kJ/mol]
      Elst10,r                      0.01080773 [mEh]       0.00678195 [kcal/mol]       0.02837568 [kJ/mol]
      Elst12,r                     -0.00266205 [mEh]      -0.00167046 [kcal/mol]      -0.00698922 [kJ/mol]

    Exchange                        0.01640177 [mEh]       0.01029227 [kcal/mol]       0.04306284 [kJ/mol]
      Exch10                        0.01321103 [mEh]       0.00829005 [kcal/mol]       0.03468555 [kJ/mol]
      Exch10(S^2)                   0.01321098 [mEh]       0.00829002 [kcal/mol]       0.03468543 [kJ/mol]
      Exch11(S^2)                  -0.00010954 [mEh]      -0.00006874 [kcal/mol]      -0.00028760 [kJ/mol]
      Exch12(S^2)                   0.00330028 [mEh]       0.00207096 [kcal/mol]       0.00866489 [kJ/mol]

    Induction                      -0.00257847 [mEh]      -0.00161801 [kcal/mol]      -0.00676976 [kJ/mol]
      Ind20,r                      -0.00197819 [mEh]      -0.00124133 [kcal/mol]      -0.00519374 [kJ/mol]
      Ind22                        -0.00017188 [mEh]      -0.00010786 [kcal/mol]      -0.00045128 [kJ/mol]
      Exch-Ind20,r                  0.00075022 [mEh]       0.00047077 [kcal/mol]       0.00196970 [kJ/mol]
      Exch-Ind22                    0.00006519 [mEh]       0.00004091 [kcal/mol]       0.00017115 [kJ/mol]
      delta HF,r (2)               -0.00124380 [mEh]      -0.00078050 [kcal/mol]      -0.00326560 [kJ/mol]

    Dispersion                     -0.82449850 [mEh]      -0.51738062 [kcal/mol]      -2.16472052 [kJ/mol]
      Disp20                       -0.83751158 [mEh]      -0.52554645 [kcal/mol]      -2.19888635 [kJ/mol]
      Disp21                        0.13192620 [mEh]       0.08278494 [kcal/mol]       0.34637218 [kJ/mol]
      Disp22 (SDQ)                  0.02215130 [mEh]       0.01390015 [kcal/mol]       0.05815822 [kJ/mol]
      Disp22 (T)                   -0.13899797 [mEh]      -0.08722254 [kcal/mol]      -0.36493912 [kJ/mol]
      Est. Disp22 (T)              -0.14399895 [mEh]      -0.09036071 [kcal/mol]      -0.37806920 [kJ/mol]
      Exch-Disp20                   0.00293454 [mEh]       0.00184145 [kcal/mol]       0.00770463 [kJ/mol]

  Total HF                          0.02154698 [mEh]       0.01352094 [kcal/mol]       0.05657160 [kJ/mol]
  Total SAPT0                      -0.81303006 [mEh]      -0.51018406 [kcal/mol]      -2.13461012 [kJ/mol]
  Total SAPT2                      -0.81260807 [mEh]      -0.50991926 [kcal/mol]      -2.13350219 [kJ/mol]
  Total SAPT2+                     -0.80252953 [mEh]      -0.50359488 [kcal/mol]      -2.10704098 [kJ/mol]

  Special recipe for scaled SAPT0 (see Manual):
    Electrostatics sSAPT0           0.01080773 [mEh]       0.00678195 [kcal/mol]       0.02837568 [kJ/mol]
    Exchange sSAPT0                 0.01321103 [mEh]       0.00829005 [kcal/mol]       0.03468555 [kJ/mol]
    Induction sSAPT0               -0.00247176 [mEh]      -0.00155105 [kcal/mol]      -0.00648961 [kJ/mol]
    Dispersion sSAPT0              -0.83457701 [mEh]      -0.52370498 [kcal/mol]      -2.19118164 [kJ/mol]
  Total sSAPT0                     -0.81303002 [mEh]      -0.51018404 [kcal/mol]      -2.13461002 [kJ/mol]
  --------------------------------------------------------------------------------------------------------

*** tstop() called on node43.bme.utexas.edu at Sat Apr 25 04:31:04 2020
Module time:
	user time   =  150375.71 seconds =    2506.26 minutes
	system time =    2286.19 seconds =      38.10 minutes
	total time  =      19991 seconds =     333.18 minutes
Total time:
	user time   =  151809.51 seconds =    2530.16 minutes
	system time =    2306.43 seconds =      38.44 minutes
	total time  =      20194 seconds =     336.57 minutes

    Psi4 stopped on: Saturday, 25 April 2020 04:31AM
    Psi4 wall time for execution: 5:36:34.35

*** Psi4 exiting successfully. Buy a developer a beer!
