    -----------------------------------------------------------------------
          PSI4: An Open-Source Ab Initio Electronic Structure Package
                              PSI 4.0.0-beta4 Driver

    J. M. Turney, A. C. Simmonett, R. M. Parrish, E. G. Hohenstein,
    F. A. Evangelista, J. T. Fermann, B. J. Mintz, L. A. Burns, J. J. Wilke,
    M. L. Abrams, N. J. Russ, M. L. Leininger, C. L. Janssen, E. T. Seidl,
    W. D. Allen, H. F. Schaefer, R. A. King, E. F. Valeev, C. D. Sherrill,
    and T. D. Crawford, WIREs Comput. Mol. Sci., (2011) (doi: 10.1002/wcms.93)

                         Additional Contributions by
    A. E. DePrince, M. Saitow, U. Bozkaya, A. Yu. Sokolov
    -----------------------------------------------------------------------

    Process ID:  48004
    PSI4DATADIR: /home/xzhu216/psi4/psi4-install/share/psi

    Using LocalCommunicator (Number of processes = 1)

    Memory level set to 256.000 MB

  ==> Input File <==

--------------------------------------------------------------------------
#psi4
#
memory 40 gb

molecule Uracil_Pentane {
0 1
    N    -0.208904778    -0.964582623     0.534761041
    H    -0.224150986    -1.973109396     0.605083859
    C    -1.446342078    -0.344581120     0.306658576
    O    -2.461236755    -1.010791610     0.197891960
    C    -1.357782195     1.103185589     0.228143785
    H    -2.256572142     1.667730712     0.049847314
    C    -0.163003197     1.709892571     0.381126322
    H    -0.046290462     2.782445909     0.333349682
    N     0.985452099     1.000824122     0.611206364
    H     1.867559779     1.466927772     0.744784302
    C     1.027020915    -0.379170109     0.712647232
    O     2.049196699    -0.997395477     0.937259786
--
0 1
    C     1.069677899     2.347722169     3.203668642
    H     0.638829285     2.658770864     2.250886075
    H     0.435443988     2.753155290     3.991916293
    H     2.052557925     2.808169581     3.296790128
    C     1.142694363     0.828851219     3.293186983
    H     1.573078007     0.539288363     4.254477938
    H     1.817283955     0.437690668     2.528068818
    C    -0.222090827     0.170684567     3.138370224
    H    -0.893335087     0.539560377     3.919989465
    H    -0.669561696     0.480949584     2.188469998
    C    -0.165801889    -1.350001984     3.198005720
    H     0.257803607    -1.652432399     4.158641907
    H     0.525719854    -1.711880923     2.433503292
    C    -1.535084811    -1.991875194     3.014232069
    H    -1.973463806    -1.718417511     2.054046560
    H    -1.478146018    -3.078643581     3.058289257
    H    -2.223047589    -1.663529211     3.793465116
units angstrom
no_reorient  #important for SAPT in psi4, default
symmetry c1  #important for SAPT in psi4, default
}

set {
basis aug-cc-pVTZ
scf_type DF
freeze_core True
}
energy('sapt2+')
--------------------------------------------------------------------------

  Memory set to  40.000 GiB by Python script.

  //>>>>>>>>>>>>>>>>>>>>>>>>>>>>>>>>>>>//
  //              Dimer HF             //
  //<<<<<<<<<<<<<<<<<<<<<<<<<<<<<<<<<<<//


  No DF_BASIS_SCF auxiliary basis selected, defaulting to aug-cc-pvtz-jkfit


*** tstart() called on genome.bme.utexas.edu
*** at Thu Apr  3 20:11:03 2014


         ---------------------------------------------------------
                                   SCF
            by Justin Turney, Rob Parrish, and Andy Simmonett
                              RHF Reference
                        8 Threads,  40000 MiB Core
         ---------------------------------------------------------

  ==> Geometry <==

    Molecular point group: c1
    Full point group: C1

    Geometry (in Angstrom), charge = 0, multiplicity = 1:

       Center              X                  Y                   Z       
    ------------   -----------------  -----------------  -----------------
           N         -0.121321180433    -0.953143496849    -1.007093965024
           H         -0.136567388433    -1.961670269849    -0.936771147024
           C         -1.358758480433    -0.333141993849    -1.235196430024
           O         -2.373653157433    -0.999352483849    -1.343963046024
           C         -1.270198597433     1.114624715151    -1.313711221024
           H         -2.168988544433     1.679169838151    -1.492007692024
           C         -0.075419599433     1.721331697151    -1.160728684024
           H          0.041293135567     2.793885035151    -1.208505324024
           N          1.073035696567     1.012263248151    -0.930648642024
           H          1.955143376567     1.478366898151    -0.797070704024
           C          1.114604512567    -0.367730982849    -0.829207774024
           O          2.136780296567    -0.985956350849    -0.604595220024
           C          1.157261496567     2.359161295151     1.661813635976
           H          0.726412882567     2.670209990151     0.709031068976
           H          0.523027585567     2.764594416151     2.450061286976
           H          2.140141522567     2.819608707151     1.754935121976
           C          1.230277960567     0.840290345151     1.751331976976
           H          1.660661604567     0.550727489151     2.712622931976
           H          1.904867552567     0.449129794151     0.986213811976
           C         -0.134507229433     0.182123693151     1.596515217976
           H         -0.805751489433     0.550999503151     2.378134458976
           H         -0.581978098433     0.492388710151     0.646614991976
           C         -0.078218291433    -1.338562857849     1.656150713976
           H          0.345387204567    -1.640993272849     2.616786900976
           H          0.613303451567    -1.700441796849     0.891648285976
           C         -1.447501213433    -1.980436067849     1.472377062976
           H         -1.885880208433    -1.706978384849     0.512191553976
           H         -1.390562420433    -3.067204454849     1.516434250976
           H         -2.135463991433    -1.652090084849     2.251610109976

  Running in c1 symmetry.

  Nuclear repulsion =  903.859263504631372

  Charge       = 0
  Multiplicity = 1
  Electrons    = 100
  Nalpha       = 50
  Nbeta        = 50

  ==> Algorithm <==

  SCF Algorithm Type is DF.
  DIIS enabled.
  MOM disabled.
  Fractional occupation disabled.
  Guess Type is CORE.
  Energy threshold   = 1.00e-08
  Density threshold  = 1.00e-08
  Integral threshold = 0.00e+00

  ==> Primary Basis <==

  Basis Set: AUG-CC-PVTZ
    Number of shells: 326
    Number of basis function: 966
    Number of Cartesian functions: 1115
    Spherical Harmonics?: true
    Max angular momentum: 3

  ==> Pre-Iterations <==

   -------------------------------------------------------
    Irrep   Nso     Nmo     Nalpha   Nbeta   Ndocc  Nsocc
   -------------------------------------------------------
     A        966     966       0       0       0       0
   -------------------------------------------------------
    Total     966     966      50      50      50       0
   -------------------------------------------------------

 OEINTS: Wrapper to libmints.
   by Justin Turney

   Calculation information:
      Number of atoms:                  29
      Number of AO shells:             326
      Number of SO shells:             326
      Number of primitives:            566
      Number of atomic orbitals:      1115
      Number of basis functions:       966

      Number of irreps:                  1
      Number of functions per irrep: [ 966 ]

      Overlap, kinetic, potential, dipole, and quadrupole integrals
        stored in file 35.

  ==> Integral Setup <==

  ==> DFJK: Density-Fitted J/K Matrices <==

    J tasked:                  Yes
    K tasked:                  Yes
    wK tasked:                  No
    OpenMP threads:              8
    Integrals threads:           8
    Memory (MB):             28610
    Algorithm:                Core
    Integral Cache:           SAVE
    Schwarz Cutoff:          0E+00
    Fitting Condition:       1E-12

   => Auxiliary Basis Set <=

  Basis Set: aug-cc-pvtz-jkfit
    Number of shells: 614
    Number of basis function: 2088
    Number of Cartesian functions: 2583
    Spherical Harmonics?: true
    Max angular momentum: 4

  Minimum eigenvalue in the overlap matrix is 5.4123404944E-07.
  Using Symmetric Orthogonalization.
  SCF Guess: Core (One-Electron) Hamiltonian.

  Guess energy:  -524.41168885370666

  ==> Iterations <==

                        Total Energy        Delta E     RMS |[F,P]|

   @RHF iter   1:  -323.76911024538890   -3.23769e+02   2.39703e-02 
   @RHF iter   2:  -226.37807044950637    9.73910e+01   1.77258e-02 DIIS
   @RHF iter   3:  -421.14143801478417   -1.94763e+02   1.31240e-02 DIIS
   @RHF iter   4:  -341.89262102665680    7.92488e+01   2.09997e-02 DIIS
   @RHF iter   5:  -591.17668417957339   -2.49284e+02   4.88369e-03 DIIS
   @RHF iter   6:  -550.93657453627679    4.02401e+01   9.74768e-03 DIIS
   @RHF iter   7:  -607.52393403465680   -5.65874e+01   1.78393e-03 DIIS
   @RHF iter   8:  -608.49985654602870   -9.75923e-01   9.49653e-04 DIIS
   @RHF iter   9:  -608.89293037472612   -3.93074e-01   2.79295e-04 DIIS
   @RHF iter  10:  -608.93986460621613   -4.69342e-02   8.40840e-05 DIIS
   @RHF iter  11:  -608.94449657578252   -4.63197e-03   3.53449e-05 DIIS
   @RHF iter  12:  -608.94571837532044   -1.22180e-03   1.70936e-05 DIIS
   @RHF iter  13:  -608.94611116158558   -3.92786e-04   7.35877e-06 DIIS
   @RHF iter  14:  -608.94619617170542   -8.50101e-05   3.08274e-06 DIIS
   @RHF iter  15:  -608.94620916614781   -1.29944e-05   9.92815e-07 DIIS
   @RHF iter  16:  -608.94621076298154   -1.59683e-06   4.26596e-07 DIIS
   @RHF iter  17:  -608.94621102402289   -2.61041e-07   1.34078e-07 DIIS
   @RHF iter  18:  -608.94621104922044   -2.51976e-08   5.62072e-08 DIIS
   @RHF iter  19:  -608.94621105275860   -3.53816e-09   1.41147e-08 DIIS
   @RHF iter  20:  -608.94621105294937   -1.90767e-10   5.54428e-09 DIIS

  ==> Post-Iterations <==

	Orbital Energies (a.u.)
	-----------------------

	Doubly Occupied:                                                      

	   1A    -20.550778     2A    -20.543923     3A    -15.642125  
	   4A    -15.624728     5A    -11.420697     6A    -11.382982  
	   7A    -11.340651     8A    -11.255901     9A    -11.222113  
	  10A    -11.213969    11A    -11.208856    12A    -11.204712  
	  13A    -11.193071    14A     -1.443387    15A     -1.404254  
	  16A     -1.318628    17A     -1.250593    18A     -1.092995  
	  19A     -1.087508    20A     -1.019810    21A     -0.944569  
	  22A     -0.920836    23A     -0.903921    24A     -0.825638  
	  25A     -0.815013    26A     -0.787750    27A     -0.767757  
	  28A     -0.719989    29A     -0.719131    30A     -0.682242  
	  31A     -0.657546    32A     -0.625558    33A     -0.619178  
	  34A     -0.606307    35A     -0.603390    36A     -0.599503  
	  37A     -0.575599    38A     -0.560498    39A     -0.548402  
	  40A     -0.531852    41A     -0.523035    42A     -0.501734  
	  43A     -0.491435    44A     -0.480491    45A     -0.463574  
	  46A     -0.454166    47A     -0.448233    48A     -0.443239  
	  49A     -0.430615    50A     -0.366539  

	Virtual:                                                              

	  51A      0.016416    52A      0.031214    53A      0.031643  
	  54A      0.036183    55A      0.045132    56A      0.047439  
	  57A      0.048266    58A      0.051618    59A      0.059364  
	  60A      0.067553    61A      0.069129    62A      0.072345  
	  63A      0.074005    64A      0.079317    65A      0.082523  
	  66A      0.085265    67A      0.086469    68A      0.093671  
	  69A      0.098405    70A      0.104901    71A      0.110172  
	  72A      0.116015    73A      0.118240    74A      0.122257  
	  75A      0.124569    76A      0.127369    77A      0.131797  
	  78A      0.132907    79A      0.134936    80A      0.138843  
	  81A      0.141439    82A      0.143326    83A      0.146518  
	  84A      0.148266    85A      0.153279    86A      0.155913  
	  87A      0.164244    88A      0.167522    89A      0.173274  
	  90A      0.173447    91A      0.175870    92A      0.180334  
	  93A      0.181612    94A      0.188865    95A      0.193622  
	  96A      0.195360    97A      0.203076    98A      0.209252  
	  99A      0.212308   100A      0.216108   101A      0.220888  
	 102A      0.227752   103A      0.229563   104A      0.238987  
	 105A      0.247240   106A      0.249293   107A      0.253790  
	 108A      0.257182   109A      0.260651   110A      0.266969  
	 111A      0.273558   112A      0.275409   113A      0.276142  
	 114A      0.281485   115A      0.282326   116A      0.284489  
	 117A      0.294391   118A      0.297313   119A      0.302518  
	 120A      0.304063   121A      0.307091   122A      0.312725  
	 123A      0.315977   124A      0.321387   125A      0.323545  
	 126A      0.325800   127A      0.329281   128A      0.333329  
	 129A      0.339618   130A      0.341539   131A      0.345168  
	 132A      0.350790   133A      0.351113   134A      0.357542  
	 135A      0.360762   136A      0.364361   137A      0.369328  
	 138A      0.372244   139A      0.375277   140A      0.377085  
	 141A      0.384147   142A      0.386193   143A      0.389982  
	 144A      0.391238   145A      0.397441   146A      0.399411  
	 147A      0.402143   148A      0.408268   149A      0.409439  
	 150A      0.413335   151A      0.420998   152A      0.426242  
	 153A      0.435765   154A      0.438023   155A      0.439130  
	 156A      0.441171   157A      0.447724   158A      0.450304  
	 159A      0.452855   160A      0.455795   161A      0.456649  
	 162A      0.466800   163A      0.468244   164A      0.469570  
	 165A      0.471512   166A      0.480446   167A      0.482243  
	 168A      0.484357   169A      0.487859   170A      0.492006  
	 171A      0.493972   172A      0.495169   173A      0.498350  
	 174A      0.500195   175A      0.502323   176A      0.509083  
	 177A      0.509998   178A      0.515428   179A      0.518969  
	 180A      0.524095   181A      0.528511   182A      0.535086  
	 183A      0.536346   184A      0.542287   185A      0.544309  
	 186A      0.546349   187A      0.548185   188A      0.553055  
	 189A      0.556537   190A      0.559725   191A      0.566470  
	 192A      0.573594   193A      0.574327   194A      0.579839  
	 195A      0.589045   196A      0.591271   197A      0.596724  
	 198A      0.605392   199A      0.605881   200A      0.608038  
	 201A      0.611613   202A      0.618198   203A      0.620422  
	 204A      0.623065   205A      0.625588   206A      0.629194  
	 207A      0.632635   208A      0.638050   209A      0.639087  
	 210A      0.647764   211A      0.648928   212A      0.658658  
	 213A      0.663493   214A      0.668010   215A      0.674012  
	 216A      0.679631   217A      0.684476   218A      0.690916  
	 219A      0.696457   220A      0.701426   221A      0.708076  
	 222A      0.708870   223A      0.711976   224A      0.716321  
	 225A      0.718953   226A      0.721871   227A      0.723550  
	 228A      0.729346   229A      0.735803   230A      0.740120  
	 231A      0.743390   232A      0.747247   233A      0.752966  
	 234A      0.755403   235A      0.762142   236A      0.765459  
	 237A      0.776790   238A      0.782020   239A      0.784090  
	 240A      0.793267   241A      0.799609   242A      0.802658  
	 243A      0.804737   244A      0.809658   245A      0.819860  
	 246A      0.824839   247A      0.826386   248A      0.829949  
	 249A      0.834532   250A      0.843341   251A      0.845867  
	 252A      0.848502   253A      0.859143   254A      0.862041  
	 255A      0.865849   256A      0.872213   257A      0.877745  
	 258A      0.890489   259A      0.890780   260A      0.895438  
	 261A      0.901082   262A      0.902713   263A      0.909163  
	 264A      0.912237   265A      0.915504   266A      0.918000  
	 267A      0.924631   268A      0.932179   269A      0.935232  
	 270A      0.939887   271A      0.944305   272A      0.953519  
	 273A      0.955786   274A      0.959115   275A      0.963090  
	 276A      0.966806   277A      0.973332   278A      0.980723  
	 279A      0.982206   280A      0.988051   281A      0.991516  
	 282A      0.996109   283A      0.998881   284A      1.004049  
	 285A      1.007850   286A      1.016346   287A      1.017883  
	 288A      1.025253   289A      1.028853   290A      1.035582  
	 291A      1.041048   292A      1.044820   293A      1.050219  
	 294A      1.057795   295A      1.061696   296A      1.069619  
	 297A      1.070804   298A      1.076352   299A      1.084246  
	 300A      1.091591   301A      1.095066   302A      1.102871  
	 303A      1.103587   304A      1.108421   305A      1.116667  
	 306A      1.118691   307A      1.119592   308A      1.130178  
	 309A      1.132598   310A      1.135147   311A      1.142817  
	 312A      1.147067   313A      1.147185   314A      1.152877  
	 315A      1.160187   316A      1.164872   317A      1.168081  
	 318A      1.172543   319A      1.178749   320A      1.183282  
	 321A      1.189556   322A      1.191962   323A      1.203423  
	 324A      1.204784   325A      1.211053   326A      1.214401  
	 327A      1.217012   328A      1.220749   329A      1.224784  
	 330A      1.229700   331A      1.234808   332A      1.237803  
	 333A      1.240513   334A      1.244883   335A      1.252526  
	 336A      1.256292   337A      1.259123   338A      1.261337  
	 339A      1.266026   340A      1.270321   341A      1.276917  
	 342A      1.290182   343A      1.293938   344A      1.299697  
	 345A      1.301462   346A      1.310240   347A      1.319543  
	 348A      1.320333   349A      1.329727   350A      1.332285  
	 351A      1.335652   352A      1.342131   353A      1.349337  
	 354A      1.353447   355A      1.358408   356A      1.370222  
	 357A      1.371840   358A      1.373665   359A      1.382531  
	 360A      1.383055   361A      1.388170   362A      1.397545  
	 363A      1.398653   364A      1.404737   365A      1.414034  
	 366A      1.419912   367A      1.422383   368A      1.430497  
	 369A      1.435755   370A      1.437900   371A      1.444821  
	 372A      1.450628   373A      1.460226   374A      1.464061  
	 375A      1.471352   376A      1.474362   377A      1.481726  
	 378A      1.488173   379A      1.495195   380A      1.499923  
	 381A      1.503231   382A      1.509213   383A      1.514951  
	 384A      1.522053   385A      1.523845   386A      1.530437  
	 387A      1.535643   388A      1.542286   389A      1.552545  
	 390A      1.554473   391A      1.563837   392A      1.568664  
	 393A      1.580994   394A      1.583100   395A      1.589770  
	 396A      1.597079   397A      1.602349   398A      1.610320  
	 399A      1.612291   400A      1.617233   401A      1.620478  
	 402A      1.625308   403A      1.628035   404A      1.633874  
	 405A      1.639793   406A      1.647549   407A      1.653298  
	 408A      1.666132   409A      1.669790   410A      1.676931  
	 411A      1.682073   412A      1.686921   413A      1.694135  
	 414A      1.700785   415A      1.703608   416A      1.710105  
	 417A      1.720955   418A      1.730777   419A      1.735809  
	 420A      1.739576   421A      1.748516   422A      1.751670  
	 423A      1.758486   424A      1.762490   425A      1.768101  
	 426A      1.771777   427A      1.784125   428A      1.784646  
	 429A      1.788600   430A      1.792563   431A      1.799902  
	 432A      1.803003   433A      1.805751   434A      1.811388  
	 435A      1.820182   436A      1.827527   437A      1.830073  
	 438A      1.837856   439A      1.842724   440A      1.852619  
	 441A      1.856520   442A      1.859306   443A      1.865042  
	 444A      1.871350   445A      1.876477   446A      1.879319  
	 447A      1.888980   448A      1.897128   449A      1.905552  
	 450A      1.910732   451A      1.918300   452A      1.918871  
	 453A      1.925112   454A      1.928246   455A      1.933475  
	 456A      1.944751   457A      1.949645   458A      1.950818  
	 459A      1.955652   460A      1.971098   461A      1.976873  
	 462A      1.985075   463A      1.990568   464A      2.000385  
	 465A      2.001070   466A      2.011276   467A      2.014623  
	 468A      2.018170   469A      2.022230   470A      2.031815  
	 471A      2.035378   472A      2.047760   473A      2.048805  
	 474A      2.053222   475A      2.058645   476A      2.063613  
	 477A      2.067212   478A      2.078672   479A      2.080686  
	 480A      2.087205   481A      2.099130   482A      2.109765  
	 483A      2.125781   484A      2.129989   485A      2.141774  
	 486A      2.142149   487A      2.145963   488A      2.154114  
	 489A      2.169715   490A      2.181313   491A      2.186218  
	 492A      2.191855   493A      2.196901   494A      2.203100  
	 495A      2.204481   496A      2.207212   497A      2.218159  
	 498A      2.228745   499A      2.238494   500A      2.245256  
	 501A      2.256311   502A      2.267029   503A      2.272808  
	 504A      2.279328   505A      2.288407   506A      2.290418  
	 507A      2.297228   508A      2.298500   509A      2.305606  
	 510A      2.311723   511A      2.326665   512A      2.332484  
	 513A      2.340104   514A      2.344138   515A      2.356790  
	 516A      2.362198   517A      2.364431   518A      2.372271  
	 519A      2.377549   520A      2.381735   521A      2.392150  
	 522A      2.408921   523A      2.412388   524A      2.422613  
	 525A      2.426710   526A      2.433651   527A      2.436350  
	 528A      2.442963   529A      2.451873   530A      2.458847  
	 531A      2.464538   532A      2.477767   533A      2.485969  
	 534A      2.494202   535A      2.497135   536A      2.508023  
	 537A      2.515696   538A      2.530007   539A      2.534633  
	 540A      2.535702   541A      2.545732   542A      2.559708  
	 543A      2.563922   544A      2.577410   545A      2.586487  
	 546A      2.591651   547A      2.606426   548A      2.607871  
	 549A      2.611911   550A      2.620506   551A      2.632869  
	 552A      2.642866   553A      2.648968   554A      2.662115  
	 555A      2.663588   556A      2.673962   557A      2.680523  
	 558A      2.699497   559A      2.708462   560A      2.712153  
	 561A      2.722920   562A      2.728238   563A      2.744043  
	 564A      2.746495   565A      2.759800   566A      2.770021  
	 567A      2.773974   568A      2.793379   569A      2.799696  
	 570A      2.811569   571A      2.825055   572A      2.835423  
	 573A      2.848978   574A      2.852682   575A      2.865860  
	 576A      2.883193   577A      2.893780   578A      2.904645  
	 579A      2.910701   580A      2.932860   581A      2.943864  
	 582A      2.954312   583A      2.961456   584A      2.966972  
	 585A      2.999309   586A      3.012659   587A      3.018421  
	 588A      3.034089   589A      3.042262   590A      3.050899  
	 591A      3.077295   592A      3.086937   593A      3.095702  
	 594A      3.110684   595A      3.135218   596A      3.145357  
	 597A      3.160176   598A      3.205223   599A      3.210001  
	 600A      3.226429   601A      3.246758   602A      3.268136  
	 603A      3.271726   604A      3.302413   605A      3.326789  
	 606A      3.342168   607A      3.350244   608A      3.376511  
	 609A      3.387918   610A      3.413838   611A      3.441168  
	 612A      3.462397   613A      3.472295   614A      3.495515  
	 615A      3.527081   616A      3.539308   617A      3.544803  
	 618A      3.549667   619A      3.560724   620A      3.563796  
	 621A      3.569647   622A      3.584836   623A      3.593236  
	 624A      3.601763   625A      3.613771   626A      3.625724  
	 627A      3.629298   628A      3.648040   629A      3.651780  
	 630A      3.669563   631A      3.672600   632A      3.680392  
	 633A      3.699187   634A      3.706266   635A      3.707678  
	 636A      3.719436   637A      3.730914   638A      3.737430  
	 639A      3.744706   640A      3.749806   641A      3.763645  
	 642A      3.771613   643A      3.774065   644A      3.781335  
	 645A      3.794435   646A      3.798119   647A      3.809400  
	 648A      3.817271   649A      3.823441   650A      3.828506  
	 651A      3.832675   652A      3.845231   653A      3.861084  
	 654A      3.865986   655A      3.869965   656A      3.891038  
	 657A      3.900073   658A      3.904004   659A      3.910043  
	 660A      3.917998   661A      3.934720   662A      3.935955  
	 663A      3.941781   664A      3.948878   665A      3.958785  
	 666A      3.969409   667A      3.977330   668A      3.986695  
	 669A      3.989162   670A      3.998066   671A      4.001150  
	 672A      4.012945   673A      4.020565   674A      4.021518  
	 675A      4.028578   676A      4.038940   677A      4.048815  
	 678A      4.057638   679A      4.063919   680A      4.078026  
	 681A      4.080551   682A      4.090511   683A      4.096447  
	 684A      4.112312   685A      4.113632   686A      4.118468  
	 687A      4.129162   688A      4.133972   689A      4.145325  
	 690A      4.150268   691A      4.169895   692A      4.175601  
	 693A      4.184948   694A      4.189461   695A      4.197912  
	 696A      4.206639   697A      4.217471   698A      4.225757  
	 699A      4.240631   700A      4.245593   701A      4.252355  
	 702A      4.259395   703A      4.268035   704A      4.269421  
	 705A      4.283144   706A      4.289237   707A      4.296774  
	 708A      4.297995   709A      4.310395   710A      4.323151  
	 711A      4.325119   712A      4.336223   713A      4.340231  
	 714A      4.341920   715A      4.354608   716A      4.362223  
	 717A      4.366418   718A      4.372181   719A      4.386906  
	 720A      4.397574   721A      4.400042   722A      4.403925  
	 723A      4.413550   724A      4.420078   725A      4.430718  
	 726A      4.444784   727A      4.456339   728A      4.462983  
	 729A      4.467987   730A      4.471875   731A      4.480197  
	 732A      4.495597   733A      4.507116   734A      4.514127  
	 735A      4.529849   736A      4.533939   737A      4.538786  
	 738A      4.543713   739A      4.566223   740A      4.573605  
	 741A      4.587417   742A      4.598824   743A      4.605053  
	 744A      4.617114   745A      4.627897   746A      4.640480  
	 747A      4.643362   748A      4.656452   749A      4.663140  
	 750A      4.671457   751A      4.676857   752A      4.689213  
	 753A      4.712782   754A      4.717105   755A      4.723512  
	 756A      4.731969   757A      4.741057   758A      4.753767  
	 759A      4.767009   760A      4.791487   761A      4.800019  
	 762A      4.804463   763A      4.809612   764A      4.825706  
	 765A      4.831515   766A      4.843575   767A      4.848950  
	 768A      4.858699   769A      4.863438   770A      4.875988  
	 771A      4.883274   772A      4.910759   773A      4.912654  
	 774A      4.919317   775A      4.920314   776A      4.922889  
	 777A      4.938767   778A      4.953559   779A      4.961217  
	 780A      4.972860   781A      4.985964   782A      4.998599  
	 783A      5.003642   784A      5.012225   785A      5.029887  
	 786A      5.031352   787A      5.037151   788A      5.054441  
	 789A      5.057270   790A      5.070392   791A      5.078816  
	 792A      5.083421   793A      5.090852   794A      5.113738  
	 795A      5.122249   796A      5.139863   797A      5.152646  
	 798A      5.168149   799A      5.169417   800A      5.177408  
	 801A      5.185381   802A      5.200982   803A      5.231511  
	 804A      5.238278   805A      5.251372   806A      5.260750  
	 807A      5.264550   808A      5.274691   809A      5.291471  
	 810A      5.298047   811A      5.310115   812A      5.316390  
	 813A      5.326030   814A      5.340025   815A      5.344196  
	 816A      5.356788   817A      5.379229   818A      5.381875  
	 819A      5.387747   820A      5.394438   821A      5.404128  
	 822A      5.418653   823A      5.436372   824A      5.438584  
	 825A      5.450679   826A      5.465611   827A      5.469728  
	 828A      5.486700   829A      5.488802   830A      5.507586  
	 831A      5.515979   832A      5.526328   833A      5.539698  
	 834A      5.542607   835A      5.548805   836A      5.561923  
	 837A      5.572558   838A      5.579065   839A      5.588967  
	 840A      5.592179   841A      5.613060   842A      5.624239  
	 843A      5.632788   844A      5.646764   845A      5.658202  
	 846A      5.663784   847A      5.676129   848A      5.693846  
	 849A      5.708241   850A      5.714826   851A      5.731418  
	 852A      5.738138   853A      5.741002   854A      5.759020  
	 855A      5.770779   856A      5.795653   857A      5.812498  
	 858A      5.822257   859A      5.823815   860A      5.839630  
	 861A      5.851429   862A      5.863563   863A      5.881201  
	 864A      5.886449   865A      5.897715   866A      5.919788  
	 867A      5.935755   868A      5.953536   869A      5.967729  
	 870A      5.991139   871A      5.997229   872A      6.009076  
	 873A      6.023050   874A      6.028683   875A      6.058654  
	 876A      6.065327   877A      6.090447   878A      6.094491  
	 879A      6.111454   880A      6.116457   881A      6.136167  
	 882A      6.143419   883A      6.171832   884A      6.187663  
	 885A      6.210591   886A      6.235950   887A      6.247394  
	 888A      6.275049   889A      6.294043   890A      6.310407  
	 891A      6.327258   892A      6.334675   893A      6.347402  
	 894A      6.380107   895A      6.389750   896A      6.413113  
	 897A      6.427192   898A      6.442259   899A      6.451268  
	 900A      6.471597   901A      6.497644   902A      6.529455  
	 903A      6.540290   904A      6.593639   905A      6.605320  
	 906A      6.648181   907A      6.663578   908A      6.729592  
	 909A      6.732968   910A      6.790835   911A      6.836443  
	 912A      6.859781   913A      6.869205   914A      6.877716  
	 915A      6.886408   916A      6.911658   917A      6.931726  
	 918A      6.943972   919A      6.955951   920A      6.971968  
	 921A      7.003636   922A      7.027249   923A      7.044154  
	 924A      7.060270   925A      7.077312   926A      7.108295  
	 927A      7.142553   928A      7.158459   929A      7.178407  
	 930A      7.190247   931A      7.202227   932A      7.257331  
	 933A      7.286156   934A      7.323017   935A      7.345690  
	 936A      7.398311   937A      7.467611   938A      7.549729  
	 939A      7.591358   940A      7.609237   941A      7.617908  
	 942A      7.692638   943A      7.732409   944A      7.831108  
	 945A      7.882012   946A      7.920924   947A      7.935638  
	 948A      8.004202   949A      8.077823   950A      8.098679  
	 951A      8.137439   952A      8.186533   953A      8.227120  
	 954A     17.057233   955A     17.412188   956A     17.698822  
	 957A     17.952096   958A     18.813567   959A     18.852885  
	 960A     19.105439   961A     19.438823   962A     19.740738  
	 963A     20.604873   964A     21.178994   965A     21.641211  
	 966A     22.116854  

	Final Occupation by Irrep:
	          A 
	DOCC [    50 ]

  Energy converged.

  @RHF Final Energy:  -608.94621105294937

   => Energetics <=

    Nuclear Repulsion Energy =            903.8592635046313717
    One-Electron Energy =               -2623.5321200621310709
    Two-Electron Energy =                1110.7266455045503335
    DFT Exchange-Correlation Energy =       0.0000000000000000
    Empirical Dispersion Energy =           0.0000000000000000
    Total Energy =                       -608.9462110529493657



Properties will be evaluated at   0.000000,   0.000000,   0.000000 Bohr
  ==> Properties <==


Properties computed using the SCF density density matrix
  Nuclear Dipole Moment: (a.u.)
     X:     0.7508      Y:     4.2274      Z:    14.0507

  Electronic Dipole Moment: (a.u.)
     X:    -0.2101      Y:    -2.4260      Z:   -14.1160

  Dipole Moment: (a.u.)
     X:     0.5407      Y:     1.8014      Z:    -0.0652     Total:     1.8820

  Dipole Moment: (Debye)
     X:     1.3744      Y:     4.5787      Z:    -0.1658     Total:     4.7834


  Saving occupied orbitals to File 180.

  Saving SAPT 2-DIMER file.

*** tstop() called on genome.bme.utexas.edu at Thu Apr  3 20:20:29 2014
Module time:
	user time   =    3704.19 seconds =      61.74 minutes
	system time =      49.47 seconds =       0.82 minutes
	total time  =        566 seconds =       9.43 minutes
Total time:
	user time   =    3704.19 seconds =      61.74 minutes
	system time =      49.47 seconds =       0.82 minutes
	total time  =        566 seconds =       9.43 minutes

  //>>>>>>>>>>>>>>>>>>>>>>>>>>>>>>>>>>>//
  //            Monomer A HF           //
  //<<<<<<<<<<<<<<<<<<<<<<<<<<<<<<<<<<<//


  No DF_BASIS_SCF auxiliary basis selected, defaulting to aug-cc-pvtz-jkfit


*** tstart() called on genome.bme.utexas.edu
*** at Thu Apr  3 20:20:29 2014


         ---------------------------------------------------------
                                   SCF
            by Justin Turney, Rob Parrish, and Andy Simmonett
                              RHF Reference
                        8 Threads,  40000 MiB Core
         ---------------------------------------------------------

  ==> Geometry <==

    Molecular point group: c1
    Full point group: C1

    Geometry (in Angstrom), charge = 0, multiplicity = 1:

       Center              X                  Y                   Z       
    ------------   -----------------  -----------------  -----------------
           N         -0.121321180433    -0.953143496849    -1.007093965024
           H         -0.136567388433    -1.961670269849    -0.936771147024
           C         -1.358758480433    -0.333141993849    -1.235196430024
           O         -2.373653157433    -0.999352483849    -1.343963046024
           C         -1.270198597433     1.114624715151    -1.313711221024
           H         -2.168988544433     1.679169838151    -1.492007692024
           C         -0.075419599433     1.721331697151    -1.160728684024
           H          0.041293135567     2.793885035151    -1.208505324024
           N          1.073035696567     1.012263248151    -0.930648642024
           H          1.955143376567     1.478366898151    -0.797070704024
           C          1.114604512567    -0.367730982849    -0.829207774024
           O          2.136780296567    -0.985956350849    -0.604595220024
           C(Gh)      1.157261496567     2.359161295151     1.661813635976
           H(Gh)      0.726412882567     2.670209990151     0.709031068976
           H(Gh)      0.523027585567     2.764594416151     2.450061286976
           H(Gh)      2.140141522567     2.819608707151     1.754935121976
           C(Gh)      1.230277960567     0.840290345151     1.751331976976
           H(Gh)      1.660661604567     0.550727489151     2.712622931976
           H(Gh)      1.904867552567     0.449129794151     0.986213811976
           C(Gh)     -0.134507229433     0.182123693151     1.596515217976
           H(Gh)     -0.805751489433     0.550999503151     2.378134458976
           H(Gh)     -0.581978098433     0.492388710151     0.646614991976
           C(Gh)     -0.078218291433    -1.338562857849     1.656150713976
           H(Gh)      0.345387204567    -1.640993272849     2.616786900976
           H(Gh)      0.613303451567    -1.700441796849     0.891648285976
           C(Gh)     -1.447501213433    -1.980436067849     1.472377062976
           H(Gh)     -1.885880208433    -1.706978384849     0.512191553976
           H(Gh)     -1.390562420433    -3.067204454849     1.516434250976
           H(Gh)     -2.135463991433    -1.652090084849     2.251610109976

  Running in c1 symmetry.

  Nuclear repulsion =  357.066176302828353

  Charge       = 0
  Multiplicity = 1
  Electrons    = 58
  Nalpha       = 29
  Nbeta        = 29

  ==> Algorithm <==

  SCF Algorithm Type is DF.
  DIIS enabled.
  MOM disabled.
  Fractional occupation disabled.
  Guess Type is CORE.
  Energy threshold   = 1.00e-08
  Density threshold  = 1.00e-08
  Integral threshold = 0.00e+00

  ==> Primary Basis <==

  Basis Set: AUG-CC-PVTZ
    Number of shells: 326
    Number of basis function: 966
    Number of Cartesian functions: 1115
    Spherical Harmonics?: true
    Max angular momentum: 3

  ==> Pre-Iterations <==

   -------------------------------------------------------
    Irrep   Nso     Nmo     Nalpha   Nbeta   Ndocc  Nsocc
   -------------------------------------------------------
     A        966     966       0       0       0       0
   -------------------------------------------------------
    Total     966     966      29      29      29       0
   -------------------------------------------------------

 OEINTS: Wrapper to libmints.
   by Justin Turney

   Calculation information:
      Number of atoms:                  29
      Number of AO shells:             326
      Number of SO shells:             326
      Number of primitives:            566
      Number of atomic orbitals:      1115
      Number of basis functions:       966

      Number of irreps:                  1
      Number of functions per irrep: [ 966 ]

      Overlap, kinetic, potential, dipole, and quadrupole integrals
        stored in file 35.

  ==> Integral Setup <==

  ==> DFJK: Density-Fitted J/K Matrices <==

    J tasked:                  Yes
    K tasked:                  Yes
    wK tasked:                  No
    OpenMP threads:              8
    Integrals threads:           8
    Memory (MB):             28610
    Algorithm:                Core
    Integral Cache:           LOAD
    Schwarz Cutoff:          0E+00
    Fitting Condition:       1E-12

   => Auxiliary Basis Set <=

  Basis Set: aug-cc-pvtz-jkfit
    Number of shells: 614
    Number of basis function: 2088
    Number of Cartesian functions: 2583
    Spherical Harmonics?: true
    Max angular momentum: 4

  Minimum eigenvalue in the overlap matrix is 5.4123404951E-07.
  Using Symmetric Orthogonalization.
  SCF Guess: Core (One-Electron) Hamiltonian.

  Guess energy:  -324.00194375840942

  ==> Iterations <==

                        Total Energy        Delta E     RMS |[F,P]|

   @RHF iter   1:  -319.52951684137224   -3.19530e+02   1.61729e-02 
   @RHF iter   2:  -286.71880426618293    3.28107e+01   9.76958e-03 DIIS
   @RHF iter   3:  -297.77157611555526   -1.10528e+01   1.15792e-02 DIIS
   @RHF iter   4:  -391.69410161342068   -9.39225e+01   5.58181e-03 DIIS
   @RHF iter   5:  -389.10511214000758    2.58899e+00   5.27186e-03 DIIS
   @RHF iter   6:  -409.73949325832268   -2.06344e+01   2.42737e-03 DIIS
   @RHF iter   7:  -412.41056613577462   -2.67107e+00   5.82380e-04 DIIS
   @RHF iter   8:  -412.58554061695258   -1.74974e-01   2.34044e-04 DIIS
   @RHF iter   9:  -412.61594954254338   -3.04089e-02   9.96205e-05 DIIS
   @RHF iter  10:  -412.62318491268445   -7.23537e-03   4.30992e-05 DIIS
   @RHF iter  11:  -412.62464954825919   -1.46464e-03   2.33364e-05 DIIS
   @RHF iter  12:  -412.62531143611659   -6.61888e-04   8.29712e-06 DIIS
   @RHF iter  13:  -412.62537464466641   -6.32085e-05   3.30517e-06 DIIS
   @RHF iter  14:  -412.62537980708771   -5.16242e-06   8.50885e-07 DIIS
   @RHF iter  15:  -412.62538025778804   -4.50700e-07   2.07563e-07 DIIS
   @RHF iter  16:  -412.62538029048073   -3.26927e-08   8.33630e-08 DIIS
   @RHF iter  17:  -412.62538029595135   -5.47061e-09   3.08699e-08 DIIS
   @RHF iter  18:  -412.62538029706820   -1.11686e-09   1.26386e-08 DIIS
   @RHF iter  19:  -412.62538029726170   -1.93495e-10   4.16928e-09 DIIS

  ==> Post-Iterations <==

	Orbital Energies (a.u.)
	-----------------------

	Doubly Occupied:                                                      

	   1A    -20.547780     2A    -20.542440     3A    -15.645288  
	   4A    -15.628171     5A    -11.419575     6A    -11.381606  
	   7A    -11.341476     8A    -11.256197     9A     -1.436991  
	  10A     -1.398978    11A     -1.314351    12A     -1.246558  
	  13A     -1.089118    14A     -0.934315    15A     -0.902274  
	  16A     -0.807755    17A     -0.765903    18A     -0.715151  
	  19A     -0.678269    20A     -0.669768    21A     -0.653619  
	  22A     -0.615752    23A     -0.602398    24A     -0.571574  
	  25A     -0.526761    26A     -0.484544    27A     -0.450140  
	  28A     -0.437765    29A     -0.369739  

	Virtual:                                                              

	  30A      0.010588    31A      0.025450    32A      0.029066  
	  33A      0.032523    34A      0.043676    35A      0.046294  
	  36A      0.046750    37A      0.050477    38A      0.056908  
	  39A      0.065227    40A      0.068182    41A      0.070268  
	  42A      0.073322    43A      0.074673    44A      0.079983  
	  45A      0.081571    46A      0.083988    47A      0.086067  
	  48A      0.090259    49A      0.098094    50A      0.099310  
	  51A      0.104653    52A      0.107949    53A      0.114129  
	  54A      0.121807    55A      0.124370    56A      0.125341  
	  57A      0.128085    58A      0.132292    59A      0.134776  
	  60A      0.138110    61A      0.138760    62A      0.143607  
	  63A      0.145337    64A      0.151552    65A      0.155300  
	  66A      0.157937    67A      0.161305    68A      0.166329  
	  69A      0.170265    70A      0.172429    71A      0.173730  
	  72A      0.179691    73A      0.183345    74A      0.185389  
	  75A      0.188585    76A      0.194572    77A      0.197372  
	  78A      0.203205    79A      0.205558    80A      0.212952  
	  81A      0.214698    82A      0.216507    83A      0.219931  
	  84A      0.226786    85A      0.235814    86A      0.242234  
	  87A      0.248173    88A      0.252505    89A      0.256086  
	  90A      0.266578    91A      0.274012    92A      0.275475  
	  93A      0.276498    94A      0.279717    95A      0.283326  
	  96A      0.286323    97A      0.291321    98A      0.295034  
	  99A      0.299596   100A      0.301665   101A      0.305443  
	 102A      0.310403   103A      0.313825   104A      0.319432  
	 105A      0.323939   106A      0.327337   107A      0.330583  
	 108A      0.335917   109A      0.339769   110A      0.344762  
	 111A      0.349324   112A      0.351913   113A      0.354291  
	 114A      0.356849   115A      0.362050   116A      0.362909  
	 117A      0.366786   118A      0.368840   119A      0.374738  
	 120A      0.376867   121A      0.380533   122A      0.386041  
	 123A      0.389390   124A      0.392638   125A      0.395248  
	 126A      0.396243   127A      0.406089   128A      0.411163  
	 129A      0.411821   130A      0.417850   131A      0.423149  
	 132A      0.427290   133A      0.427547   134A      0.432899  
	 135A      0.434899   136A      0.441567   137A      0.444514  
	 138A      0.449488   139A      0.453549   140A      0.456029  
	 141A      0.461240   142A      0.468235   143A      0.474222  
	 144A      0.475338   145A      0.478505   146A      0.485672  
	 147A      0.488347   148A      0.491123   149A      0.495808  
	 150A      0.496258   151A      0.500170   152A      0.505176  
	 153A      0.508034   154A      0.510538   155A      0.514808  
	 156A      0.518930   157A      0.521250   158A      0.526607  
	 159A      0.530040   160A      0.534898   161A      0.538411  
	 162A      0.543210   163A      0.550110   164A      0.555199  
	 165A      0.562458   166A      0.565269   167A      0.566737  
	 168A      0.572435   169A      0.575465   170A      0.583059  
	 171A      0.584271   172A      0.587574   173A      0.595544  
	 174A      0.599479   175A      0.603008   176A      0.607380  
	 177A      0.609834   178A      0.621188   179A      0.624126  
	 180A      0.627574   181A      0.631728   182A      0.634505  
	 183A      0.638073   184A      0.640449   185A      0.646492  
	 186A      0.650159   187A      0.653220   188A      0.655346  
	 189A      0.667342   190A      0.677056   191A      0.678752  
	 192A      0.680499   193A      0.684046   194A      0.685525  
	 195A      0.692284   196A      0.696025   197A      0.697632  
	 198A      0.704604   199A      0.708493   200A      0.709449  
	 201A      0.719126   202A      0.722745   203A      0.725967  
	 204A      0.728367   205A      0.736020   206A      0.737003  
	 207A      0.740412   208A      0.745576   209A      0.748807  
	 210A      0.756566   211A      0.759650   212A      0.765130  
	 213A      0.769128   214A      0.772388   215A      0.781583  
	 216A      0.784605   217A      0.785867   218A      0.793939  
	 219A      0.797792   220A      0.803884   221A      0.805983  
	 222A      0.809849   223A      0.812730   224A      0.817213  
	 225A      0.821540   226A      0.828131   227A      0.834105  
	 228A      0.837419   229A      0.838834   230A      0.846160  
	 231A      0.852920   232A      0.856362   233A      0.861054  
	 234A      0.868138   235A      0.874158   236A      0.879677  
	 237A      0.887019   238A      0.892923   239A      0.898622  
	 240A      0.907749   241A      0.911886   242A      0.915574  
	 243A      0.919361   244A      0.921060   245A      0.926881  
	 246A      0.932022   247A      0.935772   248A      0.943889  
	 249A      0.948787   250A      0.952277   251A      0.957224  
	 252A      0.966828   253A      0.968833   254A      0.972821  
	 255A      0.979502   256A      0.983349   257A      0.986683  
	 258A      1.000324   259A      1.007556   260A      1.012573  
	 261A      1.023256   262A      1.023884   263A      1.029620  
	 264A      1.037704   265A      1.050635   266A      1.052800  
	 267A      1.057064   268A      1.061509   269A      1.067713  
	 270A      1.071553   271A      1.087463   272A      1.089405  
	 273A      1.096350   274A      1.098051   275A      1.102826  
	 276A      1.104251   277A      1.112607   278A      1.115503  
	 279A      1.124483   280A      1.125631   281A      1.127107  
	 282A      1.137315   283A      1.142783   284A      1.146378  
	 285A      1.150884   286A      1.159390   287A      1.163593  
	 288A      1.170011   289A      1.172142   290A      1.178315  
	 291A      1.183114   292A      1.184813   293A      1.188597  
	 294A      1.197269   295A      1.199101   296A      1.204679  
	 297A      1.212518   298A      1.215682   299A      1.225263  
	 300A      1.227031   301A      1.229051   302A      1.232974  
	 303A      1.239829   304A      1.241519   305A      1.247527  
	 306A      1.254336   307A      1.261989   308A      1.264144  
	 309A      1.271104   310A      1.275105   311A      1.278630  
	 312A      1.283776   313A      1.291099   314A      1.294020  
	 315A      1.296983   316A      1.303390   317A      1.308403  
	 318A      1.311882   319A      1.317768   320A      1.320060  
	 321A      1.328551   322A      1.335443   323A      1.339348  
	 324A      1.346425   325A      1.350620   326A      1.354914  
	 327A      1.361223   328A      1.366163   329A      1.367598  
	 330A      1.376837   331A      1.385876   332A      1.387631  
	 333A      1.389349   334A      1.390760   335A      1.395216  
	 336A      1.400574   337A      1.406718   338A      1.411275  
	 339A      1.413079   340A      1.420184   341A      1.432380  
	 342A      1.433306   343A      1.440289   344A      1.442217  
	 345A      1.452672   346A      1.457637   347A      1.460025  
	 348A      1.465540   349A      1.468962   350A      1.470271  
	 351A      1.477689   352A      1.484580   353A      1.488295  
	 354A      1.490274   355A      1.497599   356A      1.502397  
	 357A      1.504422   358A      1.513390   359A      1.521244  
	 360A      1.528451   361A      1.532890   362A      1.537427  
	 363A      1.540393   364A      1.547219   365A      1.552198  
	 366A      1.553493   367A      1.556153   368A      1.561772  
	 369A      1.566143   370A      1.570146   371A      1.577663  
	 372A      1.582886   373A      1.589467   374A      1.595351  
	 375A      1.600553   376A      1.613606   377A      1.614320  
	 378A      1.616166   379A      1.623490   380A      1.631784  
	 381A      1.634424   382A      1.641570   383A      1.646572  
	 384A      1.649770   385A      1.661243   386A      1.665812  
	 387A      1.669192   388A      1.676839   389A      1.683805  
	 390A      1.688510   391A      1.695628   392A      1.700426  
	 393A      1.714707   394A      1.724507   395A      1.727929  
	 396A      1.732089   397A      1.742642   398A      1.747881  
	 399A      1.759506   400A      1.766527   401A      1.767774  
	 402A      1.775288   403A      1.786878   404A      1.787417  
	 405A      1.795576   406A      1.805329   407A      1.810211  
	 408A      1.816044   409A      1.825993   410A      1.835782  
	 411A      1.840547   412A      1.844649   413A      1.847162  
	 414A      1.851039   415A      1.860500   416A      1.862805  
	 417A      1.866065   418A      1.878797   419A      1.883746  
	 420A      1.886298   421A      1.890480   422A      1.904745  
	 423A      1.911701   424A      1.914523   425A      1.917108  
	 426A      1.925180   427A      1.930100   428A      1.945453  
	 429A      1.955628   430A      1.960329   431A      1.966367  
	 432A      1.973758   433A      1.979545   434A      1.987652  
	 435A      1.990047   436A      1.994908   437A      2.005789  
	 438A      2.010337   439A      2.014032   440A      2.030692  
	 441A      2.033534   442A      2.043023   443A      2.053661  
	 444A      2.055604   445A      2.061244   446A      2.072994  
	 447A      2.075320   448A      2.087025   449A      2.097229  
	 450A      2.102812   451A      2.107099   452A      2.112472  
	 453A      2.124892   454A      2.128046   455A      2.133533  
	 456A      2.138715   457A      2.143764   458A      2.151363  
	 459A      2.155285   460A      2.164844   461A      2.168446  
	 462A      2.179604   463A      2.184149   464A      2.191096  
	 465A      2.197617   466A      2.200330   467A      2.205490  
	 468A      2.210885   469A      2.220126   470A      2.225451  
	 471A      2.229976   472A      2.244387   473A      2.257245  
	 474A      2.267349   475A      2.276395   476A      2.281553  
	 477A      2.284256   478A      2.291141   479A      2.297548  
	 480A      2.306216   481A      2.311397   482A      2.318704  
	 483A      2.321389   484A      2.332598   485A      2.340211  
	 486A      2.347821   487A      2.351754   488A      2.363030  
	 489A      2.368448   490A      2.371413   491A      2.382846  
	 492A      2.394514   493A      2.397438   494A      2.410466  
	 495A      2.421693   496A      2.422248   497A      2.427063  
	 498A      2.439955   499A      2.447097   500A      2.456707  
	 501A      2.460378   502A      2.480391   503A      2.484950  
	 504A      2.494279   505A      2.496731   506A      2.507455  
	 507A      2.516175   508A      2.520650   509A      2.535883  
	 510A      2.541421   511A      2.545536   512A      2.549031  
	 513A      2.559488   514A      2.563041   515A      2.570258  
	 516A      2.580761   517A      2.588110   518A      2.594068  
	 519A      2.598584   520A      2.609446   521A      2.620368  
	 522A      2.626443   523A      2.634947   524A      2.644204  
	 525A      2.655148   526A      2.659960   527A      2.663116  
	 528A      2.681173   529A      2.682585   530A      2.686610  
	 531A      2.693504   532A      2.703482   533A      2.713797  
	 534A      2.721874   535A      2.727093   536A      2.736382  
	 537A      2.741452   538A      2.743310   539A      2.760579  
	 540A      2.768321   541A      2.778192   542A      2.790468  
	 543A      2.793559   544A      2.796229   545A      2.807673  
	 546A      2.812309   547A      2.820477   548A      2.825675  
	 549A      2.829382   550A      2.836993   551A      2.843359  
	 552A      2.860398   553A      2.866629   554A      2.884592  
	 555A      2.898062   556A      2.908078   557A      2.910750  
	 558A      2.930458   559A      2.939072   560A      2.943616  
	 561A      2.947460   562A      2.962302   563A      2.970885  
	 564A      2.971949   565A      2.988057   566A      2.992286  
	 567A      3.008148   568A      3.018622   569A      3.030166  
	 570A      3.034234   571A      3.055952   572A      3.060045  
	 573A      3.065338   574A      3.084523   575A      3.093079  
	 576A      3.101488   577A      3.108577   578A      3.131556  
	 579A      3.138218   580A      3.149220   581A      3.155465  
	 582A      3.171263   583A      3.176417   584A      3.190438  
	 585A      3.204661   586A      3.207991   587A      3.223227  
	 588A      3.238664   589A      3.256707   590A      3.269050  
	 591A      3.305410   592A      3.309371   593A      3.328268  
	 594A      3.359558   595A      3.361848   596A      3.387792  
	 597A      3.404023   598A      3.410744   599A      3.435381  
	 600A      3.447831   601A      3.462803   602A      3.491214  
	 603A      3.502056   604A      3.534429   605A      3.562054  
	 606A      3.573947   607A      3.585044   608A      3.595892  
	 609A      3.609669   610A      3.627180   611A      3.655078  
	 612A      3.672734   613A      3.702410   614A      3.707139  
	 615A      3.731933   616A      3.738042   617A      3.751437  
	 618A      3.773221   619A      3.777450   620A      3.793654  
	 621A      3.828614   622A      3.840160   623A      3.853117  
	 624A      3.881642   625A      3.886953   626A      3.914383  
	 627A      3.933924   628A      3.949963   629A      3.968615  
	 630A      3.992962   631A      3.997529   632A      4.010593  
	 633A      4.024761   634A      4.043483   635A      4.048131  
	 636A      4.072986   637A      4.081948   638A      4.097875  
	 639A      4.117332   640A      4.128195   641A      4.132623  
	 642A      4.162905   643A      4.174390   644A      4.178047  
	 645A      4.197920   646A      4.210608   647A      4.223933  
	 648A      4.230972   649A      4.241477   650A      4.247679  
	 651A      4.260888   652A      4.267268   653A      4.273361  
	 654A      4.281796   655A      4.287709   656A      4.297151  
	 657A      4.302451   658A      4.308999   659A      4.310031  
	 660A      4.321422   661A      4.331947   662A      4.333037  
	 663A      4.338890   664A      4.350546   665A      4.358129  
	 666A      4.366235   667A      4.377474   668A      4.380098  
	 669A      4.389360   670A      4.399542   671A      4.412748  
	 672A      4.427336   673A      4.432768   674A      4.435161  
	 675A      4.442847   676A      4.452930   677A      4.468469  
	 678A      4.475266   679A      4.480999   680A      4.494669  
	 681A      4.500944   682A      4.518604   683A      4.526686  
	 684A      4.537126   685A      4.543528   686A      4.550201  
	 687A      4.559833   688A      4.566913   689A      4.568064  
	 690A      4.590737   691A      4.596331   692A      4.606252  
	 693A      4.616261   694A      4.622828   695A      4.633298  
	 696A      4.640684   697A      4.657812   698A      4.662715  
	 699A      4.672929   700A      4.688317   701A      4.697510  
	 702A      4.714401   703A      4.723224   704A      4.731813  
	 705A      4.742092   706A      4.749801   707A      4.754116  
	 708A      4.776810   709A      4.777648   710A      4.785178  
	 711A      4.800037   712A      4.809185   713A      4.822190  
	 714A      4.825079   715A      4.836155   716A      4.845618  
	 717A      4.859982   718A      4.872270   719A      4.877002  
	 720A      4.891739   721A      4.906419   722A      4.923907  
	 723A      4.928114   724A      4.932118   725A      4.939464  
	 726A      4.944631   727A      4.953758   728A      4.967613  
	 729A      4.970417   730A      4.983069   731A      4.994363  
	 732A      5.001989   733A      5.007798   734A      5.014764  
	 735A      5.027475   736A      5.036569   737A      5.043540  
	 738A      5.049387   739A      5.052362   740A      5.062744  
	 741A      5.065480   742A      5.080877   743A      5.093425  
	 744A      5.099228   745A      5.109311   746A      5.125786  
	 747A      5.130268   748A      5.131730   749A      5.144577  
	 750A      5.162376   751A      5.170450   752A      5.185648  
	 753A      5.186426   754A      5.199427   755A      5.212017  
	 756A      5.221197   757A      5.229244   758A      5.233023  
	 759A      5.247424   760A      5.260955   761A      5.271516  
	 762A      5.274361   763A      5.284980   764A      5.293520  
	 765A      5.300128   766A      5.319681   767A      5.335508  
	 768A      5.355895   769A      5.362425   770A      5.372963  
	 771A      5.386874   772A      5.388461   773A      5.403288  
	 774A      5.414921   775A      5.435416   776A      5.439526  
	 777A      5.451448   778A      5.468374   779A      5.473366  
	 780A      5.485395   781A      5.487827   782A      5.489620  
	 783A      5.507739   784A      5.521562   785A      5.528443  
	 786A      5.545547   787A      5.555983   788A      5.566071  
	 789A      5.567716   790A      5.583054   791A      5.589045  
	 792A      5.616394   793A      5.620525   794A      5.626909  
	 795A      5.634634   796A      5.636706   797A      5.653552  
	 798A      5.664336   799A      5.672085   800A      5.691006  
	 801A      5.702708   802A      5.706255   803A      5.715385  
	 804A      5.726066   805A      5.737889   806A      5.747421  
	 807A      5.754358   808A      5.768450   809A      5.777218  
	 810A      5.786612   811A      5.793631   812A      5.794130  
	 813A      5.810310   814A      5.822006   815A      5.832667  
	 816A      5.848373   817A      5.864857   818A      5.868385  
	 819A      5.878788   820A      5.887782   821A      5.898852  
	 822A      5.902021   823A      5.911557   824A      5.917536  
	 825A      5.940986   826A      5.944265   827A      5.969565  
	 828A      5.978783   829A      5.990777   830A      5.993287  
	 831A      6.015511   832A      6.038008   833A      6.047431  
	 834A      6.062866   835A      6.073552   836A      6.092140  
	 837A      6.104853   838A      6.113920   839A      6.125801  
	 840A      6.145868   841A      6.165734   842A      6.171602  
	 843A      6.179721   844A      6.190565   845A      6.211707  
	 846A      6.221666   847A      6.248027   848A      6.249881  
	 849A      6.257323   850A      6.283416   851A      6.295074  
	 852A      6.305171   853A      6.318612   854A      6.321446  
	 855A      6.329233   856A      6.344353   857A      6.386753  
	 858A      6.399388   859A      6.416424   860A      6.433007  
	 861A      6.448859   862A      6.459087   863A      6.501324  
	 864A      6.512408   865A      6.529196   866A      6.551647  
	 867A      6.591784   868A      6.645472   869A      6.647271  
	 870A      6.679588   871A      6.692401   872A      6.729495  
	 873A      6.738060   874A      6.805048   875A      6.844074  
	 876A      6.878761   877A      6.895268   878A      6.897454  
	 879A      6.914821   880A      6.942494   881A      6.960491  
	 882A      6.982250   883A      6.995644   884A      7.019137  
	 885A      7.022934   886A      7.041348   887A      7.055544  
	 888A      7.078656   889A      7.086227   890A      7.100652  
	 891A      7.120777   892A      7.145505   893A      7.173568  
	 894A      7.177098   895A      7.200497   896A      7.216046  
	 897A      7.232618   898A      7.243966   899A      7.293813  
	 900A      7.319250   901A      7.369599   902A      7.380566  
	 903A      7.416320   904A      7.439342   905A      7.459147  
	 906A      7.476321   907A      7.518495   908A      7.539629  
	 909A      7.565942   910A      7.593308   911A      7.621829  
	 912A      7.631142   913A      7.702060   914A      7.708492  
	 915A      7.780277   916A      7.786630   917A      7.819357  
	 918A      7.824865   919A      7.898295   920A      7.902671  
	 921A      7.908405   922A      7.938012   923A      7.940428  
	 924A      7.944608   925A      7.958067   926A      8.013131  
	 927A      8.031619   928A      8.070429   929A      8.087795  
	 930A      8.089260   931A      8.106939   932A      8.137348  
	 933A      8.149738   934A      8.157690   935A      8.201258  
	 936A      8.253686   937A      8.264379   938A      8.405612  
	 939A      8.438927   940A      8.508518   941A      8.563811  
	 942A      8.691292   943A      8.745850   944A      8.852101  
	 945A      9.186419   946A      9.257404   947A      9.477228  
	 948A      9.811240   949A     10.683140   950A     10.755591  
	 951A     10.828529   952A     11.052676   953A     11.274545  
	 954A     17.104170   955A     17.440708   956A     17.720811  
	 957A     18.091523   958A     19.157954   959A     21.143525  
	 960A     21.613886   961A     22.050940   962A     55.029195  
	 963A     55.124298   964A     55.922271   965A     56.629215  
	 966A     58.368653  

	Final Occupation by Irrep:
	          A 
	DOCC [    29 ]

  Energy converged.

  @RHF Final Energy:  -412.62538029726170

   => Energetics <=

    Nuclear Repulsion Energy =            357.0661763028283531
    One-Electron Energy =               -1270.5145934746460625
    Two-Electron Energy =                 500.8230368745561236
    DFT Exchange-Correlation Energy =       0.0000000000000000
    Empirical Dispersion Energy =           0.0000000000000000
    Total Energy =                       -412.6253802972615858



Properties will be evaluated at   0.000000,   0.000000,   0.000000 Bohr
  ==> Properties <==


Properties computed using the SCF density density matrix
  Nuclear Dipole Moment: (a.u.)
     X:    -9.6012      Y:     2.5164      Z:  -114.9333

  Electronic Dipole Moment: (a.u.)
     X:    10.1397      Y:    -0.6164      Z:   114.8890

  Dipole Moment: (a.u.)
     X:     0.5385      Y:     1.9000      Z:    -0.0443     Total:     1.9753

  Dipole Moment: (Debye)
     X:     1.3686      Y:     4.8293      Z:    -0.1127     Total:     5.0208


  Saving occupied orbitals to File 180.

  Saving SAPT 2-MONOMER_A file.

*** tstop() called on genome.bme.utexas.edu at Thu Apr  3 20:25:33 2014
Module time:
	user time   =    2099.74 seconds =      35.00 minutes
	system time =      21.08 seconds =       0.35 minutes
	total time  =        304 seconds =       5.07 minutes
Total time:
	user time   =    5803.95 seconds =      96.73 minutes
	system time =      70.55 seconds =       1.18 minutes
	total time  =        870 seconds =      14.50 minutes

  //>>>>>>>>>>>>>>>>>>>>>>>>>>>>>>>>>>>//
  //            Monomer B HF           //
  //<<<<<<<<<<<<<<<<<<<<<<<<<<<<<<<<<<<//


  No DF_BASIS_SCF auxiliary basis selected, defaulting to aug-cc-pvtz-jkfit


*** tstart() called on genome.bme.utexas.edu
*** at Thu Apr  3 20:25:33 2014


         ---------------------------------------------------------
                                   SCF
            by Justin Turney, Rob Parrish, and Andy Simmonett
                              RHF Reference
                        8 Threads,  40000 MiB Core
         ---------------------------------------------------------

  ==> Geometry <==

    Molecular point group: c1
    Full point group: C1

    Geometry (in Angstrom), charge = 0, multiplicity = 1:

       Center              X                  Y                   Z       
    ------------   -----------------  -----------------  -----------------
           N(Gh)     -0.121321180433    -0.953143496849    -1.007093965024
           H(Gh)     -0.136567388433    -1.961670269849    -0.936771147024
           C(Gh)     -1.358758480433    -0.333141993849    -1.235196430024
           O(Gh)     -2.373653157433    -0.999352483849    -1.343963046024
           C(Gh)     -1.270198597433     1.114624715151    -1.313711221024
           H(Gh)     -2.168988544433     1.679169838151    -1.492007692024
           C(Gh)     -0.075419599433     1.721331697151    -1.160728684024
           H(Gh)      0.041293135567     2.793885035151    -1.208505324024
           N(Gh)      1.073035696567     1.012263248151    -0.930648642024
           H(Gh)      1.955143376567     1.478366898151    -0.797070704024
           C(Gh)      1.114604512567    -0.367730982849    -0.829207774024
           O(Gh)      2.136780296567    -0.985956350849    -0.604595220024
           C          1.157261496567     2.359161295151     1.661813635976
           H          0.726412882567     2.670209990151     0.709031068976
           H          0.523027585567     2.764594416151     2.450061286976
           H          2.140141522567     2.819608707151     1.754935121976
           C          1.230277960567     0.840290345151     1.751331976976
           H          1.660661604567     0.550727489151     2.712622931976
           H          1.904867552567     0.449129794151     0.986213811976
           C         -0.134507229433     0.182123693151     1.596515217976
           H         -0.805751489433     0.550999503151     2.378134458976
           H         -0.581978098433     0.492388710151     0.646614991976
           C         -0.078218291433    -1.338562857849     1.656150713976
           H          0.345387204567    -1.640993272849     2.616786900976
           H          0.613303451567    -1.700441796849     0.891648285976
           C         -1.447501213433    -1.980436067849     1.472377062976
           H         -1.885880208433    -1.706978384849     0.512191553976
           H         -1.390562420433    -3.067204454849     1.516434250976
           H         -2.135463991433    -1.652090084849     2.251610109976

  Running in c1 symmetry.

  Nuclear repulsion =  185.616735778001981

  Charge       = 0
  Multiplicity = 1
  Electrons    = 42
  Nalpha       = 21
  Nbeta        = 21

  ==> Algorithm <==

  SCF Algorithm Type is DF.
  DIIS enabled.
  MOM disabled.
  Fractional occupation disabled.
  Guess Type is CORE.
  Energy threshold   = 1.00e-08
  Density threshold  = 1.00e-08
  Integral threshold = 0.00e+00

  ==> Primary Basis <==

  Basis Set: AUG-CC-PVTZ
    Number of shells: 326
    Number of basis function: 966
    Number of Cartesian functions: 1115
    Spherical Harmonics?: true
    Max angular momentum: 3

  ==> Pre-Iterations <==

   -------------------------------------------------------
    Irrep   Nso     Nmo     Nalpha   Nbeta   Ndocc  Nsocc
   -------------------------------------------------------
     A        966     966       0       0       0       0
   -------------------------------------------------------
    Total     966     966      21      21      21       0
   -------------------------------------------------------

 OEINTS: Wrapper to libmints.
   by Justin Turney

   Calculation information:
      Number of atoms:                  29
      Number of AO shells:             326
      Number of SO shells:             326
      Number of primitives:            566
      Number of atomic orbitals:      1115
      Number of basis functions:       966

      Number of irreps:                  1
      Number of functions per irrep: [ 966 ]

      Overlap, kinetic, potential, dipole, and quadrupole integrals
        stored in file 35.

  ==> Integral Setup <==

  ==> DFJK: Density-Fitted J/K Matrices <==

    J tasked:                  Yes
    K tasked:                  Yes
    wK tasked:                  No
    OpenMP threads:              8
    Integrals threads:           8
    Memory (MB):             28610
    Algorithm:                Core
    Integral Cache:           LOAD
    Schwarz Cutoff:          0E+00
    Fitting Condition:       1E-12

   => Auxiliary Basis Set <=

  Basis Set: aug-cc-pvtz-jkfit
    Number of shells: 614
    Number of basis function: 2088
    Number of Cartesian functions: 2583
    Spherical Harmonics?: true
    Max angular momentum: 4

  Minimum eigenvalue in the overlap matrix is 5.4123404946E-07.
  Using Symmetric Orthogonalization.
  SCF Guess: Core (One-Electron) Hamiltonian.

  Guess energy:  -163.71831215044287

  ==> Iterations <==

                        Total Energy        Delta E     RMS |[F,P]|

   @RHF iter   1:  -132.02553303258779   -1.32026e+02   1.26284e-02 
   @RHF iter   2:  -135.56980635246694   -3.54427e+00   5.06792e-03 DIIS
   @RHF iter   3:  -147.12616014951524   -1.15564e+01   8.51016e-03 DIIS
   @RHF iter   4:  -178.79692640435016   -3.16708e+01   5.47330e-03 DIIS
   @RHF iter   5:  -191.58386858895213   -1.27869e+01   2.97102e-03 DIIS
   @RHF iter   6:  -194.74654530422615   -3.16268e+00   1.69534e-03 DIIS
   @RHF iter   7:  -196.09004294090070   -1.34350e+00   6.95512e-04 DIIS
   @RHF iter   8:  -196.37943675447124   -2.89394e-01   1.87264e-04 DIIS
   @RHF iter   9:  -196.40281718751922   -2.33804e-02   4.53594e-05 DIIS
   @RHF iter  10:  -196.40435820442278   -1.54102e-03   9.97902e-06 DIIS
   @RHF iter  11:  -196.40443112475779   -7.29203e-05   3.24316e-06 DIIS
   @RHF iter  12:  -196.40444042617517   -9.30142e-06   8.53444e-07 DIIS
   @RHF iter  13:  -196.40444118845286   -7.62278e-07   1.36525e-07 DIIS
   @RHF iter  14:  -196.40444120805452   -1.96017e-08   4.11668e-08 DIIS
   @RHF iter  15:  -196.40444120938244   -1.32792e-09   9.65543e-09 DIIS

  ==> Post-Iterations <==

	Orbital Energies (a.u.)
	-----------------------

	Doubly Occupied:                                                      

	   1A    -11.212758     2A    -11.212660     3A    -11.210259  
	   4A    -11.207259     5A    -11.207248     6A     -1.081049  
	   7A     -1.015102     8A     -0.918744     9A     -0.820034  
	  10A     -0.785382    11A     -0.646666    12A     -0.598327  
	  13A     -0.592171    14A     -0.554215    15A     -0.547355  
	  16A     -0.524826    17A     -0.495237    18A     -0.475501  
	  19A     -0.462576    20A     -0.458710    21A     -0.446420  

	Virtual:                                                              

	  22A      0.022247    23A      0.031539    24A      0.031691  
	  25A      0.033644    26A      0.045206    27A      0.047057  
	  28A      0.049170    29A      0.050145    30A      0.056700  
	  31A      0.067207    32A      0.069150    33A      0.070321  
	  34A      0.074977    35A      0.076603    36A      0.080312  
	  37A      0.081256    38A      0.094489    39A      0.096609  
	  40A      0.100029    41A      0.101444    42A      0.104506  
	  43A      0.113800    44A      0.119825    45A      0.122094  
	  46A      0.123775    47A      0.128993    48A      0.132548  
	  49A      0.134151    50A      0.135532    51A      0.135766  
	  52A      0.139998    53A      0.144195    54A      0.148123  
	  55A      0.155981    56A      0.161077    57A      0.161961  
	  58A      0.167444    59A      0.169358    60A      0.171343  
	  61A      0.175259    62A      0.176801    63A      0.181206  
	  64A      0.187705    65A      0.192374    66A      0.196172  
	  67A      0.197762    68A      0.200334    69A      0.205731  
	  70A      0.209948    71A      0.216665    72A      0.218861  
	  73A      0.221611    74A      0.225817    75A      0.237057  
	  76A      0.243354    77A      0.248363    78A      0.252118  
	  79A      0.258485    80A      0.260555    81A      0.262396  
	  82A      0.268081    83A      0.270824    84A      0.273849  
	  85A      0.275645    86A      0.277886    87A      0.281180  
	  88A      0.291473    89A      0.293507    90A      0.302535  
	  91A      0.306028    92A      0.312384    93A      0.315170  
	  94A      0.317097    95A      0.323045    96A      0.328204  
	  97A      0.329260    98A      0.333318    99A      0.338198  
	 100A      0.347764   101A      0.349931   102A      0.352383  
	 103A      0.355478   104A      0.359333   105A      0.365222  
	 106A      0.365917   107A      0.366578   108A      0.374539  
	 109A      0.376722   110A      0.382807   111A      0.385444  
	 112A      0.386381   113A      0.387431   114A      0.396305  
	 115A      0.402348   116A      0.405283   117A      0.407456  
	 118A      0.410738   119A      0.413194   120A      0.418616  
	 121A      0.423487   122A      0.426241   123A      0.430615  
	 124A      0.432267   125A      0.437259   126A      0.440298  
	 127A      0.446808   128A      0.449335   129A      0.451846  
	 130A      0.456459   131A      0.466774   132A      0.473553  
	 133A      0.475637   134A      0.476791   135A      0.477825  
	 136A      0.484206   137A      0.486907   138A      0.488614  
	 139A      0.490608   140A      0.495982   141A      0.498836  
	 142A      0.503845   143A      0.510236   144A      0.514268  
	 145A      0.517903   146A      0.521777   147A      0.526413  
	 148A      0.529389   149A      0.530625   150A      0.534336  
	 151A      0.540316   152A      0.544364   153A      0.548659  
	 154A      0.552770   155A      0.555064   156A      0.555436  
	 157A      0.565568   158A      0.570010   159A      0.573770  
	 160A      0.577761   161A      0.583418   162A      0.586073  
	 163A      0.592536   164A      0.595603   165A      0.600496  
	 166A      0.604073   167A      0.608207   168A      0.614706  
	 169A      0.616145   170A      0.618591   171A      0.622703  
	 172A      0.628271   173A      0.635281   174A      0.640604  
	 175A      0.642707   176A      0.649313   177A      0.650840  
	 178A      0.654788   179A      0.659554   180A      0.664706  
	 181A      0.671135   182A      0.672993   183A      0.676081  
	 184A      0.683872   185A      0.685547   186A      0.689490  
	 187A      0.691053   188A      0.696212   189A      0.700424  
	 190A      0.709533   191A      0.710883   192A      0.715603  
	 193A      0.719122   194A      0.726007   195A      0.727097  
	 196A      0.730983   197A      0.743412   198A      0.746946  
	 199A      0.749390   200A      0.754546   201A      0.758596  
	 202A      0.764614   203A      0.766525   204A      0.772106  
	 205A      0.776625   206A      0.780025   207A      0.789271  
	 208A      0.793001   209A      0.799567   210A      0.809242  
	 211A      0.815669   212A      0.816272   213A      0.825419  
	 214A      0.828115   215A      0.831216   216A      0.842352  
	 217A      0.847521   218A      0.851470   219A      0.860029  
	 220A      0.863929   221A      0.866809   222A      0.873185  
	 223A      0.876750   224A      0.881468   225A      0.891318  
	 226A      0.905536   227A      0.908948   228A      0.911607  
	 229A      0.913419   230A      0.918959   231A      0.923407  
	 232A      0.927210   233A      0.932611   234A      0.935021  
	 235A      0.944560   236A      0.945254   237A      0.953123  
	 238A      0.958474   239A      0.960340   240A      0.965274  
	 241A      0.970183   242A      0.976807   243A      0.978625  
	 244A      0.986420   245A      0.989808   246A      0.996653  
	 247A      1.001749   248A      1.002973   249A      1.009851  
	 250A      1.017879   251A      1.025443   252A      1.026890  
	 253A      1.029624   254A      1.032521   255A      1.041687  
	 256A      1.047831   257A      1.051477   258A      1.057397  
	 259A      1.064788   260A      1.068255   261A      1.074857  
	 262A      1.077680   263A      1.084446   264A      1.089926  
	 265A      1.099516   266A      1.100988   267A      1.107772  
	 268A      1.111370   269A      1.115481   270A      1.119735  
	 271A      1.122736   272A      1.124831   273A      1.129767  
	 274A      1.134938   275A      1.136374   276A      1.144293  
	 277A      1.149702   278A      1.154812   279A      1.159094  
	 280A      1.164749   281A      1.170280   282A      1.171937  
	 283A      1.179191   284A      1.184744   285A      1.188228  
	 286A      1.189032   287A      1.194720   288A      1.205286  
	 289A      1.209019   290A      1.211818   291A      1.215943  
	 292A      1.228323   293A      1.229262   294A      1.235952  
	 295A      1.237528   296A      1.241241   297A      1.245188  
	 298A      1.247705   299A      1.254580   300A      1.262969  
	 301A      1.266075   302A      1.267974   303A      1.275027  
	 304A      1.279214   305A      1.286769   306A      1.289740  
	 307A      1.292414   308A      1.296929   309A      1.304863  
	 310A      1.309984   311A      1.320052   312A      1.325561  
	 313A      1.329976   314A      1.331233   315A      1.332774  
	 316A      1.344423   317A      1.348079   318A      1.353890  
	 319A      1.357747   320A      1.369524   321A      1.371166  
	 322A      1.378390   323A      1.384181   324A      1.386311  
	 325A      1.387148   326A      1.393002   327A      1.398194  
	 328A      1.403155   329A      1.409933   330A      1.418226  
	 331A      1.420603   332A      1.425659   333A      1.429959  
	 334A      1.436641   335A      1.443994   336A      1.449262  
	 337A      1.458659   338A      1.465072   339A      1.474757  
	 340A      1.479959   341A      1.488345   342A      1.489982  
	 343A      1.491248   344A      1.500673   345A      1.503207  
	 346A      1.513148   347A      1.520729   348A      1.532452  
	 349A      1.537156   350A      1.539462   351A      1.543831  
	 352A      1.557295   353A      1.561386   354A      1.570301  
	 355A      1.574206   356A      1.583060   357A      1.587956  
	 358A      1.592884   359A      1.597637   360A      1.602526  
	 361A      1.612120   362A      1.619349   363A      1.623481  
	 364A      1.626697   365A      1.631369   366A      1.635037  
	 367A      1.643024   368A      1.647305   369A      1.651763  
	 370A      1.655492   371A      1.661303   372A      1.671081  
	 373A      1.677316   374A      1.686377   375A      1.688071  
	 376A      1.689462   377A      1.702368   378A      1.704436  
	 379A      1.711052   380A      1.722928   381A      1.727565  
	 382A      1.735498   383A      1.742933   384A      1.745610  
	 385A      1.756200   386A      1.757774   387A      1.766208  
	 388A      1.768705   389A      1.770254   390A      1.772648  
	 391A      1.781800   392A      1.786056   393A      1.791341  
	 394A      1.802604   395A      1.803856   396A      1.814430  
	 397A      1.825475   398A      1.829619   399A      1.835280  
	 400A      1.840182   401A      1.847569   402A      1.853655  
	 403A      1.861370   404A      1.867563   405A      1.872767  
	 406A      1.878925   407A      1.886590   408A      1.888903  
	 409A      1.893358   410A      1.899313   411A      1.903854  
	 412A      1.911510   413A      1.920754   414A      1.923260  
	 415A      1.927870   416A      1.930564   417A      1.936518  
	 418A      1.947899   419A      1.953336   420A      1.963435  
	 421A      1.966035   422A      1.970545   423A      1.980419  
	 424A      1.995174   425A      1.998741   426A      2.004642  
	 427A      2.006106   428A      2.013330   429A      2.017561  
	 430A      2.024910   431A      2.029015   432A      2.032840  
	 433A      2.044462   434A      2.047170   435A      2.060313  
	 436A      2.065930   437A      2.068770   438A      2.077920  
	 439A      2.080560   440A      2.086786   441A      2.092573  
	 442A      2.096663   443A      2.109116   444A      2.115170  
	 445A      2.122377   446A      2.126233   447A      2.134751  
	 448A      2.153096   449A      2.156391   450A      2.163864  
	 451A      2.174287   452A      2.176902   453A      2.181347  
	 454A      2.192724   455A      2.197735   456A      2.210076  
	 457A      2.217715   458A      2.225993   459A      2.237258  
	 460A      2.240923   461A      2.243990   462A      2.247017  
	 463A      2.252253   464A      2.262387   465A      2.271851  
	 466A      2.277219   467A      2.279561   468A      2.288587  
	 469A      2.293382   470A      2.297093   471A      2.309011  
	 472A      2.316953   473A      2.327087   474A      2.336353  
	 475A      2.339064   476A      2.345812   477A      2.356174  
	 478A      2.363156   479A      2.367679   480A      2.374013  
	 481A      2.385990   482A      2.392244   483A      2.398778  
	 484A      2.406225   485A      2.413555   486A      2.420652  
	 487A      2.435265   488A      2.439821   489A      2.445859  
	 490A      2.450136   491A      2.457484   492A      2.461219  
[...]
     517A      2.457912   518A      2.462088   519A      2.490207  
     520A      2.492278   521A      2.494734   522A      2.504186  
     523A      2.514421   524A      2.518422   525A      2.523957  
     526A      2.531308   527A      2.541773   528A      2.567722  
     529A      2.574857   530A      2.579802   531A      2.590550  
     532A      2.591479   533A      2.606351   534A      2.630242  
     535A      2.634957   536A      2.648701   537A      2.658158  
     538A      2.659873   539A      2.668027   540A      2.684801  
     541A      2.689374   542A      2.714769   543A      2.721028  
     544A      2.726427   545A      2.734210   546A      2.737038  
     547A      2.740598   548A      2.753686   549A      2.765442  
     550A      2.767588   551A      2.779945   552A      2.793169  
     553A      2.800248   554A      2.808912   555A      2.834808  
     556A      2.847841   557A      2.854793   558A      2.862934  
     559A      2.881696   560A      2.885614   561A      2.926229  
     562A      2.930885   563A      2.934706   564A      2.945910  
     565A      2.960446   566A      2.985282   567A      3.016137  
     568A      3.020152   569A      3.026800   570A      3.062974  
     571A      3.073186   572A      3.078067   573A      3.127397  
     574A      3.135763   575A      3.146002   576A      3.162676  
     577A      3.193845   578A      3.215310   579A      3.223901  
     580A      3.236905   581A      3.257611   582A      3.260732  
     583A      3.274627   584A      3.287183   585A      3.317469  
     586A      3.350774   587A      3.354281   588A      3.374485  
     589A      3.418799   590A      3.437651   591A      3.450271  
     592A      3.453507   593A      3.462165   594A      3.471935  
     595A      3.490382   596A      3.492183   597A      3.500929  
     598A      3.513107   599A      3.526856   600A      3.533678  
     601A      3.548641   602A      3.555562   603A      3.593334  
     604A      3.597881   605A      3.601863   606A      3.606283  
     607A      3.626474   608A      3.633470   609A      3.640388  
     610A      3.651072   611A      3.662179   612A      3.669777  
     613A      3.687558   614A      3.689353   615A      3.693049  
     616A      3.702785   617A      3.703800   618A      3.732379  
     619A      3.741099   620A      3.745675   621A      3.751435  
     622A      3.757491   623A      3.770175   624A      3.775696  
     625A      3.778036   626A      3.780078   627A      3.786012  
     628A      3.807688   629A      3.817340   630A      3.818568  
     631A      3.827898   632A      3.846191   633A      3.877209  
     634A      3.883006   635A      3.892108   636A      3.896722  
     637A      3.903155   638A      3.912767   639A      3.922550  
     640A      3.933448   641A      3.940354   642A      3.953368  
     643A      3.954707   644A      3.970890   645A      3.977541  
     646A      3.996206   647A      3.997865   648A      3.999693  
     649A      4.007520   650A      4.011636   651A      4.017770  
     652A      4.023561   653A      4.034431   654A      4.043886  
     655A      4.046575   656A      4.059908   657A      4.063628  
     658A      4.073688   659A      4.078865   660A      4.080748  
     661A      4.088126   662A      4.110923   663A      4.123630  
     664A      4.133673   665A      4.158032   666A      4.174289  
     667A      4.184588   668A      4.188707   669A      4.194072  
     670A      4.196993   671A      4.207024   672A      4.215621  
     673A      4.228120   674A      4.238608   675A      4.242281  
     676A      4.252280   677A      4.259190   678A      4.264139  
     679A      4.270193   680A      4.285696   681A      4.308982  
     682A      4.315492   683A      4.323761   684A      4.326817  
     685A      4.332397   686A      4.336151   687A      4.337738  
     688A      4.354499   689A      4.368569   690A      4.377523  
     691A      4.386373   692A      4.394978   693A      4.403365  
     694A      4.417322   695A      4.457894   696A      4.466650  
     697A      4.476356   698A      4.484134   699A      4.492049  
     700A      4.496499   701A      4.529740   702A      4.537129  
     703A      4.547437   704A      4.552386   705A      4.565281  
     706A      4.579741   707A      4.612850   708A      4.618387  
     709A      4.621704   710A      4.635248   711A      4.647244  
     712A      4.657954   713A      4.669423   714A      4.682429  
     715A      4.686956   716A      4.690220   717A      4.705030  
     718A      4.713963   719A      4.716955   720A      4.737023  
     721A      4.739941   722A      4.745744   723A      4.757532  
     724A      4.769286   725A      4.771474   726A      4.799690  
     727A      4.807605   728A      4.818649   729A      4.828086  
     730A      4.839136   731A      4.840655   732A      4.853319  
     733A      4.856877   734A      4.869022   735A      4.876112  
     736A      4.878054   737A      4.901494   738A      4.903318  
     739A      4.907121   740A      4.911432   741A      4.914074  
     742A      4.925153   743A      4.948436   744A      4.955866  
     745A      4.967014   746A      4.972492   747A      4.989079  
     748A      4.993282   749A      4.998723   750A      5.002567  
     751A      5.021687   752A      5.025066   753A      5.034799  
     754A      5.036499   755A      5.046544   756A      5.058473  
     757A      5.099554   758A      5.110718   759A      5.115512  
     760A      5.120360   761A      5.128462   762A      5.134113  
     763A      5.137260   764A      5.150755   765A      5.172172  
     766A      5.188792   767A      5.189402   768A      5.201374  
     769A      5.206058   770A      5.222732   771A      5.234654  
     772A      5.237725   773A      5.246841   774A      5.253806  
     775A      5.259737   776A      5.273103   777A      5.289042  
     778A      5.292107   779A      5.296431   780A      5.300130  
     781A      5.301372   782A      5.325659   783A      5.360688  
     784A      5.364782   785A      5.381302   786A      5.384968  
     787A      5.388268   788A      5.405430   789A      5.414974  
     790A      5.421112   791A      5.425736   792A      5.450663  
     793A      5.452143   794A      5.454218   795A      5.463985  
     796A      5.492480   797A      5.511177   798A      5.513768  
     799A      5.523520   800A      5.531876   801A      5.545265  
     802A      5.566107   803A      5.571659   804A      5.582915  
     805A      5.587701   806A      5.612189   807A      5.633509  
     808A      5.635674   809A      5.673865   810A      5.675023  
     811A      5.683662   812A      5.691600   813A      5.695647  
     814A      5.705859   815A      5.724232   816A      5.731334  
     817A      5.768699   818A      5.773270   819A      5.805437  
     820A      5.816245   821A      5.818216   822A      5.821349  
     823A      5.842698   824A      5.861946   825A      5.865488  
     826A      5.883539   827A      5.909416   828A      5.918243  
     829A      5.933183   830A      5.947986   831A      5.972032  
     832A      5.976871   833A      5.991342   834A      6.005632  
     835A      6.059678   836A      6.079531   837A      6.098934  
     838A      6.108869   839A      6.124734   840A      6.154390  
     841A      6.204310   842A      6.210960   843A      6.212535  
     844A      6.216736   845A      6.235023   846A      6.237435  
     847A      6.241042   848A      6.266811   849A      6.291725  
     850A      6.302432   851A      6.334590   852A      6.345136  
     853A      6.365083   854A      6.403470   855A      6.421656  
     856A      6.442434   857A      6.460389   858A      6.465657  
     859A      6.506823   860A      6.530277   861A      6.583633  
     862A      6.587254   863A      6.602214   864A      6.604397  
     865A      6.630968   866A      6.650757   867A      6.704619  
     868A      6.755767   869A      6.765560   870A      6.798303  
     871A      6.806006   872A      6.838236   873A      6.845652  
     874A      6.860389   875A      6.867801   876A      6.874096  
     877A      6.906313   878A      6.918152   879A      6.931587  
     880A      6.955990   881A      7.075898   882A      7.111066  
     883A      7.119234   884A      7.272993   885A      7.339816  
     886A      7.367779   887A      7.433117   888A      7.531067  
     889A      7.551698   890A      7.564181   891A      7.584606  
     892A      7.592132   893A      7.625761   894A      7.639867  
     895A      7.655706   896A      7.660462   897A      7.713255  
     898A      7.754314   899A      7.820158   900A      7.834150  
     901A      7.865613   902A      7.890188   903A      7.905927  
     904A      7.965110   905A      7.984305   906A      8.011946  
     907A      8.022379   908A      8.131434   909A      8.184072  
     910A      8.250063   911A      8.264440   912A      8.332637  
     913A      8.427762   914A      8.566075   915A      8.656306  
     916A      8.712907   917A      8.737768   918A      8.895248  
     919A      9.041594   920A      9.097310   921A      9.235304  
     922A      9.296730   923A      9.443977   924A      9.503952  
     925A      9.528916   926A      9.761117   927A      9.863434  
     928A      9.959007   929A      9.963494   930A     10.038934  
     931A     10.126191   932A     10.171836   933A     10.244068  
     934A     10.394328   935A     10.445412   936A     10.527059  
     937A     10.548830   938A     10.992407   939A     11.231915  
     940A     11.309116   941A     11.453243   942A     12.013835  
     943A     12.038110   944A     12.044992   945A     12.051847  
     946A     12.275392   947A     12.490509   948A     12.702826  
     949A     12.902332   950A     13.322743   951A     13.543491  
     952A     14.193927   953A     14.227126   954A     17.724751  
     955A     18.086225   956A     18.099442   957A     18.470646  
     958A     19.283419   959A     51.706701   960A     51.935613  
     961A     54.100825   962A     55.183330   963A     60.143164  
     964A     60.906524   965A     69.126544   966A     69.630608  

    Final Occupation by Irrep:
              A 
    DOCC [    21 ]

  @DF-RHF Final Energy:  -196.40430355908762

   => Energetics <=

    Nuclear Repulsion Energy =            185.6166156986717510
    One-Electron Energy =                -631.0971256200359676
    Two-Electron Energy =                 249.0762063622765936
    Total Energy =                       -196.4043035590876229

Computation Completed


Properties will be evaluated at   0.000000,   0.000000,   0.000000 [a0]

Properties computed using the SCF density matrix

  Nuclear Dipole Moment: [e a0]
     X:    24.9076      Y:     3.6000      Z:   302.1497

  Electronic Dipole Moment: [e a0]
     X:   -24.8812      Y:    -3.6173      Z:  -302.1416

  Dipole Moment: [e a0]
     X:     0.0264      Y:    -0.0174      Z:     0.0082     Total:     0.0327

  Dipole Moment: [D]
     X:     0.0672      Y:    -0.0442      Z:     0.0207     Total:     0.0830


*** tstop() called on node85.bme.utexas.edu at Fri Apr 24 16:58:14 2020
Module time:
	user time   =     376.98 seconds =       6.28 minutes
	system time =       4.60 seconds =       0.08 minutes
	total time  =         53 seconds =       0.88 minutes
Total time:
	user time   =    1896.55 seconds =      31.61 minutes
	system time =      22.87 seconds =       0.38 minutes
	total time  =        308 seconds =       5.13 minutes
  Constructing Basis Sets for SAPT...

   => Loading Basis Set <=

    Name: (AUG-CC-PVTZ AUX)
    Role: RIFIT
    Keyword: DF_BASIS_SAPT
    atoms 1, 9                                           entry N          line   206 file /home/liuchw/anaconda3/envs/psi4env/share/psi4/basis/aug-cc-pvtz-ri.gbs 
    atoms 2, 6, 8, 10, 14-16, 18-19, 21-22, 24-25, 27-29 entry H          line    30 file /home/liuchw/anaconda3/envs/psi4env/share/psi4/basis/aug-cc-pvtz-ri.gbs 
    atoms 3, 5, 7, 11, 13, 17, 20, 23, 26                entry C          line   148 file /home/liuchw/anaconda3/envs/psi4env/share/psi4/basis/aug-cc-pvtz-ri.gbs 
    atoms 4, 12                                          entry O          line   264 file /home/liuchw/anaconda3/envs/psi4env/share/psi4/basis/aug-cc-pvtz-ri.gbs 


  //>>>>>>>>>>>>>>>>>>>>>>>>>>>>>>>>>>>//
  //               SAPT2+              //
  //<<<<<<<<<<<<<<<<<<<<<<<<<<<<<<<<<<<//


*** tstart() called on node85.bme.utexas.edu
*** at Fri Apr 24 16:58:14 2020

        SAPT2+  
    Ed Hohenstein
     6 June 2009

      Orbital Information
  --------------------------
    NSO        =       966
    NMO        =       966
    NRI        =      2114
    NOCC A     =        29
    NOCC B     =        21
    FOCC A     =         8
    FOCC B     =         5
    NVIR A     =       937
    NVIR B     =       945

    Estimated memory usage: 33127.7 MB

    Natural Orbital Cutoff:   1.000E-06
    Disp(T3) Truncation:            Yes
    CCD (vv|vv) Truncation:         Yes
    MBPT T2 Truncation:             Yes

    Monomer A: 549 virtual orbitals dropped
    Monomer B: 532 virtual orbitals dropped

    Elst10,r            =    -0.000001305261 [Eh]
    Exch10 (S^2)        =     0.000000988145 [Eh]
    Exch10              =     0.000000988145 [Eh]
    Ind20,r (A<-B)      =    -0.000000264071 [Eh]
    Ind20,r (B<-A)      =    -0.000027839424 [Eh]
    Ind20,r             =    -0.000028103495 [Eh]
    Exch-Ind20,r (A<-B) =     0.000000017909 [Eh]
    Exch-Ind20,r (B<-A) =     0.000000140454 [Eh]
    Exch-Ind20,r        =     0.000000158363 [Eh]
    Disp20              =    -0.000547278826 [Eh]
    Disp20 (NO)         =    -0.000536240045 [Eh]
    Exch-Disp20         =     0.000000315899 [Eh]
    Elst12,r            =    -0.000006448607 [Eh]
    Exch11              =    -0.000000041906 [Eh]
    Exch12              =     0.000000313121 [Eh]
    Ind22               =     0.000007795040 [Eh]
    Disp21              =     0.000136076887 [Eh]
    Disp22 (SDQ)        =    -0.000001009704 [Eh]

    (i =   1 of  16)       1123 seconds
    (i =   2 of  16)       2248 seconds
    (i =   3 of  16)       3378 seconds
    (i =   4 of  16)       4505 seconds
    (i =   5 of  16)       5629 seconds
    (i =   6 of  16)       6753 seconds
    (i =   7 of  16)       7877 seconds
    (i =   8 of  16)       9000 seconds
    (i =   9 of  16)      10129 seconds
    (i =  10 of  16)      11259 seconds
    (i =  11 of  16)      12389 seconds
    (i =  12 of  16)      13525 seconds
    (i =  13 of  16)      14650 seconds
    (i =  14 of  16)      15774 seconds
    (i =  15 of  16)      16898 seconds
    (i =  16 of  16)      18024 seconds

    Disp220 (T)         =    -0.000066828047 [Eh]

    (i =   1 of  21)        722 seconds
    (i =   2 of  21)       1443 seconds
    (i =   3 of  21)       2164 seconds
    (i =   4 of  21)       2886 seconds
    (i =   5 of  21)       3608 seconds
    (i =   6 of  21)       4332 seconds
    (i =   7 of  21)       5077 seconds
    (i =   8 of  21)       5847 seconds
    (i =   9 of  21)       6617 seconds
    (i =  10 of  21)       7387 seconds
    (i =  11 of  21)       8157 seconds
    (i =  12 of  21)       8927 seconds
    (i =  13 of  21)       9701 seconds
    (i =  14 of  21)      10474 seconds
    (i =  15 of  21)      11244 seconds
    (i =  16 of  21)      12013 seconds
    (i =  17 of  21)      12783 seconds
    (i =  18 of  21)      13554 seconds
    (i =  19 of  21)      14325 seconds
    (i =  20 of  21)      15096 seconds
    (i =  21 of  21)      15868 seconds

    Disp202 (T)         =    -0.000043730705 [Eh]

    Disp22 (T)          =    -0.000110558751 [Eh]

    Est. Disp220 (T)    =    -0.000068203737 [Eh]
    Est. Disp202 (T)    =    -0.000044630924 [Eh]

    Est. Disp22 (T)     =    -0.000112834661 [Eh]

    SAPT Results 
  --------------------------------------------------------------------------------------------------------
    Electrostatics                 -0.00775387 [mEh]      -0.00486563 [kcal/mol]      -0.02035778 [kJ/mol]
      Elst10,r                     -0.00130526 [mEh]      -0.00081906 [kcal/mol]      -0.00342696 [kJ/mol]
      Elst12,r                     -0.00644861 [mEh]      -0.00404656 [kcal/mol]      -0.01693082 [kJ/mol]

    Exchange                        0.00125936 [mEh]       0.00079026 [kcal/mol]       0.00330645 [kJ/mol]
      Exch10                        0.00098814 [mEh]       0.00062007 [kcal/mol]       0.00259437 [kJ/mol]
      Exch10(S^2)                   0.00098814 [mEh]       0.00062007 [kcal/mol]       0.00259437 [kJ/mol]
      Exch11(S^2)                  -0.00004191 [mEh]      -0.00002630 [kcal/mol]      -0.00011002 [kJ/mol]
      Exch12(S^2)                   0.00031312 [mEh]       0.00019649 [kcal/mol]       0.00082210 [kJ/mol]

    Induction                      -0.02027515 [mEh]      -0.01272285 [kcal/mol]      -0.05323239 [kJ/mol]
      Ind20,r                      -0.02810350 [mEh]      -0.01763521 [kcal/mol]      -0.07378572 [kJ/mol]
      Ind22                         0.00779504 [mEh]       0.00489146 [kcal/mol]       0.02046588 [kJ/mol]
      Exch-Ind20,r                  0.00015836 [mEh]       0.00009937 [kcal/mol]       0.00041578 [kJ/mol]
      Exch-Ind22                   -0.00004392 [mEh]      -0.00002756 [kcal/mol]      -0.00011532 [kJ/mol]
      delta HF,r (2)               -0.00008113 [mEh]      -0.00005091 [kcal/mol]      -0.00021300 [kJ/mol]

    Dispersion                     -0.52473040 [mEh]      -0.32927330 [kcal/mol]      -1.37767949 [kJ/mol]
      Disp20                       -0.54727883 [mEh]      -0.34342265 [kcal/mol]      -1.43688036 [kJ/mol]
      Disp21                        0.13607689 [mEh]       0.08538954 [kcal/mol]       0.35726982 [kJ/mol]
      Disp22 (SDQ)                 -0.00100970 [mEh]      -0.00063360 [kcal/mol]      -0.00265098 [kJ/mol]
      Disp22 (T)                   -0.11055875 [mEh]      -0.06937666 [kcal/mol]      -0.29027196 [kJ/mol]
      Est. Disp22 (T)              -0.11283466 [mEh]      -0.07080482 [kcal/mol]      -0.29624736 [kJ/mol]
      Exch-Disp20                   0.00031590 [mEh]       0.00019823 [kcal/mol]       0.00082939 [kJ/mol]

  Total HF                         -0.02834338 [mEh]      -0.01778574 [kcal/mol]      -0.07441553 [kJ/mol]
  Total SAPT0                      -0.57530630 [mEh]      -0.36101016 [kcal/mol]      -1.51046649 [kJ/mol]
  Total SAPT2                      -0.57373258 [mEh]      -0.36002263 [kcal/mol]      -1.50633468 [kJ/mol]
  Total SAPT2+                     -0.55150006 [mEh]      -0.34607151 [kcal/mol]      -1.44796320 [kJ/mol]

  Special recipe for scaled SAPT0 (see Manual):
    Electrostatics sSAPT0          -0.00130526 [mEh]      -0.00081906 [kcal/mol]      -0.00342696 [kJ/mol]
    Exchange sSAPT0                 0.00098814 [mEh]       0.00062007 [kcal/mol]       0.00259437 [kJ/mol]
    Induction sSAPT0               -0.02802626 [mEh]      -0.01758674 [kcal/mol]      -0.07358294 [kJ/mol]
    Dispersion sSAPT0              -0.54696293 [mEh]      -0.34322442 [kcal/mol]      -1.43605097 [kJ/mol]
  Total sSAPT0                     -0.57530630 [mEh]      -0.36101016 [kcal/mol]      -1.51046649 [kJ/mol]
  --------------------------------------------------------------------------------------------------------

*** tstop() called on node85.bme.utexas.edu at Sat Apr 25 05:00:36 2020
Module time:
	user time   =  276625.85 seconds =    4610.43 minutes
	system time =    3576.73 seconds =      59.61 minutes
	total time  =      43342 seconds =     722.37 minutes
Total time:
	user time   =  278523.45 seconds =    4642.06 minutes
	system time =    3599.64 seconds =      59.99 minutes
	total time  =      43650 seconds =     727.50 minutes

    Psi4 stopped on: Saturday, 25 April 2020 05:00AM
    Psi4 wall time for execution: 12:07:29.69

*** Psi4 exiting successfully. Buy a developer a beer!
