
    -----------------------------------------------------------------------
          Psi4: An Open-Source Ab Initio Electronic Structure Package
                               Psi4 1.4a2.dev224 

                         Git: Rev {master} e453b16 


    R. M. Parrish, L. A. Burns, D. G. A. Smith, A. C. Simmonett,
    A. E. DePrince III, E. G. Hohenstein, U. Bozkaya, A. Yu. Sokolov,
    R. Di Remigio, R. M. Richard, J. F. Gonthier, A. M. James,
    H. R. McAlexander, A. Kumar, M. Saitow, X. Wang, B. P. Pritchard,
    P. Verma, H. F. Schaefer III, K. Patkowski, R. A. King, E. F. Valeev,
    F. A. Evangelista, J. M. Turney, T. D. Crawford, and C. D. Sherrill,
    J. Chem. Theory Comput. 13(7) pp 3185--3197 (2017).
    (doi: 10.1021/acs.jctc.7b00174)


                         Additional Contributions by
    P. Kraus, H. Kruse, M. H. Lechner, M. C. Schieber, R. A. Shaw,
    A. Alenaizan, R. Galvelis, Z. L. Glick, S. Lehtola, and J. P. Misiewicz

    -----------------------------------------------------------------------


    Psi4 started on: Friday, 24 April 2020 03:43PM

    Process ID: 104457
    Host:       node51.bme.utexas.edu
    PSIDATADIR: /home/liuchw/anaconda3/envs/psi4env/share/psi4
    Memory:     500.0 MiB
    Threads:    8
    
  ==> Input File <==

--------------------------------------------------------------------------
#Generated by lconvert.py for sapt job

memory 50 GB

molecule  {
0 1
  N       0.195730   -0.844690    0.823850
  H       0.450400   -1.796750    1.049770
  C      -1.179050   -0.573680    0.759480
  O      -1.993650   -1.456260    0.966900
  C      -1.476710    0.811160    0.437560
  H      -2.506360    1.115650    0.363900
  C      -0.468110    1.682960    0.234890
  H      -0.638430    2.721640   -0.006160
  N       0.845630    1.305990    0.326830
  H       1.589690    1.968880    0.185960
  C       1.254260    0.019460    0.636240
  O       2.422300   -0.301720    0.731880
--
0 1
  C       1.111660   -0.893440    6.181300
  H       1.565510   -0.985500    5.193310
  H       1.656160   -1.557420    6.850490
  C       1.165970    0.572510    6.614230
  H       2.124260    1.045410    6.403510
  H       0.977850    0.654150    7.687450
  C      -0.001380    1.185320    5.843460
  H       0.272920    1.274110    4.789990
  H      -0.285800    2.176470    6.195090
  C      -1.118330    0.147750    6.014490
  H      -1.843870    0.171370    5.203120
  H      -1.662410    0.352450    6.936740
  C      -0.395290   -1.218800    6.118150
  H      -0.637960   -1.862950    5.274780
  H      -0.710400   -1.746200    7.017230
units angstrom
no_reorient
symmetry c1
}

set {
scf_type DF
basis aug-cc-pvtz
freeze_core True
guess SAD
}
energy('sapt2+')
--------------------------------------------------------------------------

  Memory set to  46.566 GiB by Python driver.

Scratch directory: /scratch/liuchw/

  //>>>>>>>>>>>>>>>>>>>>>>>>>>>>>>>>>>>//
  //              Dimer HF             //
  //<<<<<<<<<<<<<<<<<<<<<<<<<<<<<<<<<<<//


*** tstart() called on node51.bme.utexas.edu
*** at Fri Apr 24 15:43:58 2020

   => Loading Basis Set <=

    Name: AUG-CC-PVTZ
    Role: ORBITAL
    Keyword: BASIS
    atoms 1, 9                                           entry N          line   285 file /home/liuchw/anaconda3/envs/psi4env/share/psi4/basis/aug-cc-pvtz.gbs 
    atoms 2, 6, 8, 10, 14-15, 17-18, 20-21, 23-24, 26-27 entry H          line    40 file /home/liuchw/anaconda3/envs/psi4env/share/psi4/basis/aug-cc-pvtz.gbs 
    atoms 3, 5, 7, 11, 13, 16, 19, 22, 25                entry C          line   239 file /home/liuchw/anaconda3/envs/psi4env/share/psi4/basis/aug-cc-pvtz.gbs 
    atoms 4, 12                                          entry O          line   331 file /home/liuchw/anaconda3/envs/psi4env/share/psi4/basis/aug-cc-pvtz.gbs 


         ---------------------------------------------------------
                                   SCF
               by Justin Turney, Rob Parrish, Andy Simmonett
                          and Daniel G. A. Smith
                              RHF Reference
                        8 Threads,  47683 MiB Core
         ---------------------------------------------------------

  ==> Geometry <==

    Molecular point group: c1
    Full point group: C1

    Geometry (in Angstrom), charge = 0, multiplicity = 1:

       Center              X                  Y                   Z               Mass       
    ------------   -----------------  -----------------  -----------------  -----------------
         N            0.149004277982    -0.859509432908    -1.927311909533    14.003074004430
         H            0.403674277982    -1.811569432908    -1.701391909533     1.007825032230
         C           -1.225775722018    -0.588499432908    -1.991681909533    12.000000000000
         O           -2.040375722018    -1.471079432908    -1.784261909533    15.994914619570
         C           -1.523435722018     0.796340567092    -2.313601909533    12.000000000000
         H           -2.553085722018     1.100830567092    -2.387261909533     1.007825032230
         C           -0.514835722018     1.668140567092    -2.516271909533    12.000000000000
         H           -0.685155722018     2.706820567092    -2.757321909533     1.007825032230
         N            0.798904277982     1.291170567092    -2.424331909533    14.003074004430
         H            1.542964277982     1.954060567092    -2.565201909533     1.007825032230
         C            1.207534277982     0.004640567092    -2.114921909533    12.000000000000
         O            2.375574277982    -0.316539432908    -2.019281909533    15.994914619570
         C            1.064934277982    -0.908259432908     3.430138090467    12.000000000000
         H            1.518784277982    -1.000319432908     2.442148090467     1.007825032230
         H            1.609434277982    -1.572239432908     4.099328090467     1.007825032230
         C            1.119244277982     0.557690567092     3.863068090467    12.000000000000
         H            2.077534277982     1.030590567092     3.652348090467     1.007825032230
         H            0.931124277982     0.639330567092     4.936288090467     1.007825032230
         C           -0.048105722018     1.170500567092     3.092298090467    12.000000000000
         H            0.226194277982     1.259290567092     2.038828090467     1.007825032230
         H           -0.332525722018     2.161650567092     3.443928090467     1.007825032230
         C           -1.165055722018     0.132930567092     3.263328090467    12.000000000000
         H           -1.890595722018     0.156550567092     2.451958090467     1.007825032230
         H           -1.709135722018     0.337630567092     4.185578090467     1.007825032230
         C           -0.442015722018    -1.233619432908     3.366988090467    12.000000000000
         H           -0.684685722018    -1.877769432908     2.523618090467     1.007825032230
         H           -0.757125722018    -1.761019432908     4.266068090467     1.007825032230

  Running in c1 symmetry.

  Rotational constants: A =      0.03368  B =      0.01102  C =      0.01017 [cm^-1]
  Rotational constants: A =   1009.74361  B =    330.30004  C =    304.81137 [MHz]
  Nuclear repulsion =  751.946130705829432

  Charge       = 0
  Multiplicity = 1
  Electrons    = 98
  Nalpha       = 49
  Nbeta        = 49

  ==> Algorithm <==

  SCF Algorithm Type is DF.
  DIIS enabled.
  MOM disabled.
  Fractional occupation disabled.
  Guess Type is SAD.
  Energy threshold   = 1.00e-08
  Density threshold  = 1.00e-08
  Integral threshold = 0.00e+00

  ==> Primary Basis <==

  Basis Set: AUG-CC-PVTZ
    Blend: AUG-CC-PVTZ
    Number of shells: 308
    Number of basis function: 920
    Number of Cartesian functions: 1065
    Spherical Harmonics?: true
    Max angular momentum: 3

   => Loading Basis Set <=

    Name: (AUG-CC-PVTZ AUX)
    Role: JKFIT
    Keyword: DF_BASIS_SCF
    atoms 1, 9                                           entry N          line   224 file /home/liuchw/anaconda3/envs/psi4env/share/psi4/basis/aug-cc-pvtz-jkfit.gbs 
    atoms 2, 6, 8, 10, 14-15, 17-18, 20-21, 23-24, 26-27 entry H          line    70 file /home/liuchw/anaconda3/envs/psi4env/share/psi4/basis/aug-cc-pvtz-jkfit.gbs 
    atoms 3, 5, 7, 11, 13, 16, 19, 22, 25                entry C          line   162 file /home/liuchw/anaconda3/envs/psi4env/share/psi4/basis/aug-cc-pvtz-jkfit.gbs 
    atoms 4, 12                                          entry O          line   286 file /home/liuchw/anaconda3/envs/psi4env/share/psi4/basis/aug-cc-pvtz-jkfit.gbs 

  ==> Pre-Iterations <==

   -------------------------------------------------------
    Irrep   Nso     Nmo     Nalpha   Nbeta   Ndocc  Nsocc
   -------------------------------------------------------
     A        920     920       0       0       0       0
   -------------------------------------------------------
    Total     920     920      49      49      49       0
   -------------------------------------------------------

  ==> Integral Setup <==

  ==> DiskDFJK: Density-Fitted J/K Matrices <==

    J tasked:                  Yes
    K tasked:                  Yes
    wK tasked:                  No
    OpenMP threads:              8
    Integrals threads:           8
    Memory [MiB]:            35762
    Algorithm:                Core
    Integral Cache:           SAVE
    Schwarz Cutoff:          1E-12
    Fitting Condition:       1E-10

   => Auxiliary Basis Set <=

  Basis Set: (AUG-CC-PVTZ AUX)
    Blend: AUG-CC-PVTZ-JKFIT
    Number of shells: 586
    Number of basis function: 1996
    Number of Cartesian functions: 2473
    Spherical Harmonics?: true
    Max angular momentum: 4

  Minimum eigenvalue in the overlap matrix is 2.3638427557E-06.
  Using Symmetric Orthogonalization.

  SCF Guess: Superposition of Atomic Densities via on-the-fly atomic UHF.

  ==> Iterations <==

                           Total Energy        Delta E     RMS |[F,P]|

   @DF-RHF iter SAD:  -607.12205639161141   -6.07122e+02   0.00000e+00 
   @DF-RHF iter   1:  -607.35493403164821   -2.32878e-01   1.07183e-03 DIIS
   @DF-RHF iter   2:  -607.70029858054056   -3.45365e-01   6.67888e-04 DIIS
   @DF-RHF iter   3:  -607.84611947498149   -1.45821e-01   1.18885e-04 DIIS
   @DF-RHF iter   4:  -607.85311494952884   -6.99547e-03   5.81573e-05 DIIS
   @DF-RHF iter   5:  -607.85466870705966   -1.55376e-03   1.11916e-05 DIIS
   @DF-RHF iter   6:  -607.85480117102179   -1.32464e-04   5.02354e-06 DIIS
   @DF-RHF iter   7:  -607.85483002185401   -2.88508e-05   1.97919e-06 DIIS
   @DF-RHF iter   8:  -607.85483549938442   -5.47753e-06   6.69419e-07 DIIS
   @DF-RHF iter   9:  -607.85483602347563   -5.24091e-07   2.87682e-07 DIIS
   @DF-RHF iter  10:  -607.85483609885307   -7.53774e-08   9.63898e-08 DIIS
   @DF-RHF iter  11:  -607.85483610942549   -1.05724e-08   3.29142e-08 DIIS
   @DF-RHF iter  12:  -607.85483611056929   -1.14380e-09   1.33970e-08 DIIS
   @DF-RHF iter  13:  -607.85483611075017   -1.80876e-10   3.72019e-09 DIIS
  Energy and wave function converged.


  ==> Post-Iterations <==

    Orbital Energies [Eh]
    ---------------------

    Doubly Occupied:                                                      

       1A    -20.548606     2A    -20.543078     3A    -15.645714  
       4A    -15.628703     5A    -11.420148     6A    -11.382175  
       7A    -11.341873     8A    -11.256581     9A    -11.210548  
      10A    -11.209191    11A    -11.208522    12A    -11.208058  
      13A    -11.207326    14A     -1.437664    15A     -1.399669  
      16A     -1.314729    17A     -1.246962    18A     -1.114966  
      19A     -1.089623    20A     -0.955394    21A     -0.954687  
      22A     -0.934598    23A     -0.902826    24A     -0.808158  
      25A     -0.776075    26A     -0.766295    27A     -0.765681  
      28A     -0.715470    29A     -0.678847    30A     -0.670194  
      31A     -0.654301    32A     -0.648657    33A     -0.643463  
      34A     -0.616335    35A     -0.602836    36A     -0.572175  
      37A     -0.568152    38A     -0.566645    39A     -0.527198  
      40A     -0.485209    41A     -0.474215    42A     -0.473272  
      43A     -0.462007    44A     -0.459496    45A     -0.458421  
      46A     -0.450749    47A     -0.446828    48A     -0.438357  
      49A     -0.370221  

    Virtual:                                                              

      50A      0.013855    51A      0.032345    52A      0.032605  
      53A      0.038200    54A      0.043198    55A      0.044373  
      56A      0.049093    57A      0.051948    58A      0.057996  
      59A      0.061883    60A      0.067989    61A      0.069955  
      62A      0.072942    63A      0.077678    64A      0.081086  
      65A      0.083862    66A      0.091251    67A      0.095159  
      68A      0.105017    69A      0.109465    70A      0.116722  
      71A      0.117201    72A      0.119287    73A      0.121473  
      74A      0.122234    75A      0.126474    76A      0.129932  
      77A      0.131509    78A      0.132319    79A      0.137467  
      80A      0.139619    81A      0.145269    82A      0.146612  
      83A      0.149005    84A      0.151958    85A      0.153730  
      86A      0.155546    87A      0.161172    88A      0.164327  
      89A      0.164994    90A      0.167982    91A      0.172501  
      92A      0.172733    93A      0.177185    94A      0.178519  
      95A      0.182981    96A      0.192531    97A      0.195091  
      98A      0.198117    99A      0.204037   100A      0.215130  
     101A      0.219114   102A      0.222200   103A      0.231706  
     104A      0.238435   105A      0.241238   106A      0.247922  
     107A      0.249034   108A      0.258025   109A      0.267003  
     110A      0.268386   111A      0.270607   112A      0.275070  
     113A      0.276378   114A      0.281237   115A      0.285242  
     116A      0.291896   117A      0.293164   118A      0.298346  
     119A      0.303038   120A      0.305031   121A      0.306620  
     122A      0.308990   123A      0.313685   124A      0.315894  
     125A      0.319359   126A      0.321859   127A      0.329832  
     128A      0.330781   129A      0.332958   130A      0.338316  
     131A      0.340086   132A      0.342130   133A      0.343964  
     134A      0.348181   135A      0.350779   136A      0.352010  
     137A      0.355261   138A      0.361147   139A      0.363730  
     140A      0.368468   141A      0.376643   142A      0.381061  
     143A      0.382410   144A      0.384429   145A      0.389400  
     146A      0.390517   147A      0.398642   148A      0.400114  
     149A      0.402679   150A      0.404698   151A      0.407141  
     152A      0.410499   153A      0.413226   154A      0.420001  
     155A      0.425142   156A      0.425973   157A      0.427764  
     158A      0.430316   159A      0.432712   160A      0.439610  
     161A      0.442530   162A      0.445021   163A      0.450005  
     164A      0.453376   165A      0.459146   166A      0.460715  
     167A      0.465486   168A      0.469156   169A      0.474190  
     170A      0.479175   171A      0.483891   172A      0.486013  
     173A      0.490124   174A      0.491888   175A      0.498233  
     176A      0.500731   177A      0.507153   178A      0.509391  
     179A      0.511901   180A      0.512280   181A      0.518132  
     182A      0.521691   183A      0.526590   184A      0.527443  
     185A      0.529904   186A      0.531050   187A      0.532746  
     188A      0.536602   189A      0.544809   190A      0.550263  
     191A      0.555643   192A      0.557010   193A      0.561088  
     194A      0.563057   195A      0.572016   196A      0.572685  
     197A      0.576563   198A      0.578703   199A      0.581805  
     200A      0.587004   201A      0.592507   202A      0.596465  
     203A      0.600418   204A      0.602280   205A      0.604199  
     206A      0.613963   207A      0.614512   208A      0.620409  
     209A      0.623137   210A      0.634771   211A      0.634969  
     212A      0.638810   213A      0.641689   214A      0.646547  
     215A      0.649084   216A      0.655407   217A      0.657165  
     218A      0.664672   219A      0.667347   220A      0.673630  
     221A      0.675909   222A      0.676443   223A      0.680911  
     224A      0.691764   225A      0.693540   226A      0.698571  
     227A      0.708562   228A      0.712118   229A      0.714018  
     230A      0.720127   231A      0.721052   232A      0.732651  
     233A      0.736723   234A      0.737411   235A      0.740590  
     236A      0.758065   237A      0.759937   238A      0.766985  
     239A      0.770754   240A      0.778213   241A      0.779559  
     242A      0.785959   243A      0.791673   244A      0.795280  
     245A      0.808542   246A      0.811133   247A      0.818792  
     248A      0.823178   249A      0.832813   250A      0.838151  
     251A      0.847838   252A      0.853546   253A      0.858546  
     254A      0.862862   255A      0.866429   256A      0.873298  
     257A      0.881306   258A      0.882939   259A      0.885818  
     260A      0.891012   261A      0.899587   262A      0.903546  
     263A      0.907548   264A      0.909513   265A      0.912305  
     266A      0.916066   267A      0.919648   268A      0.921846  
     269A      0.925933   270A      0.934301   271A      0.943964  
     272A      0.944758   273A      0.947381   274A      0.951604  
     275A      0.956244   276A      0.958443   277A      0.961451  
     278A      0.967876   279A      0.978184   280A      0.980189  
     281A      0.983871   282A      0.988809   283A      0.989973  
     284A      0.993575   285A      0.999805   286A      1.003416  
     287A      1.005987   288A      1.008649   289A      1.010584  
     290A      1.016327   291A      1.019391   292A      1.022038  
     293A      1.031153   294A      1.033604   295A      1.039688  
     296A      1.043612   297A      1.047636   298A      1.051675  
     299A      1.055069   300A      1.060517   301A      1.069811  
     302A      1.077079   303A      1.081686   304A      1.085320  
     305A      1.090138   306A      1.090978   307A      1.093577  
     308A      1.098426   309A      1.103623   310A      1.112819  
     311A      1.114059   312A      1.118226   313A      1.121108  
     314A      1.125393   315A      1.135643   316A      1.139787  
     317A      1.142704   318A      1.143558   319A      1.149785  
     320A      1.152550   321A      1.156252   322A      1.159222  
     323A      1.164902   324A      1.173526   325A      1.174940  
     326A      1.179417   327A      1.188342   328A      1.189047  
     329A      1.193930   330A      1.195198   331A      1.198173  
     332A      1.203730   333A      1.207399   334A      1.209695  
     335A      1.214973   336A      1.224928   337A      1.226489  
     338A      1.232075   339A      1.242012   340A      1.246145  
     341A      1.252336   342A      1.252965   343A      1.261955  
     344A      1.263377   345A      1.270688   346A      1.273413  
     347A      1.282877   348A      1.284811   349A      1.286249  
     350A      1.297709   351A      1.302243   352A      1.305649  
     353A      1.318714   354A      1.319760   355A      1.324737  
     356A      1.335350   357A      1.337147   358A      1.343818  
     359A      1.348512   360A      1.358188   361A      1.367129  
     362A      1.371272   363A      1.374183   364A      1.379304  
     365A      1.387370   366A      1.390305   367A      1.395001  
     368A      1.398687   369A      1.409249   370A      1.414588  
     371A      1.420122   372A      1.424103   373A      1.429245  
     374A      1.434210   375A      1.438500   376A      1.441286  
     377A      1.453041   378A      1.460494   379A      1.465328  
     380A      1.467401   381A      1.469872   382A      1.480606  
     383A      1.484634   384A      1.485659   385A      1.494805  
     386A      1.497997   387A      1.505835   388A      1.511916  
     389A      1.515385   390A      1.518402   391A      1.525549  
     392A      1.535247   393A      1.541584   394A      1.542577  
     395A      1.547631   396A      1.551136   397A      1.556926  
     398A      1.567644   399A      1.573730   400A      1.575329  
     401A      1.580169   402A      1.582180   403A      1.594498  
     404A      1.598628   405A      1.602180   406A      1.607703  
     407A      1.612906   408A      1.631044   409A      1.635569  
     410A      1.640251   411A      1.644052   412A      1.652218  
     413A      1.655764   414A      1.658196   415A      1.664649  
     416A      1.675059   417A      1.677620   418A      1.681114  
     419A      1.693615   420A      1.699033   421A      1.709687  
     422A      1.716010   423A      1.723816   424A      1.725077  
     425A      1.731895   426A      1.738338   427A      1.746375  
     428A      1.755469   429A      1.762369   430A      1.765603  
     431A      1.769565   432A      1.776887   433A      1.784293  
     434A      1.797284   435A      1.799379   436A      1.803818  
     437A      1.809981   438A      1.820465   439A      1.829269  
     440A      1.836986   441A      1.847397   442A      1.859855  
     443A      1.861710   444A      1.865548   445A      1.873756  
     446A      1.881748   447A      1.887054   448A      1.889490  
     449A      1.892600   450A      1.909737   451A      1.913558  
     452A      1.921805   453A      1.931036   454A      1.934408  
     455A      1.945179   456A      1.948543   457A      1.949360  
     458A      1.954187   459A      1.962074   460A      1.970220  
     461A      1.981190   462A      1.984385   463A      1.992627  
     464A      2.000075   465A      2.002475   466A      2.015082  
     467A      2.024043   468A      2.026860   469A      2.034417  
     470A      2.037696   471A      2.038416   472A      2.046573  
     473A      2.052790   474A      2.058859   475A      2.074845  
     476A      2.104997   477A      2.109666   478A      2.115831  
     479A      2.120727   480A      2.122912   481A      2.131154  
     482A      2.135206   483A      2.141008   484A      2.147263  
     485A      2.149083   486A      2.157954   487A      2.163192  
     488A      2.164950   489A      2.168457   490A      2.169956  
     491A      2.185911   492A      2.189600   493A      2.204898  
     494A      2.213677   495A      2.214537   496A      2.233507  
     497A      2.241705   498A      2.253619   499A      2.267210  
     500A      2.281221   501A      2.281623   502A      2.283628  
     503A      2.295165   504A      2.301222   505A      2.310664  
     506A      2.315100   507A      2.317409   508A      2.328595  
     509A      2.332571   510A      2.352448   511A      2.361112  
     512A      2.366267   513A      2.373236   514A      2.401934  
     515A      2.403555   516A      2.410905   517A      2.411162  
     518A      2.414888   519A      2.424929   520A      2.430893  
     521A      2.437048   522A      2.448506   523A      2.454815  
     524A      2.459316   525A      2.471183   526A      2.476887  
     527A      2.490543   528A      2.497618   529A      2.503198  
     530A      2.507896   531A      2.527053   532A      2.536095  
     533A      2.539680   534A      2.542271   535A      2.551431  
     536A      2.557459   537A      2.565697   538A      2.583864  
     539A      2.591942   540A      2.596438   541A      2.599023  
     542A      2.612348   543A      2.617112   544A      2.620627  
     545A      2.641794   546A      2.642563   547A      2.658137  
     548A      2.665204   549A      2.670625   550A      2.680981  
     551A      2.695829   552A      2.698375   553A      2.714767  
     554A      2.729326   555A      2.736693   556A      2.763988  
     557A      2.778218   558A      2.786580   559A      2.791396  
     560A      2.811592   561A      2.829740   562A      2.840444  
     563A      2.842691   564A      2.877637   565A      2.882903  
     566A      2.924276   567A      2.948478   568A      2.971819  
     569A      2.981110   570A      3.013041   571A      3.022082  
     572A      3.029400   573A      3.045997   574A      3.060638  
     575A      3.066591   576A      3.090789   577A      3.140341  
     578A      3.157562   579A      3.190075   580A      3.210339  
     581A      3.213334   582A      3.251438   583A      3.266511  
     584A      3.273955   585A      3.275265   586A      3.304684  
     587A      3.312936   588A      3.325879   589A      3.333932  
     590A      3.357879   591A      3.372112   592A      3.378222  
     593A      3.388963   594A      3.402450   595A      3.420687  
     596A      3.431843   597A      3.445022   598A      3.452707  
     599A      3.483650   600A      3.489176   601A      3.495518  
     602A      3.512740   603A      3.522191   604A      3.528099  
     605A      3.545031   606A      3.550978   607A      3.570564  
     608A      3.577354   609A      3.578880   610A      3.588756  
     611A      3.600335   612A      3.607437   613A      3.607939  
     614A      3.620442   615A      3.628380   616A      3.638129  
     617A      3.645413   618A      3.653947   619A      3.657939  
     620A      3.688378   621A      3.692059   622A      3.696203  
     623A      3.704673   624A      3.717125   625A      3.726497  
     626A      3.727270   627A      3.735518   628A      3.754116  
     629A      3.758703   630A      3.763114   631A      3.763508  
     632A      3.772525   633A      3.776941   634A      3.780118  
     635A      3.790247   636A      3.822680   637A      3.825480  
     638A      3.829610   639A      3.839003   640A      3.851110  
     641A      3.854944   642A      3.862652   643A      3.877659  
     644A      3.895149   645A      3.903455   646A      3.908774  
     647A      3.915766   648A      3.928946   649A      3.931351  
     650A      3.940790   651A      3.942882   652A      3.957295  
     653A      3.960888   654A      3.976426   655A      3.984367  
     656A      3.997070   657A      4.004160   658A      4.008755  
     659A      4.010327   660A      4.026119   661A      4.026792  
     662A      4.037607   663A      4.041236   664A      4.055733  
     665A      4.062156   666A      4.067615   667A      4.076269  
     668A      4.082680   669A      4.090430   670A      4.094022  
     671A      4.101971   672A      4.107438   673A      4.116126  
     674A      4.131825   675A      4.138371   676A      4.143596  
     677A      4.151427   678A      4.167223   679A      4.176480  
     680A      4.186879   681A      4.203079   682A      4.209159  
     683A      4.215751   684A      4.229271   685A      4.231216  
     686A      4.238980   687A      4.249286   688A      4.257093  
     689A      4.261340   690A      4.280183   691A      4.282137  
     692A      4.292545   693A      4.300519   694A      4.317246  
     695A      4.323027   696A      4.341351   697A      4.349102  
     698A      4.355227   699A      4.358950   700A      4.372038  
     701A      4.376475   702A      4.385557   703A      4.399608  
     704A      4.407484   705A      4.421138   706A      4.427990  
     707A      4.429364   708A      4.440284   709A      4.446929  
     710A      4.448566   711A      4.453670   712A      4.459609  
     713A      4.477259   714A      4.485693   715A      4.505882  
     716A      4.507615   717A      4.517280   718A      4.525262  
     719A      4.569608   720A      4.581857   721A      4.590937  
     722A      4.613565   723A      4.622657   724A      4.635755  
     725A      4.638891   726A      4.648953   727A      4.657123  
     728A      4.665412   729A      4.683657   730A      4.690760  
     731A      4.698433   732A      4.701669   733A      4.712782  
     734A      4.725993   735A      4.747834   736A      4.762227  
     737A      4.765808   738A      4.767954   739A      4.770458  
     740A      4.781578   741A      4.819724   742A      4.834313  
     743A      4.841265   744A      4.859474   745A      4.863111  
     746A      4.875421   747A      4.900812   748A      4.905308  
     749A      4.914895   750A      4.925215   751A      4.934301  
     752A      4.943903   753A      4.956532   754A      4.964812  
     755A      4.972491   756A      4.987784   757A      4.989685  
     758A      5.000442   759A      5.002163   760A      5.012526  
     761A      5.030511   762A      5.035855   763A      5.038811  
     764A      5.044424   765A      5.053719   766A      5.075633  
     767A      5.087014   768A      5.090124   769A      5.096456  
     770A      5.102540   771A      5.110306   772A      5.116320  
     773A      5.120115   774A      5.128721   775A      5.141597  
     776A      5.148709   777A      5.160633   778A      5.180116  
     779A      5.188204   780A      5.209236   781A      5.219237  
     782A      5.240525   783A      5.250499   784A      5.265221  
     785A      5.273874   786A      5.293389   787A      5.304271  
     788A      5.316197   789A      5.334231   790A      5.343773  
     791A      5.360307   792A      5.370209   793A      5.410942  
     794A      5.425289   795A      5.439923   796A      5.464214  
     797A      5.480130   798A      5.483192   799A      5.491148  
     800A      5.498926   801A      5.502249   802A      5.503784  
     803A      5.507716   804A      5.510535   805A      5.517518  
     806A      5.530804   807A      5.534063   808A      5.539038  
     809A      5.545339   810A      5.560081   811A      5.576373  
     812A      5.595648   813A      5.603386   814A      5.610010  
     815A      5.629159   816A      5.669070   817A      5.683890  
     818A      5.702994   819A      5.713946   820A      5.726349  
     821A      5.764427   822A      5.768887   823A      5.782196  
     824A      5.789006   825A      5.789505   826A      5.802282  
     827A      5.805452   828A      5.811578   829A      5.826022  
     830A      5.845876   831A      5.865080   832A      5.875032  
     833A      5.879431   834A      5.908189   835A      5.910250  
     836A      5.927907   837A      5.959715   838A      5.988105  
     839A      6.009322   840A      6.013329   841A      6.026482  
     842A      6.045238   843A      6.052499   844A      6.061315  
     845A      6.099846   846A      6.102018   847A      6.113232  
     848A      6.140889   849A      6.170804   850A      6.186613  
     851A      6.194536   852A      6.245076   853A      6.266918  
     854A      6.275489   855A      6.291876   856A      6.333556  
     857A      6.371214   858A      6.428988   859A      6.436052  
     860A      6.455575   861A      6.482858   862A      6.541649  
     863A      6.554676   864A      6.590185   865A      6.632546  
     866A      6.657690   867A      6.672202   868A      6.681435  
     869A      6.713061   870A      6.719636   871A      6.739183  
     872A      6.755707   873A      6.778826   874A      6.813209  
     875A      6.843445   876A      6.852098   877A      6.870583  
     878A      6.904792   879A      6.928985   880A      6.957064  
     881A      6.961473   882A      6.973170   883A      6.994972  
     884A      7.017797   885A      7.056703   886A      7.065811  
     887A      7.121262   888A      7.151739   889A      7.191441  
     890A      7.269127   891A      7.356401   892A      7.386715  
     893A      7.390799   894A      7.410787   895A      7.412150  
     896A      7.469549   897A      7.652197   898A      7.681876  
     899A      7.720659   900A      7.734884   901A      7.820185  
     902A      7.864328   903A      7.917565   904A      7.953835  
     905A      7.989307   906A      8.034097   907A      8.118056  
     908A     16.039577   909A     16.107017   910A     16.423630  
     911A     17.015332   912A     17.925512   913A     18.118311  
     914A     18.320671   915A     18.866024   916A     19.574466  
     917A     19.589538   918A     19.964266   919A     20.099537  
     920A     20.625381  

    Final Occupation by Irrep:
              A 
    DOCC [    49 ]

  @DF-RHF Final Energy:  -607.85483611075017

   => Energetics <=

    Nuclear Repulsion Energy =            751.9461307058294324
    One-Electron Energy =               -2319.0801374729953750
    Two-Electron Energy =                 959.2791706564156584
    Total Energy =                       -607.8548361107501705

Computation Completed


Properties will be evaluated at   0.000000,   0.000000,   0.000000 [a0]

Properties computed using the SCF density matrix

  Nuclear Dipole Moment: [e a0]
     X:    -0.2848      Y:     3.1062      Z:    23.0832

  Electronic Dipole Moment: [e a0]
     X:     0.3012      Y:    -1.2214      Z:   -23.5411

  Dipole Moment: [e a0]
     X:     0.0164      Y:     1.8848      Z:    -0.4579     Total:     1.9396

  Dipole Moment: [D]
     X:     0.0416      Y:     4.7906      Z:    -1.1638     Total:     4.9301


*** tstop() called on node51.bme.utexas.edu at Fri Apr 24 15:47:29 2020
Module time:
	user time   =     899.30 seconds =      14.99 minutes
	system time =      13.82 seconds =       0.23 minutes
	total time  =        211 seconds =       3.52 minutes
Total time:
	user time   =     899.30 seconds =      14.99 minutes
	system time =      13.82 seconds =       0.23 minutes
	total time  =        211 seconds =       3.52 minutes

  //>>>>>>>>>>>>>>>>>>>>>>>>>>>>>>>>>>>//
  //            Monomer A HF           //
  //<<<<<<<<<<<<<<<<<<<<<<<<<<<<<<<<<<<//


*** tstart() called on node51.bme.utexas.edu
*** at Fri Apr 24 15:47:29 2020

   => Loading Basis Set <=

    Name: AUG-CC-PVTZ
    Role: ORBITAL
    Keyword: BASIS
    atoms 1, 9                                           entry N          line   285 file /home/liuchw/anaconda3/envs/psi4env/share/psi4/basis/aug-cc-pvtz.gbs 
    atoms 2, 6, 8, 10, 14-15, 17-18, 20-21, 23-24, 26-27 entry H          line    40 file /home/liuchw/anaconda3/envs/psi4env/share/psi4/basis/aug-cc-pvtz.gbs 
    atoms 3, 5, 7, 11, 13, 16, 19, 22, 25                entry C          line   239 file /home/liuchw/anaconda3/envs/psi4env/share/psi4/basis/aug-cc-pvtz.gbs 
    atoms 4, 12                                          entry O          line   331 file /home/liuchw/anaconda3/envs/psi4env/share/psi4/basis/aug-cc-pvtz.gbs 


         ---------------------------------------------------------
                                   SCF
               by Justin Turney, Rob Parrish, Andy Simmonett
                          and Daniel G. A. Smith
                              RHF Reference
                        8 Threads,  47683 MiB Core
         ---------------------------------------------------------

  ==> Geometry <==

    Molecular point group: c1
    Full point group: C1

    Geometry (in Angstrom), charge = 0, multiplicity = 1:

       Center              X                  Y                   Z               Mass       
    ------------   -----------------  -----------------  -----------------  -----------------
         N            0.149004277982    -0.859509432908    -1.927311909533    14.003074004430
         H            0.403674277982    -1.811569432908    -1.701391909533     1.007825032230
         C           -1.225775722018    -0.588499432908    -1.991681909533    12.000000000000
         O           -2.040375722018    -1.471079432908    -1.784261909533    15.994914619570
         C           -1.523435722018     0.796340567092    -2.313601909533    12.000000000000
         H           -2.553085722018     1.100830567092    -2.387261909533     1.007825032230
         C           -0.514835722018     1.668140567092    -2.516271909533    12.000000000000
         H           -0.685155722018     2.706820567092    -2.757321909533     1.007825032230
         N            0.798904277982     1.291170567092    -2.424331909533    14.003074004430
         H            1.542964277982     1.954060567092    -2.565201909533     1.007825032230
         C            1.207534277982     0.004640567092    -2.114921909533    12.000000000000
         O            2.375574277982    -0.316539432908    -2.019281909533    15.994914619570
      Gh(C)           1.064934277982    -0.908259432908     3.430138090467    12.000000000000
      Gh(H)           1.518784277982    -1.000319432908     2.442148090467     1.007825032230
      Gh(H)           1.609434277982    -1.572239432908     4.099328090467     1.007825032230
      Gh(C)           1.119244277982     0.557690567092     3.863068090467    12.000000000000
      Gh(H)           2.077534277982     1.030590567092     3.652348090467     1.007825032230
      Gh(H)           0.931124277982     0.639330567092     4.936288090467     1.007825032230
      Gh(C)          -0.048105722018     1.170500567092     3.092298090467    12.000000000000
      Gh(H)           0.226194277982     1.259290567092     2.038828090467     1.007825032230
      Gh(H)          -0.332525722018     2.161650567092     3.443928090467     1.007825032230
      Gh(C)          -1.165055722018     0.132930567092     3.263328090467    12.000000000000
      Gh(H)          -1.890595722018     0.156550567092     2.451958090467     1.007825032230
      Gh(H)          -1.709135722018     0.337630567092     4.185578090467     1.007825032230
      Gh(C)          -0.442015722018    -1.233619432908     3.366988090467    12.000000000000
      Gh(H)          -0.684685722018    -1.877769432908     2.523618090467     1.007825032230
      Gh(H)          -0.757125722018    -1.761019432908     4.266068090467     1.007825032230

  Running in c1 symmetry.

  Rotational constants: A =      0.03368  B =      0.01102  C =      0.01017 [cm^-1]
  Rotational constants: A =   1009.74361  B =    330.30004  C =    304.81137 [MHz]
  Nuclear repulsion =  357.041956929815740

  Charge       = 0
  Multiplicity = 1
  Electrons    = 58
  Nalpha       = 29
  Nbeta        = 29

  ==> Algorithm <==

  SCF Algorithm Type is DF.
  DIIS enabled.
  MOM disabled.
  Fractional occupation disabled.
  Guess Type is SAD.
  Energy threshold   = 1.00e-08
  Density threshold  = 1.00e-08
  Integral threshold = 0.00e+00

  ==> Primary Basis <==

  Basis Set: AUG-CC-PVTZ
    Blend: AUG-CC-PVTZ
    Number of shells: 308
    Number of basis function: 920
    Number of Cartesian functions: 1065
    Spherical Harmonics?: true
    Max angular momentum: 3

   => Loading Basis Set <=

    Name: (AUG-CC-PVTZ AUX)
    Role: JKFIT
    Keyword: DF_BASIS_SCF
    atoms 1, 9                                           entry N          line   224 file /home/liuchw/anaconda3/envs/psi4env/share/psi4/basis/aug-cc-pvtz-jkfit.gbs 
    atoms 2, 6, 8, 10, 14-15, 17-18, 20-21, 23-24, 26-27 entry H          line    70 file /home/liuchw/anaconda3/envs/psi4env/share/psi4/basis/aug-cc-pvtz-jkfit.gbs 
    atoms 3, 5, 7, 11, 13, 16, 19, 22, 25                entry C          line   162 file /home/liuchw/anaconda3/envs/psi4env/share/psi4/basis/aug-cc-pvtz-jkfit.gbs 
    atoms 4, 12                                          entry O          line   286 file /home/liuchw/anaconda3/envs/psi4env/share/psi4/basis/aug-cc-pvtz-jkfit.gbs 

  ==> Pre-Iterations <==

   -------------------------------------------------------
    Irrep   Nso     Nmo     Nalpha   Nbeta   Ndocc  Nsocc
   -------------------------------------------------------
     A        920     920       0       0       0       0
   -------------------------------------------------------
    Total     920     920      29      29      29       0
   -------------------------------------------------------

  ==> Integral Setup <==

  ==> DiskDFJK: Density-Fitted J/K Matrices <==

    J tasked:                  Yes
    K tasked:                  Yes
    wK tasked:                  No
    OpenMP threads:              8
    Integrals threads:           8
    Memory [MiB]:            35762
    Algorithm:                Core
    Integral Cache:           LOAD
    Schwarz Cutoff:          1E-12
    Fitting Condition:       1E-10

   => Auxiliary Basis Set <=

  Basis Set: (AUG-CC-PVTZ AUX)
    Blend: AUG-CC-PVTZ-JKFIT
    Number of shells: 586
    Number of basis function: 1996
    Number of Cartesian functions: 2473
    Spherical Harmonics?: true
    Max angular momentum: 4

  Minimum eigenvalue in the overlap matrix is 2.3638427557E-06.
  Using Symmetric Orthogonalization.

  SCF Guess: Superposition of Atomic Densities via on-the-fly atomic UHF.

  ==> Iterations <==

                           Total Energy        Delta E     RMS |[F,P]|

   @DF-RHF iter SAD:  -411.96776511769770   -4.11968e+02   0.00000e+00 
   @DF-RHF iter   1:  -412.37940245863450   -4.11637e-01   8.09144e-04 DIIS
   @DF-RHF iter   2:  -412.54245528628337   -1.63053e-01   5.31979e-04 DIIS
   @DF-RHF iter   3:  -412.61948710342119   -7.70318e-02   9.62301e-05 DIIS
   @DF-RHF iter   4:  -412.62365480274292   -4.16770e-03   3.99003e-05 DIIS
   @DF-RHF iter   5:  -412.62453323128693   -8.78429e-04   8.10799e-06 DIIS
   @DF-RHF iter   6:  -412.62463718133944   -1.03950e-04   4.07119e-06 DIIS
   @DF-RHF iter   7:  -412.62465580469939   -1.86234e-05   1.65642e-06 DIIS
   @DF-RHF iter   8:  -412.62465906572152   -3.26102e-06   5.49383e-07 DIIS
   @DF-RHF iter   9:  -412.62465930798237   -2.42261e-07   2.30333e-07 DIIS
   @DF-RHF iter  10:  -412.62465936591013   -5.79278e-08   7.63939e-08 DIIS
   @DF-RHF iter  11:  -412.62465937327465   -7.36452e-09   2.50315e-08 DIIS
   @DF-RHF iter  12:  -412.62465937387020   -5.95548e-10   8.37107e-09 DIIS
  Energy and wave function converged.


  ==> Post-Iterations <==

    Orbital Energies [Eh]
    ---------------------

    Doubly Occupied:                                                      

       1A    -20.548091     2A    -20.542553     3A    -15.645311  
       4A    -15.628126     5A    -11.419647     6A    -11.381669  
       7A    -11.341534     8A    -11.256267     9A     -1.437146  
      10A     -1.399127    11A     -1.314286    12A     -1.246429  
      13A     -1.089253    14A     -0.934182    15A     -0.902325  
      16A     -0.807741    17A     -0.765854    18A     -0.715052  
      19A     -0.678356    20A     -0.669665    21A     -0.653858  
      22A     -0.615894    23A     -0.602441    24A     -0.571595  
      25A     -0.526773    26A     -0.484706    27A     -0.450227  
      28A     -0.437773    29A     -0.369845  

    Virtual:                                                              

      30A      0.012363    31A      0.022453    32A      0.031279  
      33A      0.034650    34A      0.040718    35A      0.041984  
      36A      0.047458    37A      0.050976    38A      0.057357  
      39A      0.060706    40A      0.064456    41A      0.068816  
      42A      0.070439    43A      0.071531    44A      0.077976  
      45A      0.081569    46A      0.089338    47A      0.092485  
      48A      0.099163    49A      0.102254    50A      0.105022  
      51A      0.107678    52A      0.111222    53A      0.114570  
      54A      0.118104    55A      0.119918    56A      0.122106  
      57A      0.126674    58A      0.129268    59A      0.134185  
      60A      0.137179    61A      0.140461    62A      0.141192  
      63A      0.145738    64A      0.148048    65A      0.151842  
      66A      0.153577    67A      0.156236    68A      0.159644  
      69A      0.162983    70A      0.165304    71A      0.169388  
      72A      0.170428    73A      0.171769    74A      0.177295  
      75A      0.181090    76A      0.185269    77A      0.188156  
      78A      0.192764    79A      0.199174    80A      0.201332  
      81A      0.205069    82A      0.215657    83A      0.219012  
      84A      0.227436    85A      0.232728    86A      0.235014  
      87A      0.243390    88A      0.250514    89A      0.258282  
      90A      0.261070    91A      0.268340    92A      0.269003  
      93A      0.272533    94A      0.276169    95A      0.283081  
      96A      0.284661    97A      0.292640    98A      0.292939  
      99A      0.294975   100A      0.299188   101A      0.305281  
     102A      0.307692   103A      0.312048   104A      0.315879  
     105A      0.318422   106A      0.321563   107A      0.324834  
     108A      0.329500   109A      0.332841   110A      0.335471  
     111A      0.340516   112A      0.343307   113A      0.344691  
     114A      0.345833   115A      0.347981   116A      0.352617  
     117A      0.355852   118A      0.361497   119A      0.363322  
     120A      0.366959   121A      0.370188   122A      0.372212  
     123A      0.375483   124A      0.379323   125A      0.383839  
     126A      0.389086   127A      0.391185   128A      0.395454  
     129A      0.397684   130A      0.400642   131A      0.408400  
     132A      0.408978   133A      0.410165   134A      0.414321  
     135A      0.418859   136A      0.425585   137A      0.428013  
     138A      0.431417   139A      0.434338   140A      0.436536  
     141A      0.437565   142A      0.444724   143A      0.447322  
     144A      0.450424   145A      0.454113   146A      0.456860  
     147A      0.465667   148A      0.468041   149A      0.470046  
     150A      0.473945   151A      0.477653   152A      0.485410  
     153A      0.491436   154A      0.495183   155A      0.500164  
     156A      0.502294   157A      0.505916   158A      0.513138  
     159A      0.515478   160A      0.520638   161A      0.522662  
     162A      0.525799   163A      0.528607   164A      0.532669  
     165A      0.537752   166A      0.545373   167A      0.548356  
     168A      0.549458   169A      0.551870   170A      0.555045  
     171A      0.562420   172A      0.568313   173A      0.573036  
     174A      0.578170   175A      0.580984   176A      0.586655  
     177A      0.587951   178A      0.591636   179A      0.601122  
     180A      0.601926   181A      0.606420   182A      0.610396  
     183A      0.616268   184A      0.618505   185A      0.623476  
     186A      0.627857   187A      0.632941   188A      0.638362  
     189A      0.643029   190A      0.648473   191A      0.652643  
     192A      0.653748   193A      0.657406   194A      0.662575  
     195A      0.665349   196A      0.672334   197A      0.678384  
     198A      0.682406   199A      0.687278   200A      0.691965  
     201A      0.695591   202A      0.696044   203A      0.701589  
     204A      0.707142   205A      0.710116   206A      0.715092  
     207A      0.717428   208A      0.720053   209A      0.727222  
     210A      0.730755   211A      0.736335   212A      0.738860  
     213A      0.745289   214A      0.751603   215A      0.754258  
     216A      0.754740   217A      0.759125   218A      0.767198  
     219A      0.772048   220A      0.777540   221A      0.785052  
     222A      0.786610   223A      0.790715   224A      0.793289  
     225A      0.799461   226A      0.804439   227A      0.811523  
     228A      0.813847   229A      0.819747   230A      0.829099  
     231A      0.831780   232A      0.839599   233A      0.845246  
     234A      0.850534   235A      0.856077   236A      0.860071  
     237A      0.862639   238A      0.864676   239A      0.871197  
     240A      0.875469   241A      0.881338   242A      0.894148  
     243A      0.896339   244A      0.910323   245A      0.911769  
     246A      0.921816   247A      0.924824   248A      0.928464  
     249A      0.931208   250A      0.942074   251A      0.951843  
     252A      0.959150   253A      0.967114   254A      0.968309  
     255A      0.976205   256A      0.987018   257A      0.991104  
     258A      0.997587   259A      1.001302   260A      1.007388  
     261A      1.009661   262A      1.017564   263A      1.025402  
     264A      1.035518   265A      1.038123   266A      1.042109  
     267A      1.050977   268A      1.053226   269A      1.056759  
     270A      1.063739   271A      1.067812   272A      1.071256  
     273A      1.075454   274A      1.077882   275A      1.086425  
     276A      1.091730   277A      1.095534   278A      1.102593  
     279A      1.104246   280A      1.112188   281A      1.113151  
     282A      1.115788   283A      1.118097   284A      1.124906  
     285A      1.127794   286A      1.128670   287A      1.135447  
     288A      1.137334   289A      1.139534   290A      1.144747  
     291A      1.150429   292A      1.152070   293A      1.156379  
     294A      1.158028   295A      1.163607   296A      1.172793  
     297A      1.177866   298A      1.179515   299A      1.183874  
     300A      1.186870   301A      1.189494   302A      1.192455  
     303A      1.198970   304A      1.200910   305A      1.206824  
     306A      1.209627   307A      1.214450   308A      1.220565  
     309A      1.224954   310A      1.231465   311A      1.234364  
     312A      1.236291   313A      1.241651   314A      1.250880  
     315A      1.253248   316A      1.265279   317A      1.269922  
     318A      1.271624   319A      1.280780   320A      1.287624  
     321A      1.290926   322A      1.298464   323A      1.300094  
     324A      1.304455   325A      1.313889   326A      1.317393  
     327A      1.321108   328A      1.330523   329A      1.333078  
     330A      1.336411   331A      1.339326   332A      1.345863  
     333A      1.352722   334A      1.354979   335A      1.360711  
     336A      1.367203   337A      1.369827   338A      1.378172  
     339A      1.382129   340A      1.390311   341A      1.390947  
     342A      1.396788   343A      1.404059   344A      1.406793  
     345A      1.412963   346A      1.413870   347A      1.420131  
     348A      1.424796   349A      1.426899   350A      1.431655  
     351A      1.435737   352A      1.442763   353A      1.444850  
     354A      1.452915   355A      1.460543   356A      1.464177  
     357A      1.473229   358A      1.477716   359A      1.478477  
     360A      1.485413   361A      1.489407   362A      1.494672  
     363A      1.497150   364A      1.504068   365A      1.510919  
     366A      1.513243   367A      1.516656   368A      1.525770  
     369A      1.526001   370A      1.534312   371A      1.537844  
     372A      1.547213   373A      1.549928   374A      1.554266  
     375A      1.561592   376A      1.567513   377A      1.568362  
     378A      1.577651   379A      1.581205   380A      1.585825  
     381A      1.594807   382A      1.603363   383A      1.604462  
     384A      1.607890   385A      1.614936   386A      1.620997  
     387A      1.627524   388A      1.637172   389A      1.639147  
     390A      1.641474   391A      1.651383   392A      1.652866  
     393A      1.664535   394A      1.671771   395A      1.677646  
     396A      1.684885   397A      1.685822   398A      1.691142  
     399A      1.698309   400A      1.701365   401A      1.713149  
     402A      1.722487   403A      1.724075   404A      1.730983  
     405A      1.733620   406A      1.743329   407A      1.752211  
     408A      1.754340   409A      1.762949   410A      1.773670  
     411A      1.776773   412A      1.782637   413A      1.797257  
     414A      1.805154   415A      1.812389   416A      1.822500  
     417A      1.827693   418A      1.829678   419A      1.851807  
     420A      1.874671   421A      1.876513   422A      1.886880  
     423A      1.895970   424A      1.900645   425A      1.904290  
     426A      1.928732   427A      1.935451   428A      1.944373  
     429A      1.950298   430A      1.952609   431A      1.961786  
     432A      1.971008   433A      1.988819   434A      2.005151  
     435A      2.013086   436A      2.014713   437A      2.017103  
     438A      2.026978   439A      2.038382   440A      2.044581  
     441A      2.048895   442A      2.060845   443A      2.074453  
     444A      2.082113   445A      2.089353   446A      2.090779  
     447A      2.111543   448A      2.116471   449A      2.118469  
     450A      2.131868   451A      2.133183   452A      2.142361  
     453A      2.143142   454A      2.150693   455A      2.152945  
     456A      2.160209   457A      2.163172   458A      2.167400  
     459A      2.173988   460A      2.188169   461A      2.192645  
     462A      2.203280   463A      2.210935   464A      2.216057  
     465A      2.224811   466A      2.231137   467A      2.233600  
     468A      2.239469   469A      2.242044   470A      2.247891  
     471A      2.260908   472A      2.264526   473A      2.274903  
     474A      2.283784   475A      2.288272   476A      2.302689  
     477A      2.306295   478A      2.315166   479A      2.320736  
     480A      2.331646   481A      2.337982   482A      2.345295  
     483A      2.351582   484A      2.358191   485A      2.361943  
     486A      2.368997   487A      2.377491   488A      2.393341  
     489A      2.403223   490A      2.410909   491A      2.413027  
     492A      2.421561   493A      2.428128   494A      2.446911  
     495A      2.450523   496A      2.454754   497A      2.469405  
     498A      2.485522   499A      2.486696   500A      2.506147  
     501A      2.521702   502A      2.523596   503A      2.529275  
     504A      2.535203   505A      2.545615   506A      2.548980  
     507A      2.551450   508A      2.564659   509A      2.571565  
     510A      2.576817   511A      2.585689   512A      2.590927  
     513A      2.595096   514A      2.604567   515A      2.609054  
     516A      2.613613   517A      2.618929   518A      2.627368  
     519A      2.639440   520A      2.648804   521A      2.656353  
     522A      2.660743   523A      2.668331   524A      2.675585  
     525A      2.681677   526A      2.696240   527A      2.705965  
     528A      2.717915   529A      2.725274   530A      2.734016  
     531A      2.739647   532A      2.743479   533A      2.759463  
     534A      2.772661   535A      2.777161   536A      2.789070  
     537A      2.795487   538A      2.803411   539A      2.815823  
     540A      2.824114   541A      2.836447   542A      2.841663  
     543A      2.844918   544A      2.854355   545A      2.869066  
     546A      2.874185   547A      2.882376   548A      2.886925  
     549A      2.914519   550A      2.926078   551A      2.940355  
     552A      2.950524   553A      2.957391   554A      2.961897  
     555A      2.973313   556A      2.992959   557A      3.017033  
     558A      3.022134   559A      3.026958   560A      3.033768  
     561A      3.046193   562A      3.048717   563A      3.060893  
     564A      3.076460   565A      3.118856   566A      3.142282  
     567A      3.160873   568A      3.178885   569A      3.194648  
     570A      3.214906   571A      3.236219   572A      3.263829  
     573A      3.276176   574A      3.277956   575A      3.306362  
     576A      3.312144   577A      3.319784   578A      3.351436  
     579A      3.357321   580A      3.384847   581A      3.399883  
     582A      3.412832   583A      3.432535   584A      3.445753  
     585A      3.453549   586A      3.456951   587A      3.484942  
     588A      3.494251   589A      3.525372   590A      3.532283  
     591A      3.554407   592A      3.580951   593A      3.605601  
     594A      3.616769   595A      3.636576   596A      3.657351  
     597A      3.679458   598A      3.697520   599A      3.701416  
     600A      3.726023   601A      3.759547   602A      3.763344  
     603A      3.774820   604A      3.791023   605A      3.823876  
     606A      3.836875   607A      3.862491   608A      3.894905  
     609A      3.903325   610A      3.933403   611A      3.955321  
     612A      3.962152   613A      4.005741   614A      4.008579  
     615A      4.038659   616A      4.060140   617A      4.067665  
     618A      4.073160   619A      4.085537   620A      4.094571  
     621A      4.106480   622A      4.123694   623A      4.130763  
     624A      4.137028   625A      4.139653   626A      4.161001  
     627A      4.165418   628A      4.167907   629A      4.172458  
     630A      4.182798   631A      4.186041   632A      4.206274  
     633A      4.214173   634A      4.228410   635A      4.230272  
     636A      4.244898   637A      4.249217   638A      4.258110  
     639A      4.259996   640A      4.266901   641A      4.278492  
     642A      4.280730   643A      4.290735   644A      4.294965  
     645A      4.297552   646A      4.311546   647A      4.323661  
     648A      4.338640   649A      4.339890   650A      4.349189  
     651A      4.359006   652A      4.362375   653A      4.372364  
     654A      4.376765   655A      4.386019   656A      4.413192  
     657A      4.421126   658A      4.432706   659A      4.439870  
     660A      4.441236   661A      4.447571   662A      4.449707  
     663A      4.472393   664A      4.474832   665A      4.492076  
     666A      4.515188   667A      4.517047   668A      4.541682  
     669A      4.571176   670A      4.581289   671A      4.588553  
     672A      4.613956   673A      4.619525   674A      4.627797  
     675A      4.638834   676A      4.649094   677A      4.674073  
     678A      4.684411   679A      4.686181   680A      4.688481  
     681A      4.694539   682A      4.700265   683A      4.716159  
     684A      4.724829   685A      4.738441   686A      4.751950  
     687A      4.761477   688A      4.765200   689A      4.769850  
     690A      4.773165   691A      4.786261   692A      4.797952  
     693A      4.804491   694A      4.812095   695A      4.813884  
     696A      4.824297   697A      4.834676   698A      4.855861  
     699A      4.864155   700A      4.866420   701A      4.873766  
     702A      4.879330   703A      4.887357   704A      4.900613  
     705A      4.911019   706A      4.925137   707A      4.926766  
     708A      4.936878   709A      4.938134   710A      4.940420  
     711A      4.962155   712A      4.973837   713A      4.977217  
     714A      4.984273   715A      5.013004   716A      5.033354  
     717A      5.035161   718A      5.049162   719A      5.052966  
     720A      5.054768   721A      5.085055   722A      5.093469  
     723A      5.097104   724A      5.101932   725A      5.103260  
     726A      5.115663   727A      5.123874   728A      5.131301  
     729A      5.141186   730A      5.154313   731A      5.157589  
     732A      5.183466   733A      5.197603   734A      5.208640  
     735A      5.249026   736A      5.260999   737A      5.273792  
     738A      5.281102   739A      5.300147   740A      5.334087  
     741A      5.347353   742A      5.352933   743A      5.370097  
     744A      5.373632   745A      5.382470   746A      5.401229  
     747A      5.409270   748A      5.411587   749A      5.429430  
     750A      5.430288   751A      5.441806   752A      5.461603  
     753A      5.472832   754A      5.482677   755A      5.500911  
     756A      5.503706   757A      5.507618   758A      5.515730  
     759A      5.518542   760A      5.529335   761A      5.535157  
     762A      5.547962   763A      5.551537   764A      5.556252  
     765A      5.560489   766A      5.569819   767A      5.587423  
     768A      5.603126   769A      5.612382   770A      5.627663  
     771A      5.628925   772A      5.632384   773A      5.662847  
     774A      5.671075   775A      5.673963   776A      5.696846  
     777A      5.704094   778A      5.711873   779A      5.733967  
     780A      5.761564   781A      5.764941   782A      5.771526  
     783A      5.782262   784A      5.789671   785A      5.805650  
     786A      5.815395   787A      5.820850   788A      5.824914  
     789A      5.842610   790A      5.858487   791A      5.866925  
     792A      5.876967   793A      5.885554   794A      5.910737  
     795A      5.931878   796A      5.966320   797A      5.971093  
     798A      5.986210   799A      5.990512   800A      6.010297  
     801A      6.025743   802A      6.027439   803A      6.045876  
     804A      6.052559   805A      6.071159   806A      6.093786  
     807A      6.101293   808A      6.107764   809A      6.113358  
     810A      6.132512   811A      6.178856   812A      6.188042  
     813A      6.193862   814A      6.211599   815A      6.216163  
     816A      6.248625   817A      6.268030   818A      6.274216  
     819A      6.281311   820A      6.304848   821A      6.335755  
     822A      6.345699   823A      6.391139   824A      6.460914  
     825A      6.482372   826A      6.499014   827A      6.554652  
     828A      6.590404   829A      6.615842   830A      6.629768  
     831A      6.634132   832A      6.637145   833A      6.658358  
     834A      6.661081   835A      6.673467   836A      6.715184  
     837A      6.739146   838A      6.755174   839A      6.814899  
     840A      6.844034   841A      6.846957   842A      6.851713  
     843A      6.863481   844A      6.874276   845A      6.926335  
     846A      6.948318   847A      6.957297   848A      6.968342  
     849A      6.995408   850A      7.015716   851A      7.050760  
     852A      7.121385   853A      7.151919   854A      7.154945  
     855A      7.191418   856A      7.209563   857A      7.263676  
     858A      7.275309   859A      7.321747   860A      7.354550  
     861A      7.357346   862A      7.380364   863A      7.391319  
     864A      7.397321   865A      7.408794   866A      7.412617  
     867A      7.424769   868A      7.469823   869A      7.526802  
     870A      7.544364   871A      7.638669   872A      7.652755  
     873A      7.660757   874A      7.683623   875A      7.721187  
     876A      7.735808   877A      7.755628   878A      7.819173  
     879A      7.863129   880A      7.865898   881A      7.907309  
     882A      7.914352   883A      7.928823   884A      7.950730  
     885A      7.955891   886A      7.963339   887A      7.982618  
     888A      7.990980   889A      8.007712   890A      8.034943  
     891A      8.100040   892A      8.118660   893A      8.397720  
     894A      8.454855   895A      8.495521   896A      8.520020  
     897A      8.530881   898A      8.970116   899A      9.021420  
     900A      9.076806   901A      9.252053   902A      9.680374  
     903A     10.566733   904A     10.582705   905A     10.796304  
     906A     10.924456   907A     11.106639   908A     16.040602  
     909A     16.107953   910A     16.424488   911A     17.016558  
     912A     18.319069   913A     19.577660   914A     19.960001  
     915A     20.625857   916A     53.046654   917A     53.592151  
     918A     54.978876   919A     56.497795   920A     57.408052  

    Final Occupation by Irrep:
              A 
    DOCC [    29 ]

  @DF-RHF Final Energy:  -412.62465937387020

   => Energetics <=

    Nuclear Repulsion Energy =            357.0419569298157398
    One-Electron Energy =               -1270.4617662661005397
    Two-Electron Energy =                 500.7951499624145413
    Total Energy =                       -412.6246593738702018

Computation Completed


Properties will be evaluated at   0.000000,   0.000000,   0.000000 [a0]

Properties computed using the SCF density matrix

  Nuclear Dipole Moment: [e a0]
     X:    -8.1518      Y:     7.4730      Z:  -234.1747

  Electronic Dipole Moment: [e a0]
     X:     8.1728      Y:    -5.5502      Z:   233.7159

  Dipole Moment: [e a0]
     X:     0.0211      Y:     1.9228      Z:    -0.4588     Total:     1.9769

  Dipole Moment: [D]
     X:     0.0535      Y:     4.8872      Z:    -1.1661     Total:     5.0247


*** tstop() called on node51.bme.utexas.edu at Fri Apr 24 15:48:35 2020
Module time:
	user time   =     483.97 seconds =       8.07 minutes
	system time =       7.66 seconds =       0.13 minutes
	total time  =         66 seconds =       1.10 minutes
Total time:
	user time   =    1383.30 seconds =      23.05 minutes
	system time =      21.48 seconds =       0.36 minutes
	total time  =        277 seconds =       4.62 minutes

  //>>>>>>>>>>>>>>>>>>>>>>>>>>>>>>>>>>>//
  //            Monomer B HF           //
  //<<<<<<<<<<<<<<<<<<<<<<<<<<<<<<<<<<<//


*** tstart() called on node51.bme.utexas.edu
*** at Fri Apr 24 15:48:35 2020

   => Loading Basis Set <=

    Name: AUG-CC-PVTZ
    Role: ORBITAL
    Keyword: BASIS
    atoms 1, 9                                           entry N          line   285 file /home/liuchw/anaconda3/envs/psi4env/share/psi4/basis/aug-cc-pvtz.gbs 
    atoms 2, 6, 8, 10, 14-15, 17-18, 20-21, 23-24, 26-27 entry H          line    40 file /home/liuchw/anaconda3/envs/psi4env/share/psi4/basis/aug-cc-pvtz.gbs 
    atoms 3, 5, 7, 11, 13, 16, 19, 22, 25                entry C          line   239 file /home/liuchw/anaconda3/envs/psi4env/share/psi4/basis/aug-cc-pvtz.gbs 
    atoms 4, 12                                          entry O          line   331 file /home/liuchw/anaconda3/envs/psi4env/share/psi4/basis/aug-cc-pvtz.gbs 


         ---------------------------------------------------------
                                   SCF
               by Justin Turney, Rob Parrish, Andy Simmonett
                          and Daniel G. A. Smith
                              RHF Reference
                        8 Threads,  47683 MiB Core
         ---------------------------------------------------------

  ==> Geometry <==

    Molecular point group: c1
    Full point group: C1

    Geometry (in Angstrom), charge = 0, multiplicity = 1:

       Center              X                  Y                   Z               Mass       
    ------------   -----------------  -----------------  -----------------  -----------------
      Gh(N)           0.149004277982    -0.859509432908    -1.927311909533    14.003074004430
      Gh(H)           0.403674277982    -1.811569432908    -1.701391909533     1.007825032230
      Gh(C)          -1.225775722018    -0.588499432908    -1.991681909533    12.000000000000
      Gh(O)          -2.040375722018    -1.471079432908    -1.784261909533    15.994914619570
      Gh(C)          -1.523435722018     0.796340567092    -2.313601909533    12.000000000000
      Gh(H)          -2.553085722018     1.100830567092    -2.387261909533     1.007825032230
      Gh(C)          -0.514835722018     1.668140567092    -2.516271909533    12.000000000000
      Gh(H)          -0.685155722018     2.706820567092    -2.757321909533     1.007825032230
      Gh(N)           0.798904277982     1.291170567092    -2.424331909533    14.003074004430
      Gh(H)           1.542964277982     1.954060567092    -2.565201909533     1.007825032230
      Gh(C)           1.207534277982     0.004640567092    -2.114921909533    12.000000000000
      Gh(O)           2.375574277982    -0.316539432908    -2.019281909533    15.994914619570
         C            1.064934277982    -0.908259432908     3.430138090467    12.000000000000
         H            1.518784277982    -1.000319432908     2.442148090467     1.007825032230
         H            1.609434277982    -1.572239432908     4.099328090467     1.007825032230
         C            1.119244277982     0.557690567092     3.863068090467    12.000000000000
         H            2.077534277982     1.030590567092     3.652348090467     1.007825032230
         H            0.931124277982     0.639330567092     4.936288090467     1.007825032230
         C           -0.048105722018     1.170500567092     3.092298090467    12.000000000000
         H            0.226194277982     1.259290567092     2.038828090467     1.007825032230
         H           -0.332525722018     2.161650567092     3.443928090467     1.007825032230
         C           -1.165055722018     0.132930567092     3.263328090467    12.000000000000
         H           -1.890595722018     0.156550567092     2.451958090467     1.007825032230
         H           -1.709135722018     0.337630567092     4.185578090467     1.007825032230
         C           -0.442015722018    -1.233619432908     3.366988090467    12.000000000000
         H           -0.684685722018    -1.877769432908     2.523618090467     1.007825032230
         H           -0.757125722018    -1.761019432908     4.266068090467     1.007825032230

  Running in c1 symmetry.

  Rotational constants: A =      0.03368  B =      0.01102  C =      0.01017 [cm^-1]
  Rotational constants: A =   1009.74361  B =    330.30004  C =    304.81137 [MHz]
  Nuclear repulsion =  188.337188646869549

  Charge       = 0
  Multiplicity = 1
  Electrons    = 40
  Nalpha       = 20
  Nbeta        = 20

  ==> Algorithm <==

  SCF Algorithm Type is DF.
  DIIS enabled.
  MOM disabled.
  Fractional occupation disabled.
  Guess Type is SAD.
  Energy threshold   = 1.00e-08
  Density threshold  = 1.00e-08
  Integral threshold = 0.00e+00

  ==> Primary Basis <==

  Basis Set: AUG-CC-PVTZ
    Blend: AUG-CC-PVTZ
    Number of shells: 308
    Number of basis function: 920
    Number of Cartesian functions: 1065
    Spherical Harmonics?: true
    Max angular momentum: 3

   => Loading Basis Set <=

    Name: (AUG-CC-PVTZ AUX)
    Role: JKFIT
    Keyword: DF_BASIS_SCF
    atoms 1, 9                                           entry N          line   224 file /home/liuchw/anaconda3/envs/psi4env/share/psi4/basis/aug-cc-pvtz-jkfit.gbs 
    atoms 2, 6, 8, 10, 14-15, 17-18, 20-21, 23-24, 26-27 entry H          line    70 file /home/liuchw/anaconda3/envs/psi4env/share/psi4/basis/aug-cc-pvtz-jkfit.gbs 
    atoms 3, 5, 7, 11, 13, 16, 19, 22, 25                entry C          line   162 file /home/liuchw/anaconda3/envs/psi4env/share/psi4/basis/aug-cc-pvtz-jkfit.gbs 
    atoms 4, 12                                          entry O          line   286 file /home/liuchw/anaconda3/envs/psi4env/share/psi4/basis/aug-cc-pvtz-jkfit.gbs 

  ==> Pre-Iterations <==

   -------------------------------------------------------
    Irrep   Nso     Nmo     Nalpha   Nbeta   Ndocc  Nsocc
   -------------------------------------------------------
     A        920     920       0       0       0       0
   -------------------------------------------------------
    Total     920     920      20      20      20       0
   -------------------------------------------------------

  ==> Integral Setup <==

  ==> DiskDFJK: Density-Fitted J/K Matrices <==

    J tasked:                  Yes
    K tasked:                  Yes
    wK tasked:                  No
    OpenMP threads:              8
    Integrals threads:           8
    Memory [MiB]:            35762
    Algorithm:                Core
    Integral Cache:           LOAD
    Schwarz Cutoff:          1E-12
    Fitting Condition:       1E-10

   => Auxiliary Basis Set <=

  Basis Set: (AUG-CC-PVTZ AUX)
    Blend: AUG-CC-PVTZ-JKFIT
    Number of shells: 586
    Number of basis function: 1996
    Number of Cartesian functions: 2473
    Spherical Harmonics?: true
    Max angular momentum: 4

  Minimum eigenvalue in the overlap matrix is 2.3638427557E-06.
  Using Symmetric Orthogonalization.

  SCF Guess: Superposition of Atomic Densities via on-the-fly atomic UHF.

  ==> Iterations <==

                           Total Energy        Delta E     RMS |[F,P]|

   @DF-RHF iter SAD:  -195.14563330442459   -1.95146e+02   0.00000e+00 
   @DF-RHF iter   1:  -194.97508788505885    1.70545e-01   7.03922e-04 DIIS
   @DF-RHF iter   2:  -195.15710381344769   -1.82016e-01   4.06534e-04 DIIS
   @DF-RHF iter   3:  -195.22685301986348   -6.97492e-02   6.11333e-05 DIIS
   @DF-RHF iter   4:  -195.23001880971472   -3.16579e-03   9.64371e-06 DIIS
   @DF-RHF iter   5:  -195.23012204098509   -1.03231e-04   2.10524e-06 DIIS
   @DF-RHF iter   6:  -195.23012697117585   -4.93019e-06   2.64856e-07 DIIS
   @DF-RHF iter   7:  -195.23012704573111   -7.45553e-08   4.64778e-08 DIIS
   @DF-RHF iter   8:  -195.23012704713463   -1.40352e-09   1.63832e-08 DIIS
   @DF-RHF iter   9:  -195.23012704728990   -1.55268e-10   2.39178e-09 DIIS
  Energy and wave function converged.


  ==> Post-Iterations <==

    Orbital Energies [Eh]
    ---------------------

    Doubly Occupied:                                                      

       1A    -11.210505     2A    -11.210105     3A    -11.210100  
       4A    -11.209486     5A    -11.209353     6A     -1.116059  
       7A     -0.956544     8A     -0.955963     9A     -0.776682  
      10A     -0.767343    11A     -0.649862    12A     -0.644578  
      13A     -0.569560    14A     -0.567611    15A     -0.475237  
      16A     -0.474458    17A     -0.463581    18A     -0.459995  
      19A     -0.459453    20A     -0.448562  

    Virtual:                                                              

      21A      0.018338    22A      0.031608    23A      0.031698  
      24A      0.033672    25A      0.043597    26A      0.044009  
      27A      0.049536    28A      0.050995    29A      0.053217  
      30A      0.062684    31A      0.064194    32A      0.065055  
      33A      0.070621    34A      0.072115    35A      0.076889  
      36A      0.085118    37A      0.093696    38A      0.098807  
      39A      0.103122    40A      0.104390    41A      0.105375  
      42A      0.114322    43A      0.116549    44A      0.121020  
      45A      0.122507    46A      0.127386    47A      0.129221  
      48A      0.131500    49A      0.134256    50A      0.135212  
      51A      0.140028    52A      0.143803    53A      0.145763  
      54A      0.150068    55A      0.152170    56A      0.156072  
      57A      0.159185    58A      0.162444    59A      0.166678  
      60A      0.168656    61A      0.171427    62A      0.172453  
      63A      0.177530    64A      0.179558    65A      0.181206  
      66A      0.185784    67A      0.193078    68A      0.196457  
      69A      0.198465    70A      0.205703    71A      0.209193  
      72A      0.219802    73A      0.224783    74A      0.227889  
      75A      0.233794    76A      0.240649    77A      0.244518  
      78A      0.249547    79A      0.252778    80A      0.255792  
      81A      0.258100    82A      0.263058    83A      0.267659  
      84A      0.277616    85A      0.280072    86A      0.284386  
      87A      0.288975    88A      0.294190    89A      0.299775  
      90A      0.303363    91A      0.306632    92A      0.308535  
      93A      0.311499    94A      0.312216    95A      0.318017  
      96A      0.320068    97A      0.322017    98A      0.328344  
      99A      0.333840   100A      0.335314   101A      0.340874  
     102A      0.343985   103A      0.348178   104A      0.350479  
     105A      0.354340   106A      0.359085   107A      0.360844  
     108A      0.365160   109A      0.368072   110A      0.369273  
     111A      0.377682   112A      0.380377   113A      0.384998  
     114A      0.391592   115A      0.393092   116A      0.396207  
     117A      0.400318   118A      0.403082   119A      0.405109  
     120A      0.406737   121A      0.411564   122A      0.413875  
     123A      0.417317   124A      0.420967   125A      0.424790  
     126A      0.429004   127A      0.432335   128A      0.433414  
     129A      0.437370   130A      0.439647   131A      0.445529  
     132A      0.449155   133A      0.453611   134A      0.456009  
     135A      0.456905   136A      0.469935   137A      0.473283  
     138A      0.476013   139A      0.476567   140A      0.480706  
     141A      0.485876   142A      0.490331   143A      0.492916  
     144A      0.501277   145A      0.502697   146A      0.504946  
     147A      0.506567   148A      0.513595   149A      0.514905  
     150A      0.519087   151A      0.521644   152A      0.526587  
     153A      0.529517   154A      0.533524   155A      0.538906  
     156A      0.543225   157A      0.549671   158A      0.553653  
     159A      0.555705   160A      0.557700   161A      0.564843  
     162A      0.569209   163A      0.570655   164A      0.574372  
     165A      0.580629   166A      0.580824   167A      0.585517  
     168A      0.589381   169A      0.590678   170A      0.592454  
     171A      0.597272   172A      0.604190   173A      0.606214  
     174A      0.610318   175A      0.613439   176A      0.618385  
     177A      0.624473   178A      0.628176   179A      0.637663  
     180A      0.639510   181A      0.642224   182A      0.646752  
     183A      0.652028   184A      0.654564   185A      0.657326  
     186A      0.660637   187A      0.664137   188A      0.669889  
     189A      0.671662   190A      0.679787   191A      0.683545  
     192A      0.687835   193A      0.693418   194A      0.701986  
     195A      0.709175   196A      0.711603   197A      0.715132  
     198A      0.723097   199A      0.731880   200A      0.734844  
     201A      0.739997   202A      0.746625   203A      0.756664  
     204A      0.762774   205A      0.772842   206A      0.778870  
     207A      0.781597   208A      0.790892   209A      0.799447  
     210A      0.804196   211A      0.814447   212A      0.818947  
     213A      0.832864   214A      0.836801   215A      0.842673  
     216A      0.848531   217A      0.852191   218A      0.853960  
     219A      0.856491   220A      0.864144   221A      0.868591  
     222A      0.871997   223A      0.875416   224A      0.886329  
     225A      0.890073   226A      0.890639   227A      0.893699  
     228A      0.898818   229A      0.899673   230A      0.911881  
     231A      0.916648   232A      0.919806   233A      0.923247  
     234A      0.928328   235A      0.931603   236A      0.936535  
     237A      0.942636   238A      0.947357   239A      0.951373  
     240A      0.954450   241A      0.957003   242A      0.962907  
     243A      0.966374   244A      0.969364   245A      0.973781  
     246A      0.976063   247A      0.978993   248A      0.982074  
     249A      0.987462   250A      0.992558   251A      0.999517  
     252A      1.005147   253A      1.012369   254A      1.016623  
     255A      1.018201   256A      1.025824   257A      1.027951  
     258A      1.032730   259A      1.037862   260A      1.039996  
     261A      1.044393   262A      1.045531   263A      1.054764  
     264A      1.057693   265A      1.061185   266A      1.066296  
     267A      1.068623   268A      1.080462   269A      1.082617  
     270A      1.085673   271A      1.088415   272A      1.098038  
     273A      1.102937   274A      1.105190   275A      1.108405  
     276A      1.112977   277A      1.114713   278A      1.117579  
     279A      1.126161   280A      1.129948   281A      1.136656  
     282A      1.148056   283A      1.151378   284A      1.155884  
     285A      1.157510   286A      1.166039   287A      1.166819  
     288A      1.169677   289A      1.177718   290A      1.181775  
     291A      1.189801   292A      1.192078   293A      1.194713  
     294A      1.199112   295A      1.204935   296A      1.210659  
     297A      1.213588   298A      1.215046   299A      1.217593  
     300A      1.225541   301A      1.229650   302A      1.237298  
     303A      1.238908   304A      1.242735   305A      1.249682  
     306A      1.250341   307A      1.257524   308A      1.263145  
     309A      1.269789   310A      1.276937   311A      1.281996  
     312A      1.286442   313A      1.290632   314A      1.294857  
     315A      1.299791   316A      1.303599   317A      1.310709  
     318A      1.318796   319A      1.322358   320A      1.329370  
     321A      1.337174   322A      1.339477   323A      1.342721  
     324A      1.350369   325A      1.351628   326A      1.361484  
     327A      1.369631   328A      1.375476   329A      1.380873  
     330A      1.382630   331A      1.394615   332A      1.396113  
     333A      1.403626   334A      1.407356   335A      1.412908  
     336A      1.417089   337A      1.424649   338A      1.429528  
[...]
     468A      2.303515   469A      2.309476   470A      2.314909  
     471A      2.316954   472A      2.326393   473A      2.328123  
     474A      2.331348   475A      2.346893   476A      2.354366  
     477A      2.358836   478A      2.368873   479A      2.375928  
     480A      2.396305   481A      2.410404   482A      2.418391  
     483A      2.424113   484A      2.429172   485A      2.439173  
     486A      2.449507   487A      2.457713   488A      2.462587  
     489A      2.474445   490A      2.498807   491A      2.501096  
     492A      2.506291   493A      2.527098   494A      2.536670  
     495A      2.539272   496A      2.540590   497A      2.543680  
     498A      2.559231   499A      2.576982   500A      2.582685  
     501A      2.585604   502A      2.594865   503A      2.598949  
     504A      2.616551   505A      2.630892   506A      2.637119  
     507A      2.643422   508A      2.652839   509A      2.669158  
     510A      2.676747   511A      2.684667   512A      2.693039  
     513A      2.697617   514A      2.701539   515A      2.725252  
     516A      2.727272   517A      2.745772   518A      2.749209  
     519A      2.761472   520A      2.765660   521A      2.775586  
     522A      2.776764   523A      2.800955   524A      2.804941  
     525A      2.815169   526A      2.824515   527A      2.829727  
     528A      2.859097   529A      2.865793   530A      2.870864  
     531A      2.891613   532A      2.903951   533A      2.935799  
     534A      2.951568   535A      2.969516   536A      2.979597  
     537A      2.996437   538A      3.025601   539A      3.032578  
     540A      3.054654   541A      3.076526   542A      3.083324  
     543A      3.083964   544A      3.095759   545A      3.138545  
     546A      3.153440   547A      3.173076   548A      3.198743  
     549A      3.214279   550A      3.219559   551A      3.240429  
     552A      3.264164   553A      3.271145   554A      3.279311  
     555A      3.324107   556A      3.331677   557A      3.356165  
     558A      3.374956   559A      3.378281   560A      3.388059  
     561A      3.397627   562A      3.416050   563A      3.422953  
     564A      3.463841   565A      3.485255   566A      3.501254  
     567A      3.512767   568A      3.528625   569A      3.546075  
     570A      3.560002   571A      3.570944   572A      3.575379  
     573A      3.588401   574A      3.595874   575A      3.603370  
     576A      3.609885   577A      3.632441   578A      3.635283  
     579A      3.646260   580A      3.662960   581A      3.669339  
     582A      3.684555   583A      3.700749   584A      3.706895  
     585A      3.713730   586A      3.730964   587A      3.733856  
     588A      3.752140   589A      3.759564   590A      3.770144  
     591A      3.775884   592A      3.781555   593A      3.786858  
     594A      3.794687   595A      3.819017   596A      3.824895  
     597A      3.831689   598A      3.849938   599A      3.852465  
     600A      3.876854   601A      3.905757   602A      3.912369  
     603A      3.926230   604A      3.936958   605A      3.939123  
     606A      3.946340   607A      3.973528   608A      3.980064  
     609A      3.985759   610A      3.995976   611A      4.002341  
     612A      4.004872   613A      4.018316   614A      4.023204  
     615A      4.033345   616A      4.037504   617A      4.045104  
     618A      4.050860   619A      4.056495   620A      4.067573  
     621A      4.070051   622A      4.075403   623A      4.088589  
     624A      4.092883   625A      4.103463   626A      4.107323  
     627A      4.114456   628A      4.131318   629A      4.136932  
     630A      4.143226   631A      4.150571   632A      4.182970  
     633A      4.191737   634A      4.197900   635A      4.206299  
     636A      4.220915   637A      4.228190   638A      4.230072  
     639A      4.245227   640A      4.250191   641A      4.258594  
     642A      4.268829   643A      4.278402   644A      4.314325  
     645A      4.332679   646A      4.334593   647A      4.341741  
     648A      4.345855   649A      4.354298   650A      4.373739  
     651A      4.384128   652A      4.396850   653A      4.399245  
     654A      4.405900   655A      4.408393   656A      4.420288  
     657A      4.427317   658A      4.452492   659A      4.457561  
     660A      4.481044   661A      4.488109   662A      4.499104  
     663A      4.500010   664A      4.506010   665A      4.508193  
     666A      4.524284   667A      4.557037   668A      4.568467  
     669A      4.582434   670A      4.589841   671A      4.613073  
     672A      4.621401   673A      4.634135   674A      4.641135  
     675A      4.652045   676A      4.656206   677A      4.664722  
     678A      4.693970   679A      4.698871   680A      4.708630  
     681A      4.721827   682A      4.723655   683A      4.746028  
     684A      4.750781   685A      4.765341   686A      4.769666  
     687A      4.781884   688A      4.810076   689A      4.822929  
     690A      4.830591   691A      4.840526   692A      4.848634  
     693A      4.856486   694A      4.860064   695A      4.893657  
     696A      4.902215   697A      4.907711   698A      4.914772  
     699A      4.931434   700A      4.942660   701A      4.951334  
     702A      4.960331   703A      4.962312   704A      4.984858  
     705A      4.988266   706A      4.995443   707A      4.999538  
     708A      5.000015   709A      5.003387   710A      5.011059  
     711A      5.012581   712A      5.030585   713A      5.034439  
     714A      5.035370   715A      5.047891   716A      5.051514  
     717A      5.067356   718A      5.075471   719A      5.088816  
     720A      5.097929   721A      5.110711   722A      5.118569  
     723A      5.128312   724A      5.138301   725A      5.143397  
     726A      5.153617   727A      5.156594   728A      5.179404  
     729A      5.189943   730A      5.206875   731A      5.218522  
     732A      5.240962   733A      5.251668   734A      5.260345  
     735A      5.264526   736A      5.279886   737A      5.292006  
     738A      5.298231   739A      5.304730   740A      5.312521  
     741A      5.317377   742A      5.342987   743A      5.358824  
     744A      5.387403   745A      5.390804   746A      5.422922  
     747A      5.432870   748A      5.458384   749A      5.463650  
     750A      5.480723   751A      5.490408   752A      5.499208  
     753A      5.502909   754A      5.506841   755A      5.509157  
     756A      5.516106   757A      5.531884   758A      5.539648  
     759A      5.541820   760A      5.551321   761A      5.570151  
     762A      5.578107   763A      5.593566   764A      5.596572  
     765A      5.609101   766A      5.636836   767A      5.679012  
     768A      5.683473   769A      5.699892   770A      5.712820  
     771A      5.724954   772A      5.735148   773A      5.767118  
     774A      5.788324   775A      5.801651   776A      5.807311  
     777A      5.823386   778A      5.844750   779A      5.845887  
     780A      5.867869   781A      5.873327   782A      5.878069  
     783A      5.907212   784A      5.910858   785A      5.923303  
     786A      5.931850   787A      5.950030   788A      5.958436  
     789A      5.984853   790A      6.013471   791A      6.050875  
     792A      6.059216   793A      6.064614   794A      6.097828  
     795A      6.106024   796A      6.127502   797A      6.139568  
     798A      6.169870   799A      6.216007   800A      6.239503  
     801A      6.242262   802A      6.247670   803A      6.289611  
     804A      6.330799   805A      6.351891   806A      6.369566  
     807A      6.409637   808A      6.428031   809A      6.433192  
     810A      6.445159   811A      6.456252   812A      6.469647  
     813A      6.516312   814A      6.534066   815A      6.544972  
     816A      6.590322   817A      6.603783   818A      6.621678  
     819A      6.651763   820A      6.678900   821A      6.705930  
     822A      6.716003   823A      6.760179   824A      6.776416  
     825A      6.803775   826A      6.844123   827A      6.886590  
     828A      6.901620   829A      6.915922   830A      6.936130  
     831A      6.954460   832A      6.962067   833A      6.979778  
     834A      7.055073   835A      7.065471   836A      7.121990  
     837A      7.132740   838A      7.275904   839A      7.358541  
     840A      7.371971   841A      7.440560   842A      7.531524  
     843A      7.557500   844A      7.570862   845A      7.594080  
     846A      7.604920   847A      7.629113   848A      7.647887  
     849A      7.660956   850A      7.671361   851A      7.719987  
     852A      7.760459   853A      7.822576   854A      7.841637  
     855A      7.868426   856A      7.894819   857A      7.914043  
     858A      7.970749   859A      7.989959   860A      8.015139  
     861A      8.027609   862A      8.141960   863A      8.193883  
     864A      8.258060   865A      8.271730   866A      8.333989  
     867A      8.428203   868A      8.572226   869A      8.660044  
     870A      8.717192   871A      8.741102   872A      8.897253  
     873A      9.044857   874A      9.101031   875A      9.235945  
     876A      9.302467   877A      9.456891   878A      9.515752  
     879A      9.535644   880A      9.779187   881A      9.874019  
     882A      9.968081   883A      9.980172   884A     10.043760  
     885A     10.160324   886A     10.203333   887A     10.251487  
     888A     10.399536   889A     10.449426   890A     10.534268  
     891A     10.553773   892A     11.004761   893A     11.241922  
     894A     11.314714   895A     11.459179   896A     12.024339  
     897A     12.044409   898A     12.051342   899A     12.055714  
     900A     12.295416   901A     12.490288   902A     12.705094  
     903A     12.906313   904A     13.367120   905A     13.564467  
     906A     14.201666   907A     14.232635   908A     17.926705  
     909A     18.119222   910A     18.866389   911A     19.589672  
     912A     20.095797   913A     51.792502   914A     51.975585  
     915A     54.255386   916A     55.351569   917A     60.321368  
     918A     60.909471   919A     69.257930   920A     69.737992  

    Final Occupation by Irrep:
              A 
    DOCC [    20 ]

  @DF-RHF Final Energy:  -195.23012704728990

   => Energetics <=

    Nuclear Repulsion Energy =            188.3371886468695493
    One-Electron Energy =                -635.4645588620994658
    Two-Electron Energy =                 251.8972431679400188
    Total Energy =                       -195.2301270472898977

Computation Completed


Properties will be evaluated at   0.000000,   0.000000,   0.000000 [a0]

Properties computed using the SCF density matrix

  Nuclear Dipole Moment: [e a0]
     X:     7.8670      Y:    -4.3669      Z:   257.2579

  Electronic Dipole Moment: [e a0]
     X:    -7.8626      Y:     4.3710      Z:  -257.2565

  Dipole Moment: [e a0]
     X:     0.0044      Y:     0.0042      Z:     0.0014     Total:     0.0062

  Dipole Moment: [D]
     X:     0.0111      Y:     0.0106      Z:     0.0036     Total:     0.0157


*** tstop() called on node51.bme.utexas.edu at Fri Apr 24 15:49:24 2020
Module time:
	user time   =     343.21 seconds =       5.72 minutes
	system time =       5.78 seconds =       0.10 minutes
	total time  =         49 seconds =       0.82 minutes
Total time:
	user time   =    1726.57 seconds =      28.78 minutes
	system time =      27.27 seconds =       0.45 minutes
	total time  =        326 seconds =       5.43 minutes
  Constructing Basis Sets for SAPT...

   => Loading Basis Set <=

    Name: (AUG-CC-PVTZ AUX)
    Role: RIFIT
    Keyword: DF_BASIS_SAPT
    atoms 1, 9                                           entry N          line   206 file /home/liuchw/anaconda3/envs/psi4env/share/psi4/basis/aug-cc-pvtz-ri.gbs 
    atoms 2, 6, 8, 10, 14-15, 17-18, 20-21, 23-24, 26-27 entry H          line    30 file /home/liuchw/anaconda3/envs/psi4env/share/psi4/basis/aug-cc-pvtz-ri.gbs 
    atoms 3, 5, 7, 11, 13, 16, 19, 22, 25                entry C          line   148 file /home/liuchw/anaconda3/envs/psi4env/share/psi4/basis/aug-cc-pvtz-ri.gbs 
    atoms 4, 12                                          entry O          line   264 file /home/liuchw/anaconda3/envs/psi4env/share/psi4/basis/aug-cc-pvtz-ri.gbs 


  //>>>>>>>>>>>>>>>>>>>>>>>>>>>>>>>>>>>//
  //               SAPT2+              //
  //<<<<<<<<<<<<<<<<<<<<<<<<<<<<<<<<<<<//


*** tstart() called on node51.bme.utexas.edu
*** at Fri Apr 24 15:49:24 2020

        SAPT2+  
    Ed Hohenstein
     6 June 2009

      Orbital Information
  --------------------------
    NSO        =       920
    NMO        =       920
    NRI        =      2022
    NOCC A     =        29
    NOCC B     =        20
    FOCC A     =         8
    FOCC B     =         5
    NVIR A     =       891
    NVIR B     =       900

    Estimated memory usage: 29451.6 MB

    Natural Orbital Cutoff:   1.000E-06
    Disp(T3) Truncation:            Yes
    CCD (vv|vv) Truncation:         Yes
    MBPT T2 Truncation:             Yes

    Monomer A: 501 virtual orbitals dropped
    Monomer B: 526 virtual orbitals dropped

    Elst10,r            =    -0.000031689339 [Eh]
    Exch10 (S^2)        =     0.000021550704 [Eh]
    Exch10              =     0.000021550783 [Eh]
    Ind20,r (A<-B)      =    -0.000001442396 [Eh]
    Ind20,r (B<-A)      =    -0.000040763864 [Eh]
    Ind20,r             =    -0.000042206260 [Eh]
    Exch-Ind20,r (A<-B) =     0.000000675069 [Eh]
    Exch-Ind20,r (B<-A) =     0.000003326672 [Eh]
    Exch-Ind20,r        =     0.000004001741 [Eh]
    Disp20              =    -0.001238109946 [Eh]
    Disp20 (NO)         =    -0.001198823838 [Eh]
    Exch-Disp20         =     0.000005513895 [Eh]
    Elst12,r            =    -0.000011606599 [Eh]
    Exch11              =    -0.000000353183 [Eh]
    Exch12              =     0.000005229141 [Eh]
    Ind22               =     0.000012310352 [Eh]
    Disp21              =     0.000293630414 [Eh]
    Disp22 (SDQ)        =    -0.000005714975 [Eh]

    (i =   1 of  15)       1006 seconds
    (i =   2 of  15)       2012 seconds
    (i =   3 of  15)       3018 seconds
    (i =   4 of  15)       4025 seconds
    (i =   5 of  15)       5032 seconds
    (i =   6 of  15)       6040 seconds
    (i =   7 of  15)       7046 seconds
    (i =   8 of  15)       8051 seconds
    (i =   9 of  15)       9056 seconds
    (i =  10 of  15)      10060 seconds
    (i =  11 of  15)      11065 seconds
    (i =  12 of  15)      12071 seconds
    (i =  13 of  15)      13076 seconds
    (i =  14 of  15)      14080 seconds
    (i =  15 of  15)      15085 seconds

    Disp220 (T)         =    -0.000148464959 [Eh]

    (i =   1 of  21)        535 seconds
    (i =   2 of  21)       1081 seconds
    (i =   3 of  21)       1624 seconds
    (i =   4 of  21)       2163 seconds
    (i =   5 of  21)       2709 seconds
    (i =   6 of  21)       3251 seconds
    (i =   7 of  21)       3787 seconds
    (i =   8 of  21)       4334 seconds
    (i =   9 of  21)       4877 seconds
    (i =  10 of  21)       5413 seconds
    (i =  11 of  21)       5949 seconds
    (i =  12 of  21)       6488 seconds
    (i =  13 of  21)       7025 seconds
    (i =  14 of  21)       7557 seconds
    (i =  15 of  21)       8100 seconds
    (i =  16 of  21)       8639 seconds
    (i =  17 of  21)       9179 seconds
    (i =  18 of  21)       9712 seconds
    (i =  19 of  21)      10239 seconds
    (i =  20 of  21)      10777 seconds
    (i =  21 of  21)      11318 seconds

    Disp202 (T)         =    -0.000102044381 [Eh]

    Disp22 (T)          =    -0.000250509340 [Eh]

    Est. Disp220 (T)    =    -0.000153330236 [Eh]
    Est. Disp202 (T)    =    -0.000105388431 [Eh]

    Est. Disp22 (T)     =    -0.000258718667 [Eh]

    SAPT Results 
  --------------------------------------------------------------------------------------------------------
    Electrostatics                 -0.04329594 [mEh]      -0.02716861 [kcal/mol]      -0.11367347 [kJ/mol]
      Elst10,r                     -0.03168934 [mEh]      -0.01988536 [kcal/mol]      -0.08320035 [kJ/mol]
      Elst12,r                     -0.01160660 [mEh]      -0.00728325 [kcal/mol]      -0.03047312 [kJ/mol]

    Exchange                        0.02642674 [mEh]       0.01658303 [kcal/mol]       0.06938340 [kJ/mol]
      Exch10                        0.02155078 [mEh]       0.01352332 [kcal/mol]       0.05658157 [kJ/mol]
      Exch10(S^2)                   0.02155070 [mEh]       0.01352327 [kcal/mol]       0.05658137 [kJ/mol]
      Exch11(S^2)                  -0.00035318 [mEh]      -0.00022163 [kcal/mol]      -0.00092728 [kJ/mol]
      Exch12(S^2)                   0.00522914 [mEh]       0.00328134 [kcal/mol]       0.01372911 [kJ/mol]

    Induction                      -0.02840788 [mEh]      -0.01782621 [kcal/mol]      -0.07458487 [kJ/mol]
      Ind20,r                      -0.04220626 [mEh]      -0.02648483 [kcal/mol]      -0.11081252 [kJ/mol]
      Ind22                         0.01231035 [mEh]       0.00772486 [kcal/mol]       0.03232082 [kJ/mol]
      Exch-Ind20,r                  0.00400174 [mEh]       0.00251113 [kcal/mol]       0.01050657 [kJ/mol]
      Exch-Ind22                   -0.00116719 [mEh]      -0.00073242 [kcal/mol]      -0.00306446 [kJ/mol]
      delta HF,r (2)               -0.00134652 [mEh]      -0.00084495 [kcal/mol]      -0.00353528 [kJ/mol]

    Dispersion                     -1.20339928 [mEh]      -0.75514445 [kcal/mol]      -3.15952437 [kJ/mol]
      Disp20                       -1.23810995 [mEh]      -0.77692572 [kcal/mol]      -3.25065722 [kJ/mol]
      Disp21                        0.29363041 [mEh]       0.18425587 [kcal/mol]       0.77092655 [kJ/mol]
      Disp22 (SDQ)                 -0.00571497 [mEh]      -0.00358620 [kcal/mol]      -0.01500466 [kJ/mol]
      Disp22 (T)                   -0.25050934 [mEh]      -0.15719698 [kcal/mol]      -0.65771218 [kJ/mol]
      Est. Disp22 (T)              -0.25871867 [mEh]      -0.16234841 [kcal/mol]      -0.67926577 [kJ/mol]
      Exch-Disp20                   0.00551389 [mEh]       0.00346002 [kcal/mol]       0.01447673 [kJ/mol]

  Total HF                         -0.04968959 [mEh]      -0.03118069 [kcal/mol]      -0.13046000 [kJ/mol]
  Total SAPT0                      -1.28228564 [mEh]      -0.80464639 [kcal/mol]      -3.36664049 [kJ/mol]
  Total SAPT2                      -1.27787312 [mEh]      -0.80187749 [kcal/mol]      -3.35505542 [kJ/mol]
  Total SAPT2+                     -1.24867635 [mEh]      -0.78355624 [kcal/mol]      -3.27839931 [kJ/mol]

  Special recipe for scaled SAPT0 (see Manual):
    Electrostatics sSAPT0          -0.03168934 [mEh]      -0.01988536 [kcal/mol]      -0.08320035 [kJ/mol]
    Exchange sSAPT0                 0.02155078 [mEh]       0.01352332 [kcal/mol]       0.05658157 [kJ/mol]
    Induction sSAPT0               -0.03955099 [mEh]      -0.02481862 [kcal/mol]      -0.10384111 [kJ/mol]
    Dispersion sSAPT0              -1.23259599 [mEh]      -0.77346566 [kcal/mol]      -3.23618033 [kJ/mol]
  Total sSAPT0                     -1.28228554 [mEh]      -0.80464632 [kcal/mol]      -3.36664021 [kJ/mol]
  --------------------------------------------------------------------------------------------------------

*** tstop() called on node51.bme.utexas.edu at Sat Apr 25 01:05:18 2020
Module time:
	user time   =  220145.03 seconds =    3669.08 minutes
	system time =    2886.97 seconds =      48.12 minutes
	total time  =      33354 seconds =     555.90 minutes
Total time:
	user time   =  221872.62 seconds =    3697.88 minutes
	system time =    2914.30 seconds =      48.57 minutes
	total time  =      33680 seconds =     561.33 minutes

    Psi4 stopped on: Saturday, 25 April 2020 01:05AM
    Psi4 wall time for execution: 9:21:21.14

*** Psi4 exiting successfully. Buy a developer a beer!
