
    -----------------------------------------------------------------------
          Psi4: An Open-Source Ab Initio Electronic Structure Package
                               Psi4 1.4a2.dev224 

                         Git: Rev {master} e453b16 


    R. M. Parrish, L. A. Burns, D. G. A. Smith, A. C. Simmonett,
    A. E. DePrince III, E. G. Hohenstein, U. Bozkaya, A. Yu. Sokolov,
    R. Di Remigio, R. M. Richard, J. F. Gonthier, A. M. James,
    H. R. McAlexander, A. Kumar, M. Saitow, X. Wang, B. P. Pritchard,
    P. Verma, H. F. Schaefer III, K. Patkowski, R. A. King, E. F. Valeev,
    F. A. Evangelista, J. M. Turney, T. D. Crawford, and C. D. Sherrill,
    J. Chem. Theory Comput. 13(7) pp 3185--3197 (2017).
    (doi: 10.1021/acs.jctc.7b00174)


                         Additional Contributions by
    P. Kraus, H. Kruse, M. H. Lechner, M. C. Schieber, R. A. Shaw,
    A. Alenaizan, R. Galvelis, Z. L. Glick, S. Lehtola, and J. P. Misiewicz

    -----------------------------------------------------------------------


    Psi4 started on: Friday, 24 April 2020 09:29AM

    Process ID: 24003
    Host:       node36.bme.utexas.edu
    PSIDATADIR: /home/liuchw/anaconda3/envs/psi4env/share/psi4
    Memory:     500.0 MiB
    Threads:    8
    
  ==> Input File <==

--------------------------------------------------------------------------
#Generated by lconvert.py for sapt job

memory 50 GB

molecule  {
0 1
  C       0.666400    0.183810    0.419740
  H       1.228880   -0.329880    1.186260
  H       1.228040    0.697210   -0.347610
  C      -0.665970    0.182970    0.419610
  H      -1.227920   -0.331500    1.186100
  H      -1.228180    0.695650   -0.347750
--
0 1
  C      -2.533000   -0.603590    7.374570
  H      -2.562500   -1.216610    6.473380
  H      -2.569140   -1.277810    8.230180
  H      -3.434170    0.007430    7.391810
  C      -1.271570    0.249090    7.410380
  H      -1.271970    0.869180    8.309780
  H      -1.263180    0.936000    6.561320
  C      -0.000290   -0.588470    7.383440
  H      -0.000450   -1.275140    8.235270
  H      -0.000150   -1.216050    6.486800
  C       1.270930    0.249120    7.410850
  H       1.271200    0.868930    8.310330
  H       1.262730    0.936190    6.561940
  C       2.532380   -0.603610    7.375020
  H       2.562000   -1.216460    6.473710
  H       3.433560    0.007330    7.392600
  H       2.568300   -1.278060    8.230530
units angstrom
no_reorient
symmetry c1
}

set {
scf_type DF
basis aug-cc-pvtz
freeze_core True
guess SAD
}
energy('sapt2+')
--------------------------------------------------------------------------

  Memory set to  46.566 GiB by Python driver.

Scratch directory: /scratch/liuchw/

  //>>>>>>>>>>>>>>>>>>>>>>>>>>>>>>>>>>>//
  //              Dimer HF             //
  //<<<<<<<<<<<<<<<<<<<<<<<<<<<<<<<<<<<//


*** tstart() called on node36.bme.utexas.edu
*** at Fri Apr 24 09:29:30 2020

   => Loading Basis Set <=

    Name: AUG-CC-PVTZ
    Role: ORBITAL
    Keyword: BASIS
    atoms 1, 4, 7, 11, 14, 17, 20                    entry C          line   239 file /home/liuchw/anaconda3/envs/psi4env/share/psi4/basis/aug-cc-pvtz.gbs 
    atoms 2-3, 5-6, 8-10, 12-13, 15-16, 18-19, 21-23 entry H          line    40 file /home/liuchw/anaconda3/envs/psi4env/share/psi4/basis/aug-cc-pvtz.gbs 


         ---------------------------------------------------------
                                   SCF
               by Justin Turney, Rob Parrish, Andy Simmonett
                          and Daniel G. A. Smith
                              RHF Reference
                        8 Threads,  47683 MiB Core
         ---------------------------------------------------------

  ==> Geometry <==

    Molecular point group: c1
    Full point group: C1

    Geometry (in Angstrom), charge = 0, multiplicity = 1:

       Center              X                  Y                   Z               Mass       
    ------------   -----------------  -----------------  -----------------  -----------------
         C            0.666563925603     0.326792906588    -5.019098961051    12.000000000000
         H            1.229043925603    -0.186897093412    -4.252578961051     1.007825032230
         H            1.228203925603     0.840192906588    -5.786448961051     1.007825032230
         C           -0.665806074397     0.325952906588    -5.019228961051    12.000000000000
         H           -1.227756074397    -0.188517093412    -4.252738961051     1.007825032230
         H           -1.228016074397     0.838632906588    -5.786588961051     1.007825032230
         C           -2.532836074397    -0.460607093412     1.935731038949    12.000000000000
         H           -2.562336074397    -1.073627093412     1.034541038949     1.007825032230
         H           -2.568976074397    -1.134827093412     2.791341038949     1.007825032230
         H           -3.434006074397     0.150412906588     1.952971038949     1.007825032230
         C           -1.271406074397     0.392072906588     1.971541038949    12.000000000000
         H           -1.271806074397     1.012162906588     2.870941038949     1.007825032230
         H           -1.263016074397     1.078982906588     1.122481038949     1.007825032230
         C           -0.000126074397    -0.445487093412     1.944601038949    12.000000000000
         H           -0.000286074397    -1.132157093412     2.796431038949     1.007825032230
         H            0.000013925603    -1.073067093412     1.047961038949     1.007825032230
         C            1.271093925603     0.392102906588     1.972011038949    12.000000000000
         H            1.271363925603     1.011912906588     2.871491038949     1.007825032230
         H            1.262893925603     1.079172906588     1.123101038949     1.007825032230
         C            2.532543925603    -0.460627093412     1.936181038949    12.000000000000
         H            2.562163925603    -1.073477093412     1.034871038949     1.007825032230
         H            3.433723925603     0.150312906588     1.953761038949     1.007825032230
         H            2.568463925603    -1.135077093412     2.791691038949     1.007825032230

  Running in c1 symmetry.

  Rotational constants: A =      0.05834  B =      0.01656  C =      0.01336 [cm^-1]
  Rotational constants: A =   1749.05005  B =    496.47610  C =    400.62679 [MHz]
  Nuclear repulsion =  268.053290460607570

  Charge       = 0
  Multiplicity = 1
  Electrons    = 58
  Nalpha       = 29
  Nbeta        = 29

  ==> Algorithm <==

  SCF Algorithm Type is DF.
  DIIS enabled.
  MOM disabled.
  Fractional occupation disabled.
  Guess Type is SAD.
  Energy threshold   = 1.00e-08
  Density threshold  = 1.00e-08
  Integral threshold = 0.00e+00

  ==> Primary Basis <==

  Basis Set: AUG-CC-PVTZ
    Blend: AUG-CC-PVTZ
    Number of shells: 242
    Number of basis function: 690
    Number of Cartesian functions: 785
    Spherical Harmonics?: true
    Max angular momentum: 3

   => Loading Basis Set <=

    Name: (AUG-CC-PVTZ AUX)
    Role: JKFIT
    Keyword: DF_BASIS_SCF
    atoms 1, 4, 7, 11, 14, 17, 20                    entry C          line   162 file /home/liuchw/anaconda3/envs/psi4env/share/psi4/basis/aug-cc-pvtz-jkfit.gbs 
    atoms 2-3, 5-6, 8-10, 12-13, 15-16, 18-19, 21-23 entry H          line    70 file /home/liuchw/anaconda3/envs/psi4env/share/psi4/basis/aug-cc-pvtz-jkfit.gbs 

  ==> Pre-Iterations <==

   -------------------------------------------------------
    Irrep   Nso     Nmo     Nalpha   Nbeta   Ndocc  Nsocc
   -------------------------------------------------------
     A        690     690       0       0       0       0
   -------------------------------------------------------
    Total     690     690      29      29      29       0
   -------------------------------------------------------

  ==> Integral Setup <==

  ==> DiskDFJK: Density-Fitted J/K Matrices <==

    J tasked:                  Yes
    K tasked:                  Yes
    wK tasked:                  No
    OpenMP threads:              8
    Integrals threads:           8
    Memory [MiB]:            35762
    Algorithm:                Core
    Integral Cache:           SAVE
    Schwarz Cutoff:          1E-12
    Fitting Condition:       1E-10

   => Auxiliary Basis Set <=

  Basis Set: (AUG-CC-PVTZ AUX)
    Blend: AUG-CC-PVTZ-JKFIT
    Number of shells: 434
    Number of basis function: 1464
    Number of Cartesian functions: 1797
    Spherical Harmonics?: true
    Max angular momentum: 4

  Minimum eigenvalue in the overlap matrix is 4.4909834352E-06.
  Using Symmetric Orthogonalization.

  SCF Guess: Superposition of Atomic Densities via on-the-fly atomic UHF.

  ==> Iterations <==

                           Total Energy        Delta E     RMS |[F,P]|

   @DF-RHF iter SAD:  -273.16780595295540   -2.73168e+02   0.00000e+00 
   @DF-RHF iter   1:  -274.11880980303044   -9.51004e-01   1.09456e-03 DIIS
   @DF-RHF iter   2:  -274.40615798468025   -2.87348e-01   4.89952e-04 DIIS
   @DF-RHF iter   3:  -274.46538459813064   -5.92266e-02   8.37242e-05 DIIS
   @DF-RHF iter   4:  -274.46896696429826   -3.58237e-03   1.85979e-05 DIIS
   @DF-RHF iter   5:  -274.46908939843888   -1.22434e-04   5.21708e-06 DIIS
   @DF-RHF iter   6:  -274.46910087228713   -1.14738e-05   8.16060e-07 DIIS
   @DF-RHF iter   7:  -274.46910121269156   -3.40404e-07   1.98612e-07 DIIS
   @DF-RHF iter   8:  -274.46910123125116   -1.85596e-08   4.51892e-08 DIIS
   @DF-RHF iter   9:  -274.46910123216264   -9.11484e-10   1.23474e-08 DIIS
   @DF-RHF iter  10:  -274.46910123224245   -7.98082e-11   2.43227e-09 DIIS
  Energy and wave function converged.


  ==> Post-Iterations <==

    Orbital Energies [Eh]
    ---------------------

    Doubly Occupied:                                                      

       1A    -11.231670     2A    -11.229947     3A    -11.212561  
       4A    -11.212484     5A    -11.210212     6A    -11.207222  
       7A    -11.207217     8A     -1.081342     9A     -1.035196  
      10A     -1.015386    11A     -0.919024    12A     -0.819990  
      13A     -0.793931    14A     -0.785122    15A     -0.647413  
      16A     -0.645426    17A     -0.598352    18A     -0.592823  
      19A     -0.588268    20A     -0.554149    21A     -0.547508  
      22A     -0.525436    23A     -0.509049    24A     -0.494742  
      25A     -0.475969    26A     -0.461967    27A     -0.459226  
      28A     -0.446676    29A     -0.377607  

    Virtual:                                                              

      30A      0.028495    31A      0.032589    32A      0.035037  
      33A      0.037678    34A      0.043574    35A      0.043577  
      36A      0.053163    37A      0.053770    38A      0.058858  
      39A      0.059424    40A      0.071255    41A      0.073717  
      42A      0.079195    43A      0.080584    44A      0.083189  
      45A      0.088447    46A      0.093598    47A      0.103599  
      48A      0.111042    49A      0.119178    50A      0.122066  
      51A      0.127583    52A      0.130180    53A      0.133350  
      54A      0.139405    55A      0.142473    56A      0.143014  
      57A      0.145909    58A      0.148562    59A      0.155362  
      60A      0.157585    61A      0.158912    62A      0.163174  
      63A      0.165191    64A      0.170701    65A      0.171686  
      66A      0.180403    67A      0.180518    68A      0.191546  
      69A      0.193535    70A      0.196876    71A      0.207202  
      72A      0.215690    73A      0.217603    74A      0.221318  
      75A      0.228666    76A      0.232290    77A      0.243553  
      78A      0.250286    79A      0.252300    80A      0.262403  
      81A      0.263301    82A      0.270242    83A      0.279026  
      84A      0.282374    85A      0.296615    86A      0.296948  
      87A      0.299289    88A      0.305985    89A      0.309768  
      90A      0.309812    91A      0.315831    92A      0.322379  
      93A      0.324941    94A      0.327284    95A      0.330508  
      96A      0.340762    97A      0.344194    98A      0.351652  
      99A      0.354982   100A      0.361843   101A      0.365329  
     102A      0.369983   103A      0.371164   104A      0.375419  
     105A      0.378640   106A      0.382925   107A      0.383585  
     108A      0.386234   109A      0.388068   110A      0.388614  
     111A      0.393984   112A      0.397654   113A      0.399896  
     114A      0.403420   115A      0.406957   116A      0.408325  
     117A      0.413244   118A      0.418345   119A      0.419097  
     120A      0.419329   121A      0.431123   122A      0.431452  
     123A      0.438351   124A      0.440153   125A      0.447826  
     126A      0.447975   127A      0.451398   128A      0.455476  
     129A      0.455990   130A      0.459393   131A      0.466214  
     132A      0.469340   133A      0.471308   134A      0.472340  
     135A      0.476471   136A      0.480361   137A      0.482510  
     138A      0.489920   139A      0.493943   140A      0.507257  
     141A      0.507366   142A      0.513882   143A      0.514787  
     144A      0.519382   145A      0.521573   146A      0.526346  
     147A      0.527280   148A      0.532642   149A      0.537586  
     150A      0.541149   151A      0.541865   152A      0.558023  
     153A      0.558829   154A      0.565260   155A      0.567565  
     156A      0.573450   157A      0.580364   158A      0.592729  
     159A      0.599085   160A      0.609044   161A      0.613338  
     162A      0.618521   163A      0.618719   164A      0.626455  
     165A      0.628480   166A      0.633435   167A      0.635151  
     168A      0.646799   169A      0.651951   170A      0.655330  
     171A      0.667939   172A      0.669200   173A      0.678330  
     174A      0.703892   175A      0.714883   176A      0.721157  
     177A      0.728513   178A      0.734116   179A      0.747143  
     180A      0.755956   181A      0.763419   182A      0.787854  
     183A      0.791844   184A      0.803722   185A      0.806102  
     186A      0.807294   187A      0.825213   188A      0.826911  
     189A      0.831223   190A      0.831620   191A      0.839337  
     192A      0.839389   193A      0.847386   194A      0.860483  
     195A      0.860725   196A      0.866349   197A      0.869909  
     198A      0.876757   199A      0.882931   200A      0.887256  
     201A      0.897233   202A      0.900408   203A      0.903956  
     204A      0.908645   205A      0.910909   206A      0.919771  
     207A      0.919983   208A      0.924653   209A      0.928008  
     210A      0.928047   211A      0.935703   212A      0.936431  
     213A      0.938445   214A      0.939428   215A      0.943172  
     216A      0.949824   217A      0.950625   218A      0.954324  
     219A      0.965538   220A      0.966621   221A      0.968164  
     222A      0.974527   223A      0.976649   224A      0.977278  
     225A      0.985952   226A      0.992204   227A      0.998590  
     228A      1.009210   229A      1.011489   230A      1.016427  
     231A      1.021179   232A      1.026878   233A      1.032956  
     234A      1.033031   235A      1.045278   236A      1.046703  
     237A      1.050005   238A      1.058332   239A      1.067993  
     240A      1.074934   241A      1.077863   242A      1.083142  
     243A      1.092874   244A      1.097433   245A      1.103747  
     246A      1.106227   247A      1.108555   248A      1.111085  
     249A      1.114621   250A      1.127570   251A      1.132846  
     252A      1.144652   253A      1.146114   254A      1.146621  
     255A      1.151257   256A      1.156045   257A      1.162219  
     258A      1.166536   259A      1.167334   260A      1.173171  
     261A      1.174413   262A      1.175319   263A      1.179200  
     264A      1.185663   265A      1.189728   266A      1.190892  
     267A      1.195780   268A      1.209725   269A      1.214965  
     270A      1.244039   271A      1.246395   272A      1.248558  
     273A      1.252377   274A      1.259688   275A      1.268221  
     276A      1.273099   277A      1.283209   278A      1.284514  
     279A      1.290215   280A      1.304601   281A      1.309714  
     282A      1.314624   283A      1.321696   284A      1.325932  
     285A      1.332525   286A      1.339948   287A      1.344229  
     288A      1.361100   289A      1.361250   290A      1.366693  
     291A      1.373167   292A      1.397639   293A      1.398440  
     294A      1.401016   295A      1.405297   296A      1.426440  
     297A      1.438220   298A      1.446843   299A      1.458241  
     300A      1.459297   301A      1.466698   302A      1.472360  
     303A      1.485897   304A      1.490680   305A      1.505105  
     306A      1.515576   307A      1.542112   308A      1.563712  
     309A      1.568976   310A      1.571432   311A      1.575522  
     312A      1.582115   313A      1.586129   314A      1.593133  
     315A      1.599032   316A      1.604825   317A      1.616919  
     318A      1.624185   319A      1.625028   320A      1.629507  
     321A      1.633659   322A      1.651651   323A      1.656878  
     324A      1.661060   325A      1.668177   326A      1.680613  
     327A      1.687999   328A      1.689085   329A      1.698946  
     330A      1.699881   331A      1.703122   332A      1.706865  
     333A      1.726693   334A      1.726987   335A      1.732982  
     336A      1.742686   337A      1.744766   338A      1.751824  
     339A      1.762933   340A      1.767823   341A      1.776051  
     342A      1.776478   343A      1.778565   344A      1.784501  
     345A      1.789524   346A      1.794957   347A      1.801375  
     348A      1.804989   349A      1.810742   350A      1.811407  
     351A      1.818526   352A      1.825535   353A      1.832284  
     354A      1.852270   355A      1.854264   356A      1.859583  
     357A      1.879014   358A      1.887187   359A      1.895915  
     360A      1.918983   361A      1.919133   362A      1.937814  
     363A      1.947048   364A      1.947772   365A      1.958630  
     366A      1.960681   367A      1.967473   368A      1.970936  
     369A      1.983347   370A      1.990866   371A      2.002396  
     372A      2.007129   373A      2.017415   374A      2.044727  
     375A      2.045743   376A      2.055137   377A      2.064077  
     378A      2.069954   379A      2.083964   380A      2.090771  
     381A      2.095331   382A      2.097329   383A      2.114829  
     384A      2.123887   385A      2.128221   386A      2.142637  
     387A      2.156682   388A      2.157311   389A      2.172736  
     390A      2.182215   391A      2.186393   392A      2.192337  
     393A      2.226881   394A      2.247897   395A      2.249765  
     396A      2.251228   397A      2.257378   398A      2.259322  
     399A      2.260932   400A      2.289223   401A      2.296166  
     402A      2.314183   403A      2.322764   404A      2.327973  
     405A      2.333627   406A      2.341938   407A      2.348427  
     408A      2.358088   409A      2.373885   410A      2.395091  
     411A      2.406863   412A      2.422968   413A      2.443347  
     414A      2.443428   415A      2.456499   416A      2.461117  
     417A      2.480523   418A      2.485086   419A      2.500041  
     420A      2.511934   421A      2.565964   422A      2.573671  
     423A      2.587185   424A      2.644600   425A      2.649229  
     426A      2.657945   427A      2.715380   428A      2.725558  
     429A      2.738490   430A      2.831944   431A      2.880133  
     432A      2.923309   433A      2.932659   434A      3.015284  
     435A      3.018734   436A      3.032645   437A      3.117964  
     438A      3.229931   439A      3.235440   440A      3.244746  
     441A      3.255045   442A      3.262525   443A      3.283189  
     444A      3.284204   445A      3.311614   446A      3.338797  
     447A      3.349724   448A      3.428720   449A      3.432873  
     450A      3.435007   451A      3.453307   452A      3.463836  
     453A      3.469126   454A      3.480106   455A      3.488322  
     456A      3.494751   457A      3.497777   458A      3.503907  
     459A      3.524389   460A      3.527292   461A      3.538520  
     462A      3.577443   463A      3.596271   464A      3.598530  
     465A      3.602793   466A      3.608517   467A      3.610838  
     468A      3.616919   469A      3.621626   470A      3.647500  
     471A      3.683837   472A      3.685194   473A      3.690565  
     474A      3.700549   475A      3.706870   476A      3.722043  
     477A      3.729158   478A      3.739301   479A      3.739960  
     480A      3.743703   481A      3.751963   482A      3.765546  
     483A      3.769850   484A      3.770883   485A      3.780895  
     486A      3.791570   487A      3.801370   488A      3.805617  
     489A      3.810909   490A      3.831373   491A      3.846649  
     492A      3.860387   493A      3.871060   494A      3.875094  
     495A      3.877714   496A      3.881437   497A      3.881452  
     498A      3.901049   499A      3.906648   500A      3.918630  
     501A      3.932688   502A      3.946338   503A      3.951939  
     504A      3.969918   505A      3.983719   506A      3.992446  
     507A      3.996132   508A      3.996929   509A      3.998925  
     510A      4.010609   511A      4.022579   512A      4.027790  
     513A      4.037800   514A      4.060244   515A      4.067953  
     516A      4.070631   517A      4.078239   518A      4.094168  
     519A      4.104029   520A      4.107778   521A      4.111554  
     522A      4.157191   523A      4.164717   524A      4.171966  
     525A      4.186624   526A      4.193985   527A      4.200984  
     528A      4.225176   529A      4.233592   530A      4.237362  
     531A      4.256336   532A      4.258737   533A      4.263485  
     534A      4.283906   535A      4.295515   536A      4.306163  
     537A      4.314936   538A      4.326851   539A      4.335169  
     540A      4.340760   541A      4.353382   542A      4.363729  
     543A      4.381838   544A      4.401655   545A      4.403308  
     546A      4.414466   547A      4.451811   548A      4.466154  
     549A      4.476561   550A      4.514389   551A      4.528052  
     552A      4.528672   553A      4.547628   554A      4.563091  
     555A      4.570450   556A      4.587107   557A      4.588259  
     558A      4.612524   559A      4.620897   560A      4.656466  
     561A      4.667690   562A      4.672781   563A      4.686801  
     564A      4.698880   565A      4.704209   566A      4.715073  
     567A      4.719542   568A      4.737092   569A      4.737978  
     570A      4.752954   571A      4.765816   572A      4.802036  
     573A      4.823423   574A      4.840218   575A      4.847197  
     576A      4.850628   577A      4.863697   578A      4.872820  
     579A      4.898943   580A      4.901556   581A      4.904060  
     582A      4.914519   583A      4.920861   584A      4.941732  
     585A      4.948652   586A      4.950207   587A      4.952119  
     588A      4.961632   589A      4.965856   590A      4.983338  
     591A      5.008183   592A      5.025046   593A      5.042441  
     594A      5.065561   595A      5.090967   596A      5.109710  
     597A      5.113344   598A      5.136034   599A      5.170134  
     600A      5.172430   601A      5.186628   602A      5.188009  
     603A      5.203273   604A      5.223996   605A      5.231546  
     606A      5.235336   607A      5.258456   608A      5.266372  
     609A      5.275295   610A      5.286210   611A      5.288639  
     612A      5.292237   613A      5.294373   614A      5.297934  
     615A      5.322388   616A      5.347098   617A      5.360601  
     618A      5.363361   619A      5.378752   620A      5.404966  
     621A      5.406919   622A      5.424924   623A      5.449163  
     624A      5.452615   625A      5.452742   626A      5.505637  
     627A      5.508423   628A      5.509917   629A      5.513761  
     630A      5.567190   631A      5.578723   632A      5.587332  
     633A      5.592102   634A      5.609931   635A      5.623058  
     636A      5.623204   637A      5.631261   638A      5.671440  
     639A      5.677914   640A      5.693289   641A      5.704407  
     642A      5.724168   643A      5.769422   644A      5.776615  
     645A      5.803999   646A      5.813817   647A      5.818922  
     648A      5.862289   649A      5.882331   650A      5.933979  
     651A      5.968886   652A      5.983334   653A      6.007417  
     654A      6.007696   655A      6.078788   656A      6.095074  
     657A      6.107065   658A      6.140477   659A      6.187687  
     660A      6.205998   661A      6.211173   662A      6.231895  
     663A      6.256532   664A      6.290615   665A      6.296187  
     666A      6.332251   667A      6.360165   668A      6.419255  
     669A      6.451887   670A      6.479355   671A      6.577298  
     672A      6.578385   673A      6.631286   674A      6.671687  
     675A      6.738727   676A      6.747042   677A      6.798101  
     678A      6.827836   679A      6.855979   680A      6.862629  
     681A      6.907786   682A      6.988610   683A      7.067452  
     684A     16.943779   685A     17.326591   686A     17.707978  
     687A     18.082993   688A     18.087762   689A     18.457455  
     690A     19.233448  

    Final Occupation by Irrep:
              A 
    DOCC [    29 ]

  @DF-RHF Final Energy:  -274.46910123224245

   => Energetics <=

    Nuclear Repulsion Energy =            268.0532904606075704
    One-Electron Energy =                -899.2729502274462448
    Two-Electron Energy =                 356.7505585345962800
    Total Energy =                       -274.4691012322424513

Computation Completed


Properties will be evaluated at   0.000000,   0.000000,   0.000000 [a0]

Properties computed using the SCF density matrix

  Nuclear Dipole Moment: [e a0]
     X:    -0.0003      Y:    -0.7836      Z:     3.1060

  Electronic Dipole Moment: [e a0]
     X:     0.0003      Y:     0.8216      Z:    -3.1051

  Dipole Moment: [e a0]
     X:    -0.0000      Y:     0.0380      Z:     0.0009     Total:     0.0380

  Dipole Moment: [D]
     X:    -0.0000      Y:     0.0966      Z:     0.0024     Total:     0.0966


*** tstop() called on node36.bme.utexas.edu at Fri Apr 24 09:30:39 2020
Module time:
	user time   =     465.54 seconds =       7.76 minutes
	system time =      27.15 seconds =       0.45 minutes
	total time  =         69 seconds =       1.15 minutes
Total time:
	user time   =     465.54 seconds =       7.76 minutes
	system time =      27.15 seconds =       0.45 minutes
	total time  =         69 seconds =       1.15 minutes

  //>>>>>>>>>>>>>>>>>>>>>>>>>>>>>>>>>>>//
  //            Monomer A HF           //
  //<<<<<<<<<<<<<<<<<<<<<<<<<<<<<<<<<<<//


*** tstart() called on node36.bme.utexas.edu
*** at Fri Apr 24 09:30:39 2020

   => Loading Basis Set <=

    Name: AUG-CC-PVTZ
    Role: ORBITAL
    Keyword: BASIS
    atoms 1, 4, 7, 11, 14, 17, 20                    entry C          line   239 file /home/liuchw/anaconda3/envs/psi4env/share/psi4/basis/aug-cc-pvtz.gbs 
    atoms 2-3, 5-6, 8-10, 12-13, 15-16, 18-19, 21-23 entry H          line    40 file /home/liuchw/anaconda3/envs/psi4env/share/psi4/basis/aug-cc-pvtz.gbs 


         ---------------------------------------------------------
                                   SCF
               by Justin Turney, Rob Parrish, Andy Simmonett
                          and Daniel G. A. Smith
                              RHF Reference
                        8 Threads,  47683 MiB Core
         ---------------------------------------------------------

  ==> Geometry <==

    Molecular point group: c1
    Full point group: C1

    Geometry (in Angstrom), charge = 0, multiplicity = 1:

       Center              X                  Y                   Z               Mass       
    ------------   -----------------  -----------------  -----------------  -----------------
         C            0.666563925603     0.326792906588    -5.019098961051    12.000000000000
         H            1.229043925603    -0.186897093412    -4.252578961051     1.007825032230
         H            1.228203925603     0.840192906588    -5.786448961051     1.007825032230
         C           -0.665806074397     0.325952906588    -5.019228961051    12.000000000000
         H           -1.227756074397    -0.188517093412    -4.252738961051     1.007825032230
         H           -1.228016074397     0.838632906588    -5.786588961051     1.007825032230
      Gh(C)          -2.532836074397    -0.460607093412     1.935731038949    12.000000000000
      Gh(H)          -2.562336074397    -1.073627093412     1.034541038949     1.007825032230
      Gh(H)          -2.568976074397    -1.134827093412     2.791341038949     1.007825032230
      Gh(H)          -3.434006074397     0.150412906588     1.952971038949     1.007825032230
      Gh(C)          -1.271406074397     0.392072906588     1.971541038949    12.000000000000
      Gh(H)          -1.271806074397     1.012162906588     2.870941038949     1.007825032230
      Gh(H)          -1.263016074397     1.078982906588     1.122481038949     1.007825032230
      Gh(C)          -0.000126074397    -0.445487093412     1.944601038949    12.000000000000
      Gh(H)          -0.000286074397    -1.132157093412     2.796431038949     1.007825032230
      Gh(H)           0.000013925603    -1.073067093412     1.047961038949     1.007825032230
      Gh(C)           1.271093925603     0.392102906588     1.972011038949    12.000000000000
      Gh(H)           1.271363925603     1.011912906588     2.871491038949     1.007825032230
      Gh(H)           1.262893925603     1.079172906588     1.123101038949     1.007825032230
      Gh(C)           2.532543925603    -0.460627093412     1.936181038949    12.000000000000
      Gh(H)           2.562163925603    -1.073477093412     1.034871038949     1.007825032230
      Gh(H)           3.433723925603     0.150312906588     1.953761038949     1.007825032230
      Gh(H)           2.568463925603    -1.135077093412     2.791691038949     1.007825032230

  Running in c1 symmetry.

  Rotational constants: A =      0.05834  B =      0.01656  C =      0.01336 [cm^-1]
  Rotational constants: A =   1749.05005  B =    496.47610  C =    400.62679 [MHz]
  Nuclear repulsion =   33.425605306588388

  Charge       = 0
  Multiplicity = 1
  Electrons    = 16
  Nalpha       = 8
  Nbeta        = 8

  ==> Algorithm <==

  SCF Algorithm Type is DF.
  DIIS enabled.
  MOM disabled.
  Fractional occupation disabled.
  Guess Type is SAD.
  Energy threshold   = 1.00e-08
  Density threshold  = 1.00e-08
  Integral threshold = 0.00e+00

  ==> Primary Basis <==

  Basis Set: AUG-CC-PVTZ
    Blend: AUG-CC-PVTZ
    Number of shells: 242
    Number of basis function: 690
    Number of Cartesian functions: 785
    Spherical Harmonics?: true
    Max angular momentum: 3

   => Loading Basis Set <=

    Name: (AUG-CC-PVTZ AUX)
    Role: JKFIT
    Keyword: DF_BASIS_SCF
    atoms 1, 4, 7, 11, 14, 17, 20                    entry C          line   162 file /home/liuchw/anaconda3/envs/psi4env/share/psi4/basis/aug-cc-pvtz-jkfit.gbs 
    atoms 2-3, 5-6, 8-10, 12-13, 15-16, 18-19, 21-23 entry H          line    70 file /home/liuchw/anaconda3/envs/psi4env/share/psi4/basis/aug-cc-pvtz-jkfit.gbs 

  ==> Pre-Iterations <==

   -------------------------------------------------------
    Irrep   Nso     Nmo     Nalpha   Nbeta   Ndocc  Nsocc
   -------------------------------------------------------
     A        690     690       0       0       0       0
   -------------------------------------------------------
    Total     690     690       8       8       8       0
   -------------------------------------------------------

  ==> Integral Setup <==

  ==> DiskDFJK: Density-Fitted J/K Matrices <==

    J tasked:                  Yes
    K tasked:                  Yes
    wK tasked:                  No
    OpenMP threads:              8
    Integrals threads:           8
    Memory [MiB]:            35762
    Algorithm:                Core
    Integral Cache:           LOAD
    Schwarz Cutoff:          1E-12
    Fitting Condition:       1E-10

   => Auxiliary Basis Set <=

  Basis Set: (AUG-CC-PVTZ AUX)
    Blend: AUG-CC-PVTZ-JKFIT
    Number of shells: 434
    Number of basis function: 1464
    Number of Cartesian functions: 1797
    Spherical Harmonics?: true
    Max angular momentum: 4

  Minimum eigenvalue in the overlap matrix is 4.4909834352E-06.
  Using Symmetric Orthogonalization.

  SCF Guess: Superposition of Atomic Densities via on-the-fly atomic UHF.

  ==> Iterations <==

                           Total Energy        Delta E     RMS |[F,P]|

   @DF-RHF iter SAD:   -77.27059877245975   -7.72706e+01   0.00000e+00 
   @DF-RHF iter   1:   -77.98492178808291   -7.14323e-01   5.38701e-04 DIIS
   @DF-RHF iter   2:   -78.05245293791693   -6.75311e-02   2.20732e-04 DIIS
   @DF-RHF iter   3:   -78.06415638662185   -1.17034e-02   3.33407e-05 DIIS
   @DF-RHF iter   4:   -78.06472167339359   -5.65287e-04   3.32188e-06 DIIS
   @DF-RHF iter   5:   -78.06472797469591   -6.30130e-06   3.96366e-07 DIIS
   @DF-RHF iter   6:   -78.06472807466221   -9.99663e-08   4.76001e-08 DIIS
   @DF-RHF iter   7:   -78.06472807592125   -1.25904e-09   7.98410e-09 DIIS
  Energy and wave function converged.


  ==> Post-Iterations <==

    Orbital Energies [Eh]
    ---------------------

    Doubly Occupied:                                                      

       1A    -11.231281     2A    -11.229558     3A     -1.034803  
       4A     -0.793547     5A     -0.645031     6A     -0.587884  
       7A     -0.508659     8A     -0.377214  

    Virtual:                                                              

       9A      0.017529    10A      0.027566    11A      0.032398  
      12A      0.035176    13A      0.041811    14A      0.042483  
      15A      0.049460    16A      0.051955    17A      0.056433  
      18A      0.057928    19A      0.067095    20A      0.073548  
      21A      0.075863    22A      0.078301    23A      0.082428  
      24A      0.085787    25A      0.089740    26A      0.095606  
      27A      0.097270    28A      0.106017    29A      0.107743  
      30A      0.112172    31A      0.119124    32A      0.127389  
      33A      0.128959    34A      0.134780    35A      0.138287  
      36A      0.139431    37A      0.142440    38A      0.147010  
      39A      0.148333    40A      0.152393    41A      0.153567  
      42A      0.157453    43A      0.169374    44A      0.170003  
      45A      0.173785    46A      0.180267    47A      0.182455  
      48A      0.186556    49A      0.188148    50A      0.197855  
      51A      0.202221    52A      0.210378    53A      0.214820  
      54A      0.220747    55A      0.227356    56A      0.236371  
      57A      0.246378    58A      0.248496    59A      0.258343  
      60A      0.265068    61A      0.273208    62A      0.280338  
      63A      0.282292    64A      0.282680    65A      0.285016  
      66A      0.296394    67A      0.297787    68A      0.299521  
      69A      0.303361    70A      0.305638    71A      0.311127  
      72A      0.323935    73A      0.326675    74A      0.328032  
      75A      0.329304    76A      0.334217    77A      0.338271  
      78A      0.340309    79A      0.341584    80A      0.349761  
      81A      0.353906    82A      0.363817    83A      0.364868  
      84A      0.367573    85A      0.371117    86A      0.373224  
      87A      0.377839    88A      0.384018    89A      0.385939  
      90A      0.392498    91A      0.392705    92A      0.395648  
      93A      0.396415    94A      0.401540    95A      0.404800  
      96A      0.406609    97A      0.412531    98A      0.419020  
      99A      0.424237   100A      0.425355   101A      0.430126  
     102A      0.432429   103A      0.446688   104A      0.447123  
     105A      0.448915   106A      0.453049   107A      0.456087  
     108A      0.459187   109A      0.460282   110A      0.462461  
     111A      0.471098   112A      0.473579   113A      0.483200  
     114A      0.491769   115A      0.492528   116A      0.497150  
     117A      0.506565   118A      0.512871   119A      0.518098  
     120A      0.525597   121A      0.528746   122A      0.533077  
     123A      0.534509   124A      0.540842   125A      0.541134  
     126A      0.543532   127A      0.553927   128A      0.558043  
     129A      0.561625   130A      0.567438   131A      0.587500  
     132A      0.591555   133A      0.595423   134A      0.595767  
     135A      0.605910   136A      0.622207   137A      0.624002  
     138A      0.630990   139A      0.632925   140A      0.639624  
     141A      0.641433   142A      0.644195   143A      0.653464  
     144A      0.658704   145A      0.663564   146A      0.665655  
     147A      0.666653   148A      0.670773   149A      0.672918  
     150A      0.677472   151A      0.682406   152A      0.683659  
     153A      0.685927   154A      0.691576   155A      0.705350  
     156A      0.706220   157A      0.709850   158A      0.712987  
     159A      0.722242   160A      0.729476   161A      0.755636  
     162A      0.758245   163A      0.768603   164A      0.774509  
     165A      0.780248   166A      0.788791   167A      0.795402  
     168A      0.804297   169A      0.810174   170A      0.816670  
     171A      0.817115   172A      0.829991   173A      0.837410  
     174A      0.847576   175A      0.860357   176A      0.866342  
     177A      0.870395   178A      0.888738   179A      0.904854  
     180A      0.908610   181A      0.912752   182A      0.920188  
     183A      0.922574   184A      0.924463   185A      0.930858  
     186A      0.934314   187A      0.941572   188A      0.945783  
     189A      0.955020   190A      0.960024   191A      0.969810  
     192A      0.977527   193A      0.980448   194A      0.990560  
     195A      1.004049   196A      1.017035   197A      1.019419  
     198A      1.023942   199A      1.029760   200A      1.033589  
     201A      1.035898   202A      1.042083   203A      1.049076  
     204A      1.052727   205A      1.059644   206A      1.061416  
     207A      1.067293   208A      1.071649   209A      1.074602  
     210A      1.075751   211A      1.084475   212A      1.085368  
     213A      1.088543   214A      1.090392   215A      1.092608  
     216A      1.101008   217A      1.106436   218A      1.106699  
     219A      1.113285   220A      1.128652   221A      1.131913  
     222A      1.136702   223A      1.138270   224A      1.143237  
     225A      1.146558   226A      1.154963   227A      1.158801  
     228A      1.160077   229A      1.169519   230A      1.174436  
     231A      1.175186   232A      1.179636   233A      1.184148  
     234A      1.190284   235A      1.202320   236A      1.207190  
     237A      1.212146   238A      1.216623   239A      1.222037  
     240A      1.223472   241A      1.226930   242A      1.248589  
     243A      1.258352   244A      1.260515   245A      1.270419  
     246A      1.275541   247A      1.278285   248A      1.287552  
     249A      1.288717   250A      1.292112   251A      1.298439  
     252A      1.302050   253A      1.302449   254A      1.310341  
     255A      1.318095   256A      1.319049   257A      1.324300  
     258A      1.326470   259A      1.330219   260A      1.340446  
     261A      1.357761   262A      1.366456   263A      1.369796  
     264A      1.370486   265A      1.391054   266A      1.393847  
     267A      1.394271   268A      1.397416   269A      1.399146  
     270A      1.403687   271A      1.403913   272A      1.438292  
     273A      1.439045   274A      1.449028   275A      1.451479  
     276A      1.451820   277A      1.460845   278A      1.466655  
     279A      1.473325   280A      1.473554   281A      1.475888  
     282A      1.493415   283A      1.496373   284A      1.496999  
     285A      1.520211   286A      1.520444   287A      1.529257  
     288A      1.532564   289A      1.532836   290A      1.542047  
     291A      1.553385   292A      1.567041   293A      1.573068  
     294A      1.578717   295A      1.588894   296A      1.601370  
     297A      1.603611   298A      1.614789   299A      1.618779  
     300A      1.634512   301A      1.648888   302A      1.663875  
     303A      1.685389   304A      1.688204   305A      1.688492  
     306A      1.691120   307A      1.692177   308A      1.704017  
     309A      1.708153   310A      1.710845   311A      1.719498  
     312A      1.734466   313A      1.740776   314A      1.754303  
     315A      1.766604   316A      1.768443   317A      1.770439  
     318A      1.780750   319A      1.786222   320A      1.794528  
     321A      1.795005   322A      1.813760   323A      1.817060  
     324A      1.819454   325A      1.825805   326A      1.827083  
     327A      1.840047   328A      1.873143   329A      1.877214  
     330A      1.885612   331A      1.912912   332A      1.936982  
     333A      1.939335   334A      1.945621   335A      1.953195  
     336A      1.980148   337A      1.988654   338A      1.989592  
     339A      2.025430   340A      2.037382   341A      2.039257  
     342A      2.044376   343A      2.049642   344A      2.060267  
     345A      2.064266   346A      2.072915   347A      2.082655  
     348A      2.084970   349A      2.088708   350A      2.109957  
     351A      2.118125   352A      2.120290   353A      2.127074  
     354A      2.136634   355A      2.142016   356A      2.149463  
     357A      2.156243   358A      2.163128   359A      2.180990  
     360A      2.183139   361A      2.199270   362A      2.210924  
     363A      2.227413   364A      2.230525   365A      2.239073  
     366A      2.242323   367A      2.242975   368A      2.248894  
     369A      2.256208   370A      2.261322   371A      2.281295  
     372A      2.290572   373A      2.291233   374A      2.297123  
     375A      2.304515   376A      2.319880   377A      2.320320  
     378A      2.360711   379A      2.382292   380A      2.403443  
     381A      2.422427   382A      2.436037   383A      2.438271  
     384A      2.441022   385A      2.459184   386A      2.462138  
     387A      2.463611   388A      2.487886   389A      2.510134  
     390A      2.525568   391A      2.535920   392A      2.537018  
     393A      2.560224   394A      2.562131   395A      2.570430  
     396A      2.581983   397A      2.605861   398A      2.614007  
     399A      2.620905   400A      2.642973   401A      2.643002  
     402A      2.645121   403A      2.689179   404A      2.691650  
     405A      2.700594   406A      2.712868   407A      2.731627  
     408A      2.740492   409A      2.765710   410A      2.798905  
     411A      2.819434   412A      2.824607   413A      2.856267  
     414A      2.862032   415A      2.880723   416A      2.930185  
     417A      2.940052   418A      2.940757   419A      2.970031  
     420A      2.993916   421A      3.001113   422A      3.015321  
     423A      3.021831   424A      3.030497   425A      3.033351  
     426A      3.065385   427A      3.144652   428A      3.235858  
     429A      3.245357   430A      3.262921   431A      3.279544  
     432A      3.283635   433A      3.290340   434A      3.305658  
     435A      3.313037   436A      3.340359   437A      3.424887  
     438A      3.429596   439A      3.464295   440A      3.467299  
     441A      3.480649   442A      3.495621   443A      3.578233  
     444A      3.608419   445A      3.617587   446A      3.706984  
     447A      3.722906   448A      3.740470   449A      3.770123  
     450A      3.792057   451A      3.846941   452A      3.862071  
     453A      3.881688   454A      3.911936   455A      3.935020  
     456A      3.986328   457A      4.022184   458A      4.032317  
     459A      4.094448   460A      4.100510   461A      4.104006  
     462A      4.106756   463A      4.111116   464A      4.124115  
     465A      4.126663   466A      4.145221   467A      4.156893  
     468A      4.165200   469A      4.179285   470A      4.191659  
     471A      4.208126   472A      4.218903   473A      4.222270  
     474A      4.222558   475A      4.234249   476A      4.238307  
     477A      4.249553   478A      4.250561   479A      4.266744  
     480A      4.282251   481A      4.286056   482A      4.287824  
     483A      4.295649   484A      4.318055   485A      4.328514  
     486A      4.341190   487A      4.367448   488A      4.375733  
     489A      4.381936   490A      4.382402   491A      4.403982  
     492A      4.404846   493A      4.428860   494A      4.442307  
     495A      4.449179   496A      4.454959   497A      4.502935  
     498A      4.503200   499A      4.514550   500A      4.523781  
     501A      4.546075   502A      4.559127   503A      4.565201  
     504A      4.569977   505A      4.588080   506A      4.588542  
     507A      4.604175   508A      4.623178   509A      4.623792  
     510A      4.634029   511A      4.659353   512A      4.660471  
     513A      4.693521   514A      4.695726   515A      4.699260  
     516A      4.702243   517A      4.716481   518A      4.718913  
     519A      4.738443   520A      4.746615   521A      4.767977  
     522A      4.802133   523A      4.819815   524A      4.820408  
     525A      4.821932   526A      4.848390   527A      4.862726  
     528A      4.886020   529A      4.892354   530A      4.900019  
     531A      4.916037   532A      4.920153   533A      4.923229  
     534A      4.941934   535A      4.941935   536A      4.949383  
     537A      4.951287   538A      4.961900   539A      4.968873  
     540A      4.974645   541A      4.981172   542A      4.982886  
     543A      4.991203   544A      5.012343   545A      5.027950  
     546A      5.034003   547A      5.038132   548A      5.047827  
     549A      5.065505   550A      5.065860   551A      5.076681  
     552A      5.089475   553A      5.090836   554A      5.130096  
     555A      5.171054   556A      5.192952   557A      5.224954  
     558A      5.228999   559A      5.251499   560A      5.261357  
     561A      5.264316   562A      5.275617   563A      5.292189  
     564A      5.297833   565A      5.308352   566A      5.346332  
     567A      5.348876   568A      5.351308   569A      5.358730  
     570A      5.402093   571A      5.427753   572A      5.429306  
     573A      5.441949   574A      5.445103   575A      5.447615  
     576A      5.469255   577A      5.506142   578A      5.510969  
     579A      5.518856   580A      5.541718   581A      5.545644  
     582A      5.553839   583A      5.557071   584A      5.561080  
     585A      5.571939   586A      5.587753   587A      5.591699  
     588A      5.602758   589A      5.611725   590A      5.623417  
     591A      5.623955   592A      5.626421   593A      5.646434  
     594A      5.653682   595A      5.668170   596A      5.680407  
     597A      5.736497   598A      5.747320   599A      5.748914  
     600A      5.770552   601A      5.780436   602A      5.783942  
     603A      5.793146   604A      5.812378   605A      5.816299  
     606A      5.818039   607A      5.823322   608A      5.862829  
     609A      5.879566   610A      5.885620   611A      5.893159  
     612A      5.954897   613A      5.992445   614A      6.007403  
     615A      6.049230   616A      6.080510   617A      6.095701  
     618A      6.116506   619A      6.125394   620A      6.136044  
     621A      6.159321   622A      6.209271   623A      6.234662  
     624A      6.252047   625A      6.254421   626A      6.277963  
     627A      6.319978   628A      6.328421   629A      6.403307  
     630A      6.468964   631A      6.480105   632A      6.529776  
     633A      6.539892   634A      6.578549   635A      6.595742  
     636A      6.661486   637A      6.672108   638A      6.739141  
     639A      6.845000   640A      6.850437   641A      6.921356  
     642A      6.923827   643A      6.952469   644A      6.956897  
     645A      6.967674   646A      6.989005   647A      7.014053  
     648A      7.067477   649A      7.096788   650A      7.115749  
     651A      7.192649   652A      7.255322   653A      7.261119  
     654A      7.272276   655A      7.302247   656A      7.426252  
     657A      7.702539   658A      7.803515   659A      7.858334  
     660A      7.871802   661A      7.875139   662A      7.876735  
     663A      7.887896   664A      7.913218   665A      7.928213  
     666A      8.088244   667A      8.090064   668A      8.194814  
     669A      8.257963   670A      8.333693   671A      8.352296  
     672A      8.381444   673A      8.476295   674A      8.497402  
     675A      8.898961   676A      9.019355   677A      9.166340  
     678A      9.650900   679A     10.472914   680A     10.477608  
     681A     10.498341   682A     10.688552   683A     10.865517  
     684A     16.944354   685A     17.327129   686A     52.634497  
     687A     53.580893   688A     53.596853   689A     54.151719  
     690A     55.716059  

    Final Occupation by Irrep:
              A 
    DOCC [     8 ]

  @DF-RHF Final Energy:   -78.06472807592125

   => Energetics <=

    Nuclear Repulsion Energy =             33.4256053065883876
    One-Electron Energy =                -170.1647184553859518
    Two-Electron Energy =                  58.6743850728763263
    Total Energy =                        -78.0647280759212379

Computation Completed


Properties will be evaluated at   0.000000,   0.000000,   0.000000 [a0]

Properties computed using the SCF density matrix

  Nuclear Dipole Moment: [e a0]
     X:     0.0114      Y:     9.8642      Z:  -151.7607

  Electronic Dipole Moment: [e a0]
     X:    -0.0114      Y:    -9.8646      Z:   151.7602

  Dipole Moment: [e a0]
     X:     0.0000      Y:    -0.0005      Z:    -0.0006     Total:     0.0007

  Dipole Moment: [D]
     X:     0.0000      Y:    -0.0012      Z:    -0.0014     Total:     0.0019


*** tstop() called on node36.bme.utexas.edu at Fri Apr 24 09:31:12 2020
Module time:
	user time   =     203.16 seconds =       3.39 minutes
	system time =      22.94 seconds =       0.38 minutes
	total time  =         33 seconds =       0.55 minutes
Total time:
	user time   =     668.77 seconds =      11.15 minutes
	system time =      50.10 seconds =       0.84 minutes
	total time  =        102 seconds =       1.70 minutes

  //>>>>>>>>>>>>>>>>>>>>>>>>>>>>>>>>>>>//
  //            Monomer B HF           //
  //<<<<<<<<<<<<<<<<<<<<<<<<<<<<<<<<<<<//


*** tstart() called on node36.bme.utexas.edu
*** at Fri Apr 24 09:31:12 2020

   => Loading Basis Set <=

    Name: AUG-CC-PVTZ
    Role: ORBITAL
    Keyword: BASIS
    atoms 1, 4, 7, 11, 14, 17, 20                    entry C          line   239 file /home/liuchw/anaconda3/envs/psi4env/share/psi4/basis/aug-cc-pvtz.gbs 
    atoms 2-3, 5-6, 8-10, 12-13, 15-16, 18-19, 21-23 entry H          line    40 file /home/liuchw/anaconda3/envs/psi4env/share/psi4/basis/aug-cc-pvtz.gbs 


         ---------------------------------------------------------
                                   SCF
               by Justin Turney, Rob Parrish, Andy Simmonett
                          and Daniel G. A. Smith
                              RHF Reference
                        8 Threads,  47683 MiB Core
         ---------------------------------------------------------

  ==> Geometry <==

    Molecular point group: c1
    Full point group: C1

    Geometry (in Angstrom), charge = 0, multiplicity = 1:

       Center              X                  Y                   Z               Mass       
    ------------   -----------------  -----------------  -----------------  -----------------
      Gh(C)           0.666563925603     0.326792906588    -5.019098961051    12.000000000000
      Gh(H)           1.229043925603    -0.186897093412    -4.252578961051     1.007825032230
      Gh(H)           1.228203925603     0.840192906588    -5.786448961051     1.007825032230
      Gh(C)          -0.665806074397     0.325952906588    -5.019228961051    12.000000000000
      Gh(H)          -1.227756074397    -0.188517093412    -4.252738961051     1.007825032230
      Gh(H)          -1.228016074397     0.838632906588    -5.786588961051     1.007825032230
         C           -2.532836074397    -0.460607093412     1.935731038949    12.000000000000
         H           -2.562336074397    -1.073627093412     1.034541038949     1.007825032230
         H           -2.568976074397    -1.134827093412     2.791341038949     1.007825032230
         H           -3.434006074397     0.150412906588     1.952971038949     1.007825032230
         C           -1.271406074397     0.392072906588     1.971541038949    12.000000000000
         H           -1.271806074397     1.012162906588     2.870941038949     1.007825032230
         H           -1.263016074397     1.078982906588     1.122481038949     1.007825032230
         C           -0.000126074397    -0.445487093412     1.944601038949    12.000000000000
         H           -0.000286074397    -1.132157093412     2.796431038949     1.007825032230
         H            0.000013925603    -1.073067093412     1.047961038949     1.007825032230
         C            1.271093925603     0.392102906588     1.972011038949    12.000000000000
         H            1.271363925603     1.011912906588     2.871491038949     1.007825032230
         H            1.262893925603     1.079172906588     1.123101038949     1.007825032230
         C            2.532543925603    -0.460627093412     1.936181038949    12.000000000000
         H            2.562163925603    -1.073477093412     1.034871038949     1.007825032230
         H            3.433723925603     0.150312906588     1.953761038949     1.007825032230
         H            2.568463925603    -1.135077093412     2.791691038949     1.007825032230

  Running in c1 symmetry.

  Rotational constants: A =      0.05834  B =      0.01656  C =      0.01336 [cm^-1]
  Rotational constants: A =   1749.05005  B =    496.47610  C =    400.62679 [MHz]
  Nuclear repulsion =  185.655899394843431

  Charge       = 0
  Multiplicity = 1
  Electrons    = 42
  Nalpha       = 21
  Nbeta        = 21

  ==> Algorithm <==

  SCF Algorithm Type is DF.
  DIIS enabled.
  MOM disabled.
  Fractional occupation disabled.
  Guess Type is SAD.
  Energy threshold   = 1.00e-08
  Density threshold  = 1.00e-08
  Integral threshold = 0.00e+00

  ==> Primary Basis <==

  Basis Set: AUG-CC-PVTZ
    Blend: AUG-CC-PVTZ
    Number of shells: 242
    Number of basis function: 690
    Number of Cartesian functions: 785
    Spherical Harmonics?: true
    Max angular momentum: 3

   => Loading Basis Set <=

    Name: (AUG-CC-PVTZ AUX)
    Role: JKFIT
    Keyword: DF_BASIS_SCF
    atoms 1, 4, 7, 11, 14, 17, 20                    entry C          line   162 file /home/liuchw/anaconda3/envs/psi4env/share/psi4/basis/aug-cc-pvtz-jkfit.gbs 
    atoms 2-3, 5-6, 8-10, 12-13, 15-16, 18-19, 21-23 entry H          line    70 file /home/liuchw/anaconda3/envs/psi4env/share/psi4/basis/aug-cc-pvtz-jkfit.gbs 

  ==> Pre-Iterations <==

   -------------------------------------------------------
    Irrep   Nso     Nmo     Nalpha   Nbeta   Ndocc  Nsocc
   -------------------------------------------------------
     A        690     690       0       0       0       0
   -------------------------------------------------------
    Total     690     690      21      21      21       0
   -------------------------------------------------------

  ==> Integral Setup <==

  ==> DiskDFJK: Density-Fitted J/K Matrices <==

    J tasked:                  Yes
    K tasked:                  Yes
    wK tasked:                  No
    OpenMP threads:              8
    Integrals threads:           8
    Memory [MiB]:            35762
    Algorithm:                Core
    Integral Cache:           LOAD
    Schwarz Cutoff:          1E-12
    Fitting Condition:       1E-10

   => Auxiliary Basis Set <=

  Basis Set: (AUG-CC-PVTZ AUX)
    Blend: AUG-CC-PVTZ-JKFIT
    Number of shells: 434
    Number of basis function: 1464
    Number of Cartesian functions: 1797
    Spherical Harmonics?: true
    Max angular momentum: 4

  Minimum eigenvalue in the overlap matrix is 4.4909834352E-06.
  Using Symmetric Orthogonalization.

  SCF Guess: Superposition of Atomic Densities via on-the-fly atomic UHF.

  ==> Iterations <==

                           Total Energy        Delta E     RMS |[F,P]|

   @DF-RHF iter SAD:  -195.89668127306550   -1.95897e+02   0.00000e+00 
   @DF-RHF iter   1:  -196.13389114789351   -2.37210e-01   9.52819e-04 DIIS
   @DF-RHF iter   2:  -196.35372602721156   -2.19835e-01   4.37334e-04 DIIS
   @DF-RHF iter   3:  -196.40124138302227   -4.75154e-02   7.62598e-05 DIIS
   @DF-RHF iter   4:  -196.40426282354795   -3.02144e-03   1.63067e-05 DIIS
   @DF-RHF iter   5:  -196.40436139793027   -9.85744e-05   4.92110e-06 DIIS
   @DF-RHF iter   6:  -196.40437118573141   -9.78780e-06   7.58373e-07 DIIS
   @DF-RHF iter   7:  -196.40437148933862   -3.03607e-07   1.55864e-07 DIIS
   @DF-RHF iter   8:  -196.40437150268605   -1.33474e-08   2.97704e-08 DIIS
   @DF-RHF iter   9:  -196.40437150318184   -4.95788e-10   9.51517e-09 DIIS
  Energy and wave function converged.


  ==> Post-Iterations <==

    Orbital Energies [Eh]
    ---------------------

    Doubly Occupied:                                                      

       1A    -11.212558     2A    -11.212486     3A    -11.210095  
       4A    -11.207061     5A    -11.207056     6A     -1.081273  
       7A     -1.015293     8A     -0.918890     9A     -0.819909  
      10A     -0.785062    11A     -0.647344    12A     -0.598256  
      13A     -0.592726    14A     -0.554053    15A     -0.547368  
      16A     -0.525268    17A     -0.494656    18A     -0.475898  
      19A     -0.461907    20A     -0.459164    21A     -0.446585  

    Virtual:                                                              

      22A      0.020752    23A      0.032350    24A      0.033283  
      25A      0.037302    26A      0.042542    27A      0.042699  
      28A      0.051862    29A      0.053948    30A      0.055784  
      31A      0.059648    32A      0.067634    33A      0.073863  
      34A      0.080299    35A      0.080683    36A      0.081994  
      37A      0.084786    38A      0.088387    39A      0.102616  
      40A      0.109316    41A      0.113551    42A      0.118769  
      43A      0.120117    44A      0.121839    45A      0.125458  
      46A      0.132779    47A      0.139655    48A      0.141228  
      49A      0.144636    50A      0.146395    51A      0.151013  
      52A      0.154997    53A      0.159942    54A      0.160780  
      55A      0.163272    56A      0.166942    57A      0.171808  
      58A      0.173334    59A      0.183481    60A      0.190374  
      61A      0.200185    62A      0.203434    63A      0.215571  
      64A      0.219806    65A      0.225176    66A      0.228233  
      67A      0.244623    68A      0.249547    69A      0.250951  
      70A      0.254721    71A      0.264732    72A      0.266910  
      73A      0.269302    74A      0.279986    75A      0.280608  
      76A      0.284930    77A      0.286838    78A      0.296838  
      79A      0.299482    80A      0.304463    81A      0.306049  
      82A      0.309553    83A      0.313461    84A      0.314144  
      85A      0.320256    86A      0.321058    87A      0.333520  
      88A      0.334435    89A      0.336332    90A      0.345177  
      91A      0.348439    92A      0.354404    93A      0.363175  
      94A      0.363555    95A      0.366338    96A      0.366448  
      97A      0.373425    98A      0.376077    99A      0.383939  
     100A      0.387410   101A      0.387526   102A      0.390353  
     103A      0.392975   104A      0.396208   105A      0.399935  
     106A      0.402502   107A      0.403760   108A      0.408270  
     109A      0.409483   110A      0.409713   111A      0.415112  
     112A      0.418352   113A      0.423361   114A      0.424384  
     115A      0.437271   116A      0.440897   117A      0.443265  
     118A      0.449845   119A      0.452347   120A      0.456507  
     121A      0.460443   122A      0.465570   123A      0.470152  
     124A      0.473813   125A      0.477445   126A      0.480245  
     127A      0.481038   128A      0.490135   129A      0.491672  
     130A      0.508685   131A      0.510441   132A      0.512439  
     133A      0.516097   134A      0.518814   135A      0.520231  
     136A      0.523268   137A      0.529546   138A      0.532457  
     139A      0.532764   140A      0.537713   141A      0.541819  
     142A      0.554449   143A      0.554770   144A      0.565372  
     145A      0.567122   146A      0.572735   147A      0.573458  
     148A      0.584253   149A      0.587667   150A      0.601028  
     151A      0.604026   152A      0.609729   153A      0.614166  
     154A      0.615771   155A      0.624340   156A      0.624836  
     157A      0.626189   158A      0.633942   159A      0.641524  
     160A      0.646398   161A      0.652594   162A      0.654815  
     163A      0.662520   164A      0.667810   165A      0.674911  
     166A      0.678937   167A      0.681766   168A      0.701157  
     169A      0.710041   170A      0.723973   171A      0.730321  
     172A      0.735096   173A      0.745862   174A      0.762016  
     175A      0.785664   176A      0.788626   177A      0.797220  
     178A      0.807704   179A      0.813285   180A      0.829021  
     181A      0.831133   182A      0.839349   183A      0.839372  
     184A      0.847676   185A      0.862623   186A      0.866939  
     187A      0.868739   188A      0.871221   189A      0.877171  
     190A      0.885082   191A      0.889715   192A      0.901371  
     193A      0.905410   194A      0.917371   195A      0.920924  
     196A      0.922427   197A      0.933052   198A      0.933305  
     199A      0.935412   200A      0.940716   201A      0.950005  
     202A      0.951663   203A      0.959432   204A      0.965466  
     205A      0.966700   206A      0.970140   207A      0.974540  
     208A      0.978649   209A      0.981462   210A      0.988475  
     211A      0.989508   212A      0.991187   213A      0.992157  
     214A      1.008525   215A      1.012995   216A      1.013281  
     217A      1.018145   218A      1.021606   219A      1.022020  
     220A      1.023220   221A      1.032419   222A      1.045886  
     223A      1.046259   224A      1.050235   225A      1.058008  
     226A      1.077254   227A      1.081126   228A      1.085992  
     229A      1.091550   230A      1.093144   231A      1.098517  
     232A      1.104488   233A      1.108616   234A      1.112325  
     235A      1.114435   236A      1.120232   237A      1.127860  
     238A      1.141308   239A      1.143438   240A      1.144637  
     241A      1.154502   242A      1.155686   243A      1.160865  
     244A      1.165075   245A      1.165742   246A      1.168329  
     247A      1.176081   248A      1.178017   249A      1.178205  
     250A      1.180936   251A      1.188862   252A      1.193113  
     253A      1.204287   254A      1.207627   255A      1.209057  
     256A      1.219736   257A      1.227074   258A      1.242214  
     259A      1.246771   260A      1.247567   261A      1.250300  
     262A      1.253303   263A      1.256627   264A      1.259548  
     265A      1.272986   266A      1.274824   267A      1.281154  
     268A      1.285872   269A      1.289486   270A      1.290207  
     271A      1.308195   272A      1.311286   273A      1.313970  
     274A      1.319999   275A      1.320771   276A      1.335180  
     277A      1.339878   278A      1.344396   279A      1.348909  
     280A      1.359546   281A      1.361220   282A      1.373217  
     283A      1.375634   284A      1.391100   285A      1.399435  
     286A      1.399673   287A      1.403917   288A      1.425783  
     289A      1.441755   290A      1.448065   291A      1.458533  
     292A      1.466231   293A      1.468101   294A      1.478891  
     295A      1.486886   296A      1.505873   297A      1.507659  
     298A      1.524674   299A      1.529357   300A      1.542958  
     301A      1.543844   302A      1.547392   303A      1.564342  
     304A      1.569946   305A      1.571659   306A      1.572430  
     307A      1.575798   308A      1.582617   309A      1.583195  
     310A      1.591238   311A      1.603678   312A      1.624157  
     313A      1.625368   314A      1.629611   315A      1.651883  
     316A      1.656262   317A      1.661381   318A      1.673486  
     319A      1.683409   320A      1.688998   321A      1.698231  
     322A      1.700457   323A      1.702582   324A      1.721998  
     325A      1.727140   326A      1.729197   327A      1.739513  
     328A      1.744124   329A      1.747798   330A      1.755782  
     331A      1.760587   332A      1.767250   333A      1.776163  
     334A      1.776982   335A      1.778298   336A      1.790332  
     337A      1.797253   338A      1.805718   339A      1.810388  
     340A      1.811992   341A      1.824075   342A      1.836745  
     343A      1.842063   344A      1.853686   345A      1.854869  
     346A      1.859654   347A      1.880786   348A      1.888029  
     349A      1.895998   350A      1.918974   351A      1.919946  
     352A      1.946432   353A      1.947893   354A      1.959870  
     355A      1.960438   356A      1.966411   357A      1.972095  
     358A      1.988964   359A      1.998502   360A      2.002452  
     361A      2.008169   362A      2.016838   363A      2.028405  
     364A      2.045263   365A      2.056336   366A      2.064780  
     367A      2.089653   368A      2.095604   369A      2.098083  
     370A      2.113060   371A      2.124850   372A      2.151609  
     373A      2.152934   374A      2.155184   375A      2.158018  
     376A      2.162484   377A      2.172095   378A      2.181846  
     379A      2.185978   380A      2.192816   381A      2.199448  
     382A      2.223640   383A      2.247479   384A      2.250460  
     385A      2.250817   386A      2.257404   387A      2.257718  
     388A      2.277234   389A      2.279956   390A      2.288464  
     391A      2.301147   392A      2.303280   393A      2.306216  
     394A      2.318712   395A      2.325272   396A      2.330633  
     397A      2.332277   398A      2.334710   399A      2.348082  
     400A      2.353988   401A      2.368985   402A      2.394199  
     403A      2.406661   404A      2.420781   405A      2.438283  
     406A      2.443855   407A      2.456332   408A      2.461894  
     409A      2.482152   410A      2.482316   411A      2.496967  
     412A      2.501232   413A      2.512113   414A      2.573613  
     415A      2.587209   416A      2.594393   417A      2.649399  
     418A      2.657487   419A      2.696061   420A      2.700408  
     421A      2.716869   422A      2.725692   423A      2.739410  
     424A      2.751440   425A      2.831504   426A      2.847228  
     427A      2.923912   428A      2.932833   429A      3.015384  
     430A      3.118797   431A      3.228311   432A      3.230944  
     433A      3.242877   434A      3.255240   435A      3.284672  
     436A      3.349739   437A      3.432277   438A      3.435014  
     439A      3.453234   440A      3.469116   441A      3.488376  
     442A      3.498004   443A      3.503381   444A      3.524064  
     445A      3.527498   446A      3.538795   447A      3.596357  
     448A      3.598263   449A      3.604388   450A      3.610587  
     451A      3.620870   452A      3.647506   453A      3.683916  
     454A      3.685440   455A      3.690733   456A      3.700519  
     457A      3.729162   458A      3.739647   459A      3.743840  
     460A      3.746222   461A      3.751590   462A      3.767265  
     463A      3.770080   464A      3.780985   465A      3.794093  
     466A      3.801371   467A      3.805876   468A      3.811575  
     469A      3.831137   470A      3.870026   471A      3.874514  
     472A      3.877573   473A      3.881021   474A      3.890841  
     475A      3.900869   476A      3.906725   477A      3.918705  
     478A      3.932664   479A      3.946486   480A      3.951903  
     481A      3.956258   482A      3.969968   483A      3.991982  
     484A      3.995488   485A      3.995971   486A      3.996967  
     487A      4.010791   488A      4.027696   489A      4.031257  
     490A      4.034895   491A      4.036926   492A      4.039885  
     493A      4.059959   494A      4.060612   495A      4.061206  
     496A      4.068124   497A      4.070878   498A      4.078436  
     499A      4.108460   500A      4.154997   501A      4.157226  
     502A      4.158581   503A      4.168228   504A      4.173330  
     505A      4.186665   506A      4.194146   507A      4.201266  
     508A      4.225275   509A      4.235817   510A      4.237228  
     511A      4.238659   512A      4.256601   513A      4.259025  
     514A      4.260203   515A      4.263989   516A      4.284031  
     517A      4.302618   518A      4.307407   519A      4.315091  
     520A      4.321007   521A      4.326937   522A      4.335221  
     523A      4.353655   524A      4.364065   525A      4.402188  
     526A      4.402386   527A      4.414388   528A      4.451701  
     529A      4.466339   530A      4.472377   531A      4.477778  
     532A      4.527674   533A      4.528691   534A      4.534214  
     535A      4.535520   536A      4.547728   537A      4.564320  
     538A      4.566046   539A      4.611458   540A      4.621107  
     541A      4.643924   542A      4.656433   543A      4.667785  
     544A      4.673008   545A      4.686793   546A      4.704318  
     547A      4.717288   548A      4.724574   549A      4.737070  
     550A      4.737945   551A      4.752743   552A      4.765735  
     553A      4.802363   554A      4.822269   555A      4.825382  
     556A      4.840492   557A      4.850702   558A      4.863614  
     559A      4.872245   560A      4.881548   561A      4.896756  
     562A      4.899465   563A      4.903148   564A      4.904193  
     565A      4.905880   566A      4.914879   567A      4.930601  
     568A      4.949825   569A      4.954272   570A      4.966307  
     571A      4.975248   572A      4.981402   573A      5.008304  
     574A      5.025095   575A      5.040006   576A      5.046354  
     577A      5.091076   578A      5.095147   579A      5.109570  
     580A      5.113563   581A      5.124578   582A      5.136096  
     583A      5.171242   584A      5.186447   585A      5.188041  
     586A      5.203475   587A      5.223939   588A      5.231367  
     589A      5.235438   590A      5.260684   591A      5.286462  
     592A      5.288905   593A      5.293939   594A      5.322228  
     595A      5.359545   596A      5.359965   597A      5.363393  
     598A      5.365755   599A      5.378379   600A      5.405021  
     601A      5.406882   602A      5.412571   603A      5.427611  
     604A      5.448714   605A      5.449199   606A      5.452652  
     607A      5.453431   608A      5.481055   609A      5.508555  
     610A      5.509792   611A      5.513604   612A      5.525661  
     613A      5.549428   614A      5.566956   615A      5.579399  
     616A      5.590298   617A      5.609963   618A      5.631408  
     619A      5.650469   620A      5.656771   621A      5.671481  
     622A      5.678054   623A      5.693412   624A      5.704144  
     625A      5.713907   626A      5.724234   627A      5.769456  
     628A      5.776611   629A      5.804094   630A      5.809587  
     631A      5.813774   632A      5.818833   633A      5.827183  
     634A      5.862320   635A      5.882550   636A      5.894040  
     637A      5.934213   638A      5.968959   639A      5.984417  
     640A      5.992943   641A      6.007759   642A      6.071015  
     643A      6.072191   644A      6.084207   645A      6.107078  
     646A      6.140658   647A      6.187848   648A      6.204200  
     649A      6.211279   650A      6.211913   651A      6.232021  
     652A      6.241715   653A      6.256725   654A      6.290885  
     655A      6.296344   656A      6.332527   657A      6.360243  
     658A      6.419360   659A      6.451904   660A      6.484614  
     661A      6.577221   662A      6.580322   663A      6.631275  
     664A      6.747198   665A      6.798064   666A      6.827979  
     667A      6.855989   668A      6.862796   669A      6.906661  
     670A      6.958213   671A      7.067265   672A      7.080077  
     673A      7.128883   674A      7.555273   675A      7.589268  
     676A      7.669746   677A      7.864018   678A      8.041501  
     679A      8.306121   680A      8.379802   681A      8.866850  
     682A     10.568604   683A     10.827651   684A     17.707966  
     685A     18.083102   686A     18.087715   687A     18.457577  
     688A     19.233561   689A     50.284817   690A     51.842419  

    Final Occupation by Irrep:
              A 
    DOCC [    21 ]

  @DF-RHF Final Energy:  -196.40437150318184

   => Energetics <=

    Nuclear Repulsion Energy =            185.6558993948434306
    One-Electron Energy =                -631.1747249386554586
    Two-Electron Energy =                 249.1144540406301644
    Total Energy =                       -196.4043715031818351

Computation Completed


Properties will be evaluated at   0.000000,   0.000000,   0.000000 [a0]

Properties computed using the SCF density matrix

  Nuclear Dipole Moment: [e a0]
     X:    -0.0117      Y:   -10.6478      Z:   154.8668

  Electronic Dipole Moment: [e a0]
     X:     0.0117      Y:    10.6803      Z:  -154.8650

  Dipole Moment: [e a0]
     X:    -0.0000      Y:     0.0326      Z:     0.0018     Total:     0.0326

  Dipole Moment: [D]
     X:    -0.0000      Y:     0.0829      Z:     0.0046     Total:     0.0830


*** tstop() called on node36.bme.utexas.edu at Fri Apr 24 09:31:55 2020
Module time:
	user time   =     284.54 seconds =       4.74 minutes
	system time =      22.03 seconds =       0.37 minutes
	total time  =         43 seconds =       0.72 minutes
Total time:
	user time   =     953.37 seconds =      15.89 minutes
	system time =      72.14 seconds =       1.20 minutes
	total time  =        145 seconds =       2.42 minutes
  Constructing Basis Sets for SAPT...

   => Loading Basis Set <=

    Name: (AUG-CC-PVTZ AUX)
    Role: RIFIT
    Keyword: DF_BASIS_SAPT
    atoms 1, 4, 7, 11, 14, 17, 20                    entry C          line   148 file /home/liuchw/anaconda3/envs/psi4env/share/psi4/basis/aug-cc-pvtz-ri.gbs 
    atoms 2-3, 5-6, 8-10, 12-13, 15-16, 18-19, 21-23 entry H          line    30 file /home/liuchw/anaconda3/envs/psi4env/share/psi4/basis/aug-cc-pvtz-ri.gbs 


  //>>>>>>>>>>>>>>>>>>>>>>>>>>>>>>>>>>>//
  //               SAPT2+              //
  //<<<<<<<<<<<<<<<<<<<<<<<<<<<<<<<<<<<//


*** tstart() called on node36.bme.utexas.edu
*** at Fri Apr 24 09:31:55 2020

        SAPT2+  
    Ed Hohenstein
     6 June 2009

      Orbital Information
  --------------------------
    NSO        =       690
    NMO        =       690
    NRI        =      1478
    NOCC A     =         8
    NOCC B     =        21
    FOCC A     =         2
    FOCC B     =         5
    NVIR A     =       682
    NVIR B     =       669

    Estimated memory usage: 10422.5 MB

    Natural Orbital Cutoff:   1.000E-06
    Disp(T3) Truncation:            Yes
    CCD (vv|vv) Truncation:         Yes
    MBPT T2 Truncation:             Yes

    Monomer A: 529 virtual orbitals dropped
    Monomer B: 256 virtual orbitals dropped

    Elst10,r            =    -0.000001031465 [Eh]
    Exch10 (S^2)        =     0.000000141349 [Eh]
    Exch10              =     0.000000141349 [Eh]
    Ind20,r (A<-B)      =    -0.000000096686 [Eh]
    Ind20,r (B<-A)      =    -0.000000530009 [Eh]
    Ind20,r             =    -0.000000626694 [Eh]
    Exch-Ind20,r (A<-B) =     0.000000016736 [Eh]
    Exch-Ind20,r (B<-A) =     0.000000002106 [Eh]
    Exch-Ind20,r        =     0.000000018842 [Eh]
    Disp20              =    -0.000140943675 [Eh]
    Disp20 (NO)         =    -0.000137549687 [Eh]
    Exch-Disp20         =     0.000000041016 [Eh]
    Elst12,r            =     0.000001184043 [Eh]
    Exch11              =    -0.000000000033 [Eh]
    Exch12              =     0.000000008246 [Eh]
    Ind22               =     0.000000035870 [Eh]
    Disp21              =     0.000019276423 [Eh]
    Disp22 (SDQ)        =     0.000010684870 [Eh]

    (i =   1 of  16)         23 seconds
    (i =   2 of  16)         45 seconds
    (i =   3 of  16)         68 seconds
    (i =   4 of  16)         90 seconds
    (i =   5 of  16)        113 seconds
    (i =   6 of  16)        136 seconds
    (i =   7 of  16)        158 seconds
    (i =   8 of  16)        181 seconds
    (i =   9 of  16)        203 seconds
    (i =  10 of  16)        226 seconds
    (i =  11 of  16)        249 seconds
    (i =  12 of  16)        272 seconds
    (i =  13 of  16)        295 seconds
    (i =  14 of  16)        318 seconds
    (i =  15 of  16)        340 seconds
    (i =  16 of  16)        363 seconds

    Disp220 (T)         =    -0.000011280054 [Eh]

    (i =   1 of   6)        368 seconds
    (i =   2 of   6)        723 seconds
    (i =   3 of   6)       1077 seconds
    (i =   4 of   6)       1440 seconds
    (i =   5 of   6)       1797 seconds
    (i =   6 of   6)       2149 seconds

    Disp202 (T)         =    -0.000011676600 [Eh]

    Disp22 (T)          =    -0.000022956654 [Eh]

    Est. Disp220 (T)    =    -0.000011558385 [Eh]
    Est. Disp202 (T)    =    -0.000011964716 [Eh]

    Est. Disp22 (T)     =    -0.000023523101 [Eh]

    SAPT Results 
  --------------------------------------------------------------------------------------------------------
    Electrostatics                  0.00015258 [mEh]       0.00009574 [kcal/mol]       0.00040059 [kJ/mol]
      Elst10,r                     -0.00103147 [mEh]      -0.00064725 [kcal/mol]      -0.00270811 [kJ/mol]
      Elst12,r                      0.00118404 [mEh]       0.00074300 [kcal/mol]       0.00310871 [kJ/mol]

    Exchange                        0.00014956 [mEh]       0.00009385 [kcal/mol]       0.00039267 [kJ/mol]
      Exch10                        0.00014135 [mEh]       0.00008870 [kcal/mol]       0.00037111 [kJ/mol]
      Exch10(S^2)                   0.00014135 [mEh]       0.00008870 [kcal/mol]       0.00037111 [kJ/mol]
      Exch11(S^2)                  -0.00000003 [mEh]      -0.00000002 [kcal/mol]      -0.00000009 [kJ/mol]
      Exch12(S^2)                   0.00000825 [mEh]       0.00000517 [kcal/mol]       0.00002165 [kJ/mol]

    Induction                      -0.00072823 [mEh]      -0.00045697 [kcal/mol]      -0.00191197 [kJ/mol]
      Ind20,r                      -0.00062669 [mEh]      -0.00039326 [kcal/mol]      -0.00164539 [kJ/mol]
      Ind22                         0.00003587 [mEh]       0.00002251 [kcal/mol]       0.00009418 [kJ/mol]
      Exch-Ind20,r                  0.00001884 [mEh]       0.00001182 [kcal/mol]       0.00004947 [kJ/mol]
      Exch-Ind22                   -0.00000108 [mEh]      -0.00000068 [kcal/mol]      -0.00000283 [kJ/mol]
      delta HF,r (2)               -0.00015517 [mEh]      -0.00009737 [kcal/mol]      -0.00040740 [kJ/mol]

    Dispersion                     -0.13446447 [mEh]      -0.08437773 [kcal/mol]      -0.35303641 [kJ/mol]
      Disp20                       -0.14094368 [mEh]      -0.08844349 [kcal/mol]      -0.37004757 [kJ/mol]
      Disp21                        0.01927642 [mEh]       0.01209614 [kcal/mol]       0.05061024 [kJ/mol]
      Disp22 (SDQ)                  0.01068487 [mEh]       0.00670486 [kcal/mol]       0.02805312 [kJ/mol]
      Disp22 (T)                   -0.02295665 [mEh]      -0.01440552 [kcal/mol]      -0.06027269 [kJ/mol]
      Est. Disp22 (T)              -0.02352310 [mEh]      -0.01476097 [kcal/mol]      -0.06175989 [kJ/mol]
      Exch-Disp20                   0.00004102 [mEh]       0.00002574 [kcal/mol]       0.00010769 [kJ/mol]

  Total HF                         -0.00165314 [mEh]      -0.00103736 [kcal/mol]      -0.00434032 [kJ/mol]
  Total SAPT0                      -0.14255580 [mEh]      -0.08945511 [kcal/mol]      -0.37428020 [kJ/mol]
  Total SAPT2                      -0.14132875 [mEh]      -0.08868513 [kcal/mol]      -0.37105859 [kJ/mol]
  Total SAPT2+                     -0.13489056 [mEh]      -0.08464510 [kcal/mol]      -0.35415512 [kJ/mol]

  Special recipe for scaled SAPT0 (see Manual):
    Electrostatics sSAPT0          -0.00103147 [mEh]      -0.00064725 [kcal/mol]      -0.00270811 [kJ/mol]
    Exchange sSAPT0                 0.00014135 [mEh]       0.00008870 [kcal/mol]       0.00037111 [kJ/mol]
    Induction sSAPT0               -0.00076302 [mEh]      -0.00047880 [kcal/mol]      -0.00200332 [kJ/mol]
    Dispersion sSAPT0              -0.14090266 [mEh]      -0.08841775 [kcal/mol]      -0.36993988 [kJ/mol]
  Total sSAPT0                     -0.14255580 [mEh]      -0.08945511 [kcal/mol]      -0.37428020 [kJ/mol]
  --------------------------------------------------------------------------------------------------------

*** tstop() called on node36.bme.utexas.edu at Fri Apr 24 10:47:56 2020
Module time:
	user time   =   30416.10 seconds =     506.94 minutes
	system time =     876.82 seconds =      14.61 minutes
	total time  =       4561 seconds =      76.02 minutes
Total time:
	user time   =   31370.50 seconds =     522.84 minutes
	system time =     949.03 seconds =      15.82 minutes
	total time  =       4706 seconds =      78.43 minutes

    Psi4 stopped on: Friday, 24 April 2020 10:47AM
    Psi4 wall time for execution: 1:18:26.03

*** Psi4 exiting successfully. Buy a developer a beer!
