    -----------------------------------------------------------------------
          PSI4: An Open-Source Ab Initio Electronic Structure Package
                              PSI 4.0.0-beta4 Driver

    J. M. Turney, A. C. Simmonett, R. M. Parrish, E. G. Hohenstein,
    F. A. Evangelista, J. T. Fermann, B. J. Mintz, L. A. Burns, J. J. Wilke,
    M. L. Abrams, N. J. Russ, M. L. Leininger, C. L. Janssen, E. T. Seidl,
    W. D. Allen, H. F. Schaefer, R. A. King, E. F. Valeev, C. D. Sherrill,
    and T. D. Crawford, WIREs Comput. Mol. Sci., (2011) (doi: 10.1002/wcms.93)

                         Additional Contributions by
    A. E. DePrince, M. Saitow, U. Bozkaya, A. Yu. Sokolov
    -----------------------------------------------------------------------

    Process ID:  21156
    PSI4DATADIR: /home/xzhu216/psi4/psi4-install/share/psi

    Using LocalCommunicator (Number of processes = 1)

    Memory level set to 256.000 MB

  ==> Input File <==

--------------------------------------------------------------------------
#psi4
#
memory 20 gb

molecule Benzene_AcOH {
0 1
C    0.964080386   0.875093309   0.378013637
H    1.659829610   1.699930824   0.446042274
C    1.431057086  -0.413133436   0.118991518
H    2.489524528  -0.587209167  -0.017012615
C    0.534127659  -1.477638897   0.042417552
H    0.896961292  -2.477388385  -0.152011989
C   -0.830326821  -1.253604085   0.220856111
H   -1.525760009  -2.079624353   0.164116545
C   -1.297587152   0.034412611   0.480242627
H   -2.354396072   0.208016117   0.628560956
C   -0.400445087   1.099779211   0.561601368
H   -0.760455137   2.093768799   0.784756979
--
0 1
C   -0.128172903   0.551149662   4.247480013
O   -0.596362497   1.600596285   3.868219628
O    0.275039675  -0.426413604   3.408194753
H    0.106334854  -0.100500019   2.506789499
C    0.081781397   0.154162576   5.678885804
H   -0.228184754   0.963499159   6.328874691
H   -0.494299331  -0.742461398   5.895836918
H    1.130278818  -0.081969510   5.843904388
units angstrom
no_reorient  #important for SAPT in psi4, default
symmetry c1  #important for SAPT in psi4, default
}

set {
basis aug-cc-pVTZ
scf_type DF
freeze_core True
}
energy('sapt2+')
--------------------------------------------------------------------------

  Memory set to  20.000 GiB by Python script.

  //>>>>>>>>>>>>>>>>>>>>>>>>>>>>>>>>>>>//
  //              Dimer HF             //
  //<<<<<<<<<<<<<<<<<<<<<<<<<<<<<<<<<<<//


  No DF_BASIS_SCF auxiliary basis selected, defaulting to aug-cc-pvtz-jkfit


*** tstart() called on node33.bme.utexas.edu
*** at Mon Oct 28 11:40:36 2013


         ---------------------------------------------------------
                                   SCF
            by Justin Turney, Rob Parrish, and Andy Simmonett
                              RHF Reference
                        6 Threads,  20000 MiB Core
         ---------------------------------------------------------

  ==> Geometry <==

    Molecular point group: c1
    Full point group: C1

    Geometry (in Angstrom), charge = 0, multiplicity = 1:

       Center              X                  Y                   Z       
    ------------   -----------------  -----------------  -----------------
           C          0.963778540672     0.784478397143    -1.648036578328
           H          1.659527764672     1.609315912143    -1.580007941328
           C          1.430755240672    -0.503748347857    -1.907058697328
           H          2.489222682672    -0.677824078857    -2.043062830328
           C          0.533825813672    -1.568253808857    -1.983632663328
           H          0.896659446672    -2.568003296857    -2.178062204328
           C         -0.830628666328    -1.344218996857    -1.805194104328
           H         -1.526061854328    -2.170239264857    -1.861933670328
           C         -1.297888997328    -0.056202300857    -1.545807588328
           H         -2.354697917328     0.117401205143    -1.397489259328
           C         -0.400746932328     1.009164299143    -1.464448847328
           H         -0.760756982328     2.003153887143    -1.241293236328
           C         -0.128474748328     0.460534750143     2.221429797672
           O         -0.596664342328     1.509981373143     1.842169412672
           O          0.274737829672    -0.517028515857     1.382144537672
           H          0.106033008672    -0.191114930857     0.480739283672
           C          0.081479551672     0.063547664143     3.652835588672
           H         -0.228486599328     0.872884247143     4.302824475672
           H         -0.494601176328    -0.833076309857     3.869786702672
           H          1.129976972672    -0.172584421857     3.817854172672

  Running in c1 symmetry.

  Nuclear repulsion =  492.796441052033970

  Charge       = 0
  Multiplicity = 1
  Electrons    = 74
  Nalpha       = 37
  Nbeta        = 37

  ==> Algorithm <==

  SCF Algorithm Type is DF.
  DIIS enabled.
  MOM disabled.
  Fractional occupation disabled.
  Guess Type is CORE.
  Energy threshold   = 1.00e-08
  Density threshold  = 1.00e-08
  Integral threshold = 0.00e+00

  ==> Primary Basis <==

  Basis Set: AUG-CC-PVTZ
    Number of shells: 230
    Number of basis function: 690
    Number of Cartesian functions: 800
    Spherical Harmonics?: true
    Max angular momentum: 3

  ==> Pre-Iterations <==

   -------------------------------------------------------
    Irrep   Nso     Nmo     Nalpha   Nbeta   Ndocc  Nsocc
   -------------------------------------------------------
     A        690     690       0       0       0       0
   -------------------------------------------------------
    Total     690     690      37      37      37       0
   -------------------------------------------------------

 OEINTS: Wrapper to libmints.
   by Justin Turney

   Calculation information:
      Number of atoms:                  20
      Number of AO shells:             230
      Number of SO shells:             230
      Number of primitives:            410
      Number of atomic orbitals:       800
      Number of basis functions:       690

      Number of irreps:                  1
      Number of functions per irrep: [ 690 ]

      Overlap, kinetic, potential, dipole, and quadrupole integrals
        stored in file 35.

  ==> Integral Setup <==

  ==> DFJK: Density-Fitted J/K Matrices <==

    J tasked:                  Yes
    K tasked:                  Yes
    wK tasked:                  No
    OpenMP threads:              6
    Integrals threads:           6
    Memory (MB):             14305
    Algorithm:                Core
    Integral Cache:           SAVE
    Schwarz Cutoff:          0E+00
    Fitting Condition:       1E-12

   => Auxiliary Basis Set <=

  Basis Set: aug-cc-pvtz-jkfit
    Number of shells: 440
    Number of basis function: 1500
    Number of Cartesian functions: 1860
    Spherical Harmonics?: true
    Max angular momentum: 4

  Minimum eigenvalue in the overlap matrix is 2.8052275415E-07.
  Using Symmetric Orthogonalization.
  SCF Guess: Core (One-Electron) Hamiltonian.

  Guess energy:  -373.27881178076973

  ==> Iterations <==

                        Total Energy        Delta E     RMS |[F,P]|

   @RHF iter   1:  -348.21590933637913   -3.48216e+02   2.40730e-02 
   @RHF iter   2:  -236.88669906223822    1.11329e+02   1.81527e-02 DIIS
   @RHF iter   3:  -376.39096332438157   -1.39504e+02   1.24752e-02 DIIS
   @RHF iter   4:  -212.41407899534374    1.63977e+02   2.49390e-02 DIIS
   @RHF iter   5:  -436.27933035495744   -2.23865e+02   8.62502e-03 DIIS
   @RHF iter   6:  -456.93385902566399   -2.06545e+01   2.71787e-03 DIIS
   @RHF iter   7:  -458.28954354583129   -1.35568e+00   1.27801e-03 DIIS
   @RHF iter   8:  -458.65781502062043   -3.68271e-01   3.42097e-04 DIIS
   @RHF iter   9:  -458.68315605387431   -2.53410e-02   1.08026e-04 DIIS
   @RHF iter  10:  -458.68604419887799   -2.88815e-03   2.94887e-05 DIIS
   @RHF iter  11:  -458.68634032250918   -2.96124e-04   1.18983e-05 DIIS
   @RHF iter  12:  -458.68639316281224   -5.28403e-05   3.81004e-06 DIIS
   @RHF iter  13:  -458.68640262240865   -9.45960e-06   1.52327e-06 DIIS
   @RHF iter  14:  -458.68640515554796   -2.53314e-06   6.80581e-07 DIIS
   @RHF iter  15:  -458.68640570657396   -5.51026e-07   3.19383e-07 DIIS
   @RHF iter  16:  -458.68640583612296   -1.29549e-07   1.17762e-07 DIIS
   @RHF iter  17:  -458.68640585077378   -1.46508e-08   4.45775e-08 DIIS
   @RHF iter  18:  -458.68640585256696   -1.79318e-09   1.71884e-08 DIIS
   @RHF iter  19:  -458.68640585275057   -1.83604e-10   7.51134e-09 DIIS

  ==> Post-Iterations <==

	Orbital Energies (a.u.)
	-----------------------

	Doubly Occupied:                                                      

	   1A    -20.594689     2A    -20.538634     3A    -11.377606  
	   4A    -11.244243     5A    -11.243770     6A    -11.242789  
	   7A    -11.242127     8A    -11.241959     9A    -11.240803  
	  10A    -11.235976    11A     -1.450231    12A     -1.348011  
	  13A     -1.160136    14A     -1.023454    15A     -1.023305  
	  16A     -1.018669    17A     -0.831536    18A     -0.831231  
	  19A     -0.810107    20A     -0.717429    21A     -0.694598  
	  22A     -0.668653    23A     -0.650273    24A     -0.639149  
	  25A     -0.626410    26A     -0.595747    27A     -0.594985  
	  28A     -0.573815    29A     -0.566276    30A     -0.551119  
	  31A     -0.509991    32A     -0.501812    33A     -0.501422  
	  34A     -0.470944    35A     -0.443642    36A     -0.346978  
	  37A     -0.345889  

	Virtual:                                                              

	  38A      0.025683    39A      0.033511    40A      0.035033  
	  41A      0.038108    42A      0.048957    43A      0.049005  
	  44A      0.052754    45A      0.055274    46A      0.065953  
	  47A      0.069458    48A      0.091731    49A      0.095846  
	  50A      0.098782    51A      0.102808    52A      0.105815  
	  53A      0.107651    54A      0.117513    55A      0.121171  
	  56A      0.122198    57A      0.127237    58A      0.128402  
	  59A      0.130023    60A      0.133305    61A      0.133502  
	  62A      0.142784    63A      0.143878    64A      0.146270  
	  65A      0.153339    66A      0.157271    67A      0.157362  
	  68A      0.159072    69A      0.160759    70A      0.164147  
	  71A      0.170428    72A      0.170857    73A      0.185892  
	  74A      0.195045    75A      0.206262    76A      0.208813  
	  77A      0.212832    78A      0.232263    79A      0.233663  
	  80A      0.245533    81A      0.246104    82A      0.250790  
	  83A      0.255366    84A      0.258098    85A      0.263611  
	  86A      0.265640    87A      0.271265    88A      0.282042  
	  89A      0.287086    90A      0.293158    91A      0.297384  
	  92A      0.304805    93A      0.305798    94A      0.307668  
	  95A      0.311173    96A      0.320103    97A      0.321165  
	  98A      0.323170    99A      0.326059   100A      0.334298  
	 101A      0.337509   102A      0.342280   103A      0.344554  
	 104A      0.346560   105A      0.347987   106A      0.356592  
	 107A      0.358071   108A      0.370724   109A      0.374139  
	 110A      0.378355   111A      0.382488   112A      0.383442  
	 113A      0.385499   114A      0.390110   115A      0.396956  
	 116A      0.405464   117A      0.415977   118A      0.418944  
	 119A      0.424813   120A      0.429168   121A      0.437664  
	 122A      0.440597   123A      0.449537   124A      0.452056  
	 125A      0.457486   126A      0.459856   127A      0.466265  
	 128A      0.471040   129A      0.475561   130A      0.478955  
	 131A      0.480767   132A      0.484881   133A      0.486310  
	 134A      0.488873   135A      0.496703   136A      0.500928  
	 137A      0.502499   138A      0.508867   139A      0.515575  
	 140A      0.518397   141A      0.524040   142A      0.528400  
	 143A      0.530439   144A      0.531266   145A      0.539269  
	 146A      0.542773   147A      0.543377   148A      0.545414  
	 149A      0.551949   150A      0.554658   151A      0.560998  
	 152A      0.571877   153A      0.584045   154A      0.586723  
	 155A      0.591538   156A      0.593642   157A      0.608191  
	 158A      0.618595   159A      0.630492   160A      0.636859  
	 161A      0.642951   162A      0.646840   163A      0.655516  
	 164A      0.657903   165A      0.668626   166A      0.673089  
	 167A      0.678942   168A      0.680488   169A      0.684700  
	 170A      0.689343   171A      0.695622   172A      0.699617  
	 173A      0.709972   174A      0.713083   175A      0.716461  
	 176A      0.733946   177A      0.734948   178A      0.746766  
	 179A      0.757631   180A      0.770887   181A      0.777749  
	 182A      0.782969   183A      0.795325   184A      0.797261  
	 185A      0.806491   186A      0.814356   187A      0.819186  
	 188A      0.821029   189A      0.821554   190A      0.829616  
	 191A      0.836108   192A      0.840005   193A      0.842611  
	 194A      0.851041   195A      0.856663   196A      0.860602  
	 197A      0.866073   198A      0.877675   199A      0.879007  
	 200A      0.885936   201A      0.889483   202A      0.891371  
	 203A      0.896603   204A      0.898230   205A      0.901959  
	 206A      0.904651   207A      0.911321   208A      0.920955  
	 209A      0.923646   210A      0.928695   211A      0.936603  
	 212A      0.944157   213A      0.948207   214A      0.955628  
	 215A      0.957880   216A      0.970519   217A      0.976471  
	 218A      0.981021   219A      0.990694   220A      0.999425  
	 221A      1.005451   222A      1.007267   223A      1.020762  
	 224A      1.031914   225A      1.037408   226A      1.043621  
	 227A      1.049023   228A      1.058467   229A      1.061080  
	 230A      1.072416   231A      1.081261   232A      1.085267  
	 233A      1.092510   234A      1.095929   235A      1.097902  
	 236A      1.104330   237A      1.108004   238A      1.108634  
	 239A      1.116235   240A      1.118964   241A      1.119932  
	 242A      1.125350   243A      1.131385   244A      1.132942  
	 245A      1.141877   246A      1.145408   247A      1.147793  
	 248A      1.152292   249A      1.160984   250A      1.170810  
	 251A      1.172347   252A      1.176336   253A      1.194605  
	 254A      1.195515   255A      1.199076   256A      1.206944  
	 257A      1.211106   258A      1.216721   259A      1.222861  
	 260A      1.225778   261A      1.234162   262A      1.240146  
	 263A      1.247140   264A      1.252084   265A      1.257867  
	 266A      1.266774   267A      1.271060   268A      1.273070  
	 269A      1.284272   270A      1.286089   271A      1.295639  
	 272A      1.301998   273A      1.311738   274A      1.313636  
	 275A      1.336947   276A      1.340249   277A      1.343172  
	 278A      1.348432   279A      1.363683   280A      1.366330  
	 281A      1.373825   282A      1.384454   283A      1.386962  
	 284A      1.393867   285A      1.401025   286A      1.409391  
	 287A      1.419163   288A      1.427084   289A      1.433051  
	 290A      1.446932   291A      1.457307   292A      1.460933  
	 293A      1.474825   294A      1.488665   295A      1.493036  
	 296A      1.498921   297A      1.507139   298A      1.511907  
	 299A      1.513312   300A      1.533130   301A      1.538971  
	 302A      1.546468   303A      1.553255   304A      1.563287  
	 305A      1.570523   306A      1.588576   307A      1.601166  
	 308A      1.609163   309A      1.618652   310A      1.629638  
	 311A      1.637491   312A      1.643932   313A      1.660690  
	 314A      1.667588   315A      1.671374   316A      1.696434  
	 317A      1.698543   318A      1.709404   319A      1.719981  
	 320A      1.723157   321A      1.732635   322A      1.740123  
	 323A      1.743865   324A      1.747772   325A      1.761273  
	 326A      1.762796   327A      1.767986   328A      1.776625  
	 329A      1.781816   330A      1.792579   331A      1.800514  
	 332A      1.807409   333A      1.819834   334A      1.827334  
	 335A      1.832059   336A      1.842413   337A      1.850168  
	 338A      1.857803   339A      1.864822   340A      1.865820  
	 341A      1.879515   342A      1.885318   343A      1.896044  
	 344A      1.904619   345A      1.912432   346A      1.932717  
	 347A      1.941651   348A      1.947180   349A      1.964660  
	 350A      1.977401   351A      1.997335   352A      1.999198  
	 353A      2.004640   354A      2.014416   355A      2.022346  
	 356A      2.034295   357A      2.037273   358A      2.041333  
	 359A      2.044448   360A      2.057247   361A      2.062416  
	 362A      2.066408   363A      2.073352   364A      2.091316  
	 365A      2.103950   366A      2.116161   367A      2.118285  
	 368A      2.124881   369A      2.129842   370A      2.145945  
	 371A      2.158578   372A      2.166671   373A      2.170747  
	 374A      2.183475   375A      2.198100   376A      2.222012  
	 377A      2.226717   378A      2.244799   379A      2.248154  
	 380A      2.280400   381A      2.289421   382A      2.304474  
	 383A      2.330852   384A      2.334306   385A      2.341703  
	 386A      2.343137   387A      2.345740   388A      2.362717  
	 389A      2.383144   390A      2.387221   391A      2.408140  
	 392A      2.422553   393A      2.427489   394A      2.448248  
	 395A      2.452793   396A      2.461933   397A      2.475962  
	 398A      2.509627   399A      2.518878   400A      2.519541  
	 401A      2.523268   402A      2.568259   403A      2.575172  
	 404A      2.576264   405A      2.583752   406A      2.586044  
	 407A      2.612101   408A      2.616671   409A      2.634682  
	 410A      2.642127   411A      2.663701   412A      2.668685  
	 413A      2.686243   414A      2.725139   415A      2.745468  
	 416A      2.753868   417A      2.761971   418A      2.768103  
	 419A      2.786420   420A      2.798583   421A      2.825460  
	 422A      2.839330   423A      2.843469   424A      2.865930  
	 425A      2.876046   426A      2.896366   427A      2.957874  
	 428A      2.992041   429A      3.001986   430A      3.011661  
	 431A      3.024956   432A      3.046012   433A      3.100046  
	 434A      3.115773   435A      3.131323   436A      3.136458  
	 437A      3.161672   438A      3.212484   439A      3.222317  
	 440A      3.234278   441A      3.272169   442A      3.277735  
	 443A      3.292068   444A      3.324459   445A      3.324865  
	 446A      3.332087   447A      3.356301   448A      3.378182  
	 449A      3.398103   450A      3.409709   451A      3.417752  
	 452A      3.420021   453A      3.429379   454A      3.447478  
	 455A      3.458246   456A      3.464248   457A      3.471379  
	 458A      3.497350   459A      3.502930   460A      3.505568  
	 461A      3.527161   462A      3.535496   463A      3.544578  
	 464A      3.545971   465A      3.563449   466A      3.589672  
	 467A      3.598608   468A      3.603534   469A      3.609887  
	 470A      3.623709   471A      3.634778   472A      3.635770  
	 473A      3.648809   474A      3.668212   475A      3.673119  
	 476A      3.683706   477A      3.686987   478A      3.702602  
	 479A      3.719687   480A      3.723276   481A      3.762957  
	 482A      3.770601   483A      3.779820   484A      3.807818  
	 485A      3.820807   486A      3.823232   487A      3.826444  
	 488A      3.838356   489A      3.838995   490A      3.854800  
	 491A      3.863299   492A      3.865607   493A      3.882877  
	 494A      3.892944   495A      3.919004   496A      3.931989  
	 497A      3.936880   498A      3.940910   499A      3.963794  
	 500A      3.965115   501A      3.978679   502A      3.983769  
	 503A      3.987228   504A      3.995622   505A      4.001520  
	 506A      4.009507   507A      4.016247   508A      4.027107  
	 509A      4.039247   510A      4.044467   511A      4.060528  
	 512A      4.065813   513A      4.080512   514A      4.082037  
	 515A      4.097614   516A      4.104426   517A      4.118669  
	 518A      4.123574   519A      4.126430   520A      4.132098  
	 521A      4.154605   522A      4.169397   523A      4.171099  
	 524A      4.180449   525A      4.187945   526A      4.200253  
	 527A      4.203527   528A      4.210429   529A      4.248521  
	 530A      4.272869   531A      4.282370   532A      4.290847  
	 533A      4.323261   534A      4.347810   535A      4.353627  
	 536A      4.363405   537A      4.376064   538A      4.380911  
	 539A      4.391697   540A      4.399134   541A      4.411291  
	 542A      4.418533   543A      4.421935   544A      4.422522  
	 545A      4.437630   546A      4.444911   547A      4.455030  
	 548A      4.463288   549A      4.466466   550A      4.483067  
	 551A      4.491482   552A      4.506989   553A      4.510324  
	 554A      4.526531   555A      4.551652   556A      4.552210  
	 557A      4.569126   558A      4.600356   559A      4.648044  
	 560A      4.675389   561A      4.697429   562A      4.698528  
	 563A      4.714152   564A      4.722276   565A      4.738957  
	 566A      4.745337   567A      4.756335   568A      4.785619  
	 569A      4.798506   570A      4.803368   571A      4.823501  
	 572A      4.830891   573A      4.853298   574A      4.869112  
	 575A      4.874380   576A      4.886902   577A      4.899051  
	 578A      4.931064   579A      4.938141   580A      4.956241  
	 581A      4.985589   582A      5.004852   583A      5.036032  
	 584A      5.036504   585A      5.071612   586A      5.083147  
	 587A      5.091139   588A      5.094258   589A      5.107287  
	 590A      5.117200   591A      5.140415   592A      5.151894  
	 593A      5.155634   594A      5.172853   595A      5.176828  
	 596A      5.184540   597A      5.194902   598A      5.202825  
	 599A      5.224655   600A      5.225899   601A      5.237818  
	 602A      5.253831   603A      5.268651   604A      5.296412  
	 605A      5.338080   606A      5.348865   607A      5.360966  
	 608A      5.369887   609A      5.383001   610A      5.396040  
	 611A      5.402422   612A      5.439763   613A      5.446739  
	 614A      5.447617   615A      5.452746   616A      5.498839  
	 617A      5.545570   618A      5.556280   619A      5.573553  
	 620A      5.605678   621A      5.642524   622A      5.662726  
	 623A      5.709599   624A      5.760674   625A      5.763851  
	 626A      5.771701   627A      5.790956   628A      5.794374  
	 629A      5.840407   630A      5.856405   631A      5.882693  
	 632A      5.978330   633A      6.028829   634A      6.083784  
	 635A      6.125606   636A      6.133609   637A      6.217864  
	 638A      6.233044   639A      6.241005   640A      6.268220  
	 641A      6.273393   642A      6.290171   643A      6.380860  
	 644A      6.392411   645A      6.398376   646A      6.442345  
	 647A      6.646447   648A      6.659109   649A      6.677838  
	 650A      6.705106   651A      6.707373   652A      6.750661  
	 653A      6.802437   654A      6.871164   655A      6.883997  
	 656A      6.888286   657A      6.949745   658A      6.965772  
	 659A      7.025445   660A      7.074532   661A      7.093672  
	 662A      7.222211   663A      7.258248   664A      7.367616  
	 665A      7.370734   666A      7.389717   667A      7.412857  
	 668A      7.436572   669A      7.468411   670A      7.517522  
	 671A      7.581627   672A      7.625032   673A      7.694755  
	 674A      7.812857   675A      7.820348   676A      7.925500  
	 677A      8.028392   678A      8.127845   679A      8.331732  
	 680A      8.599278   681A     15.636635   682A     16.061816  
	 683A     16.113569   684A     16.364070   685A     17.764965  
	 686A     19.537768   687A     19.581186   688A     19.602584  
	 689A     19.958674   690A     20.214926  

	Final Occupation by Irrep:
	          A 
	DOCC [    37 ]

  Energy converged.

  @RHF Final Energy:  -458.68640585275057

   => Energetics <=

    Nuclear Repulsion Energy =            492.7964410520339698
    One-Electron Energy =               -1601.5688744382509867
    Two-Electron Energy =                 650.0860275334674725
    DFT Exchange-Correlation Energy =       0.0000000000000000
    Empirical Dispersion Energy =           0.0000000000000000
    Total Energy =                       -458.6864058527495445



Properties will be evaluated at   0.000000,   0.000000,   0.000000 Bohr
  ==> Properties <==


Properties computed using the SCF density density matrix
  Nuclear Dipole Moment: (a.u.)
     X:     0.8579      Y:    -1.8796      Z:     2.0492

  Electronic Dipole Moment: (a.u.)
     X:    -0.5758      Y:     1.2240      Z:    -2.0294

  Dipole Moment: (a.u.)
     X:     0.2821      Y:    -0.6556      Z:     0.0198     Total:     0.7140

  Dipole Moment: (Debye)
     X:     0.7170      Y:    -1.6664      Z:     0.0503     Total:     1.8148


  Saving occupied orbitals to File 180.

  Saving SAPT 2-DIMER file.

*** tstop() called on node33.bme.utexas.edu at Mon Oct 28 11:44:21 2013
Module time:
	user time   =    1194.66 seconds =      19.91 minutes
	system time =      12.36 seconds =       0.21 minutes
	total time  =        225 seconds =       3.75 minutes
Total time:
	user time   =    1194.66 seconds =      19.91 minutes
	system time =      12.36 seconds =       0.21 minutes
	total time  =        225 seconds =       3.75 minutes

  //>>>>>>>>>>>>>>>>>>>>>>>>>>>>>>>>>>>//
  //            Monomer A HF           //
  //<<<<<<<<<<<<<<<<<<<<<<<<<<<<<<<<<<<//


  No DF_BASIS_SCF auxiliary basis selected, defaulting to aug-cc-pvtz-jkfit


*** tstart() called on node33.bme.utexas.edu
*** at Mon Oct 28 11:44:21 2013


         ---------------------------------------------------------
                                   SCF
            by Justin Turney, Rob Parrish, and Andy Simmonett
                              RHF Reference
                        6 Threads,  20000 MiB Core
         ---------------------------------------------------------

  ==> Geometry <==

    Molecular point group: c1
    Full point group: C1

    Geometry (in Angstrom), charge = 0, multiplicity = 1:

       Center              X                  Y                   Z       
    ------------   -----------------  -----------------  -----------------
           C          0.963778540672     0.784478397143    -1.648036578328
           H          1.659527764672     1.609315912143    -1.580007941328
           C          1.430755240672    -0.503748347857    -1.907058697328
           H          2.489222682672    -0.677824078857    -2.043062830328
           C          0.533825813672    -1.568253808857    -1.983632663328
           H          0.896659446672    -2.568003296857    -2.178062204328
           C         -0.830628666328    -1.344218996857    -1.805194104328
           H         -1.526061854328    -2.170239264857    -1.861933670328
           C         -1.297888997328    -0.056202300857    -1.545807588328
           H         -2.354697917328     0.117401205143    -1.397489259328
           C         -0.400746932328     1.009164299143    -1.464448847328
           H         -0.760756982328     2.003153887143    -1.241293236328
           C(Gh)     -0.128474748328     0.460534750143     2.221429797672
           O(Gh)     -0.596664342328     1.509981373143     1.842169412672
           O(Gh)      0.274737829672    -0.517028515857     1.382144537672
           H(Gh)      0.106033008672    -0.191114930857     0.480739283672
           C(Gh)      0.081479551672     0.063547664143     3.652835588672
           H(Gh)     -0.228486599328     0.872884247143     4.302824475672
           H(Gh)     -0.494601176328    -0.833076309857     3.869786702672
           H(Gh)      1.129976972672    -0.172584421857     3.817854172672

  Running in c1 symmetry.

  Nuclear repulsion =  203.605875432246364

  Charge       = 0
  Multiplicity = 1
  Electrons    = 42
  Nalpha       = 21
  Nbeta        = 21

  ==> Algorithm <==

  SCF Algorithm Type is DF.
  DIIS enabled.
  MOM disabled.
  Fractional occupation disabled.
  Guess Type is CORE.
  Energy threshold   = 1.00e-08
  Density threshold  = 1.00e-08
  Integral threshold = 0.00e+00

  ==> Primary Basis <==

  Basis Set: AUG-CC-PVTZ
    Number of shells: 230
    Number of basis function: 690
    Number of Cartesian functions: 800
    Spherical Harmonics?: true
    Max angular momentum: 3

  ==> Pre-Iterations <==

   -------------------------------------------------------
    Irrep   Nso     Nmo     Nalpha   Nbeta   Ndocc  Nsocc
   -------------------------------------------------------
     A        690     690       0       0       0       0
   -------------------------------------------------------
    Total     690     690      21      21      21       0
   -------------------------------------------------------

 OEINTS: Wrapper to libmints.
   by Justin Turney

   Calculation information:
      Number of atoms:                  20
      Number of AO shells:             230
      Number of SO shells:             230
      Number of primitives:            410
      Number of atomic orbitals:       800
      Number of basis functions:       690

      Number of irreps:                  1
      Number of functions per irrep: [ 690 ]

      Overlap, kinetic, potential, dipole, and quadrupole integrals
        stored in file 35.

  ==> Integral Setup <==

  ==> DFJK: Density-Fitted J/K Matrices <==

    J tasked:                  Yes
    K tasked:                  Yes
    wK tasked:                  No
    OpenMP threads:              6
    Integrals threads:           6
    Memory (MB):             14305
    Algorithm:                Core
    Integral Cache:           LOAD
    Schwarz Cutoff:          0E+00
    Fitting Condition:       1E-12

   => Auxiliary Basis Set <=

  Basis Set: aug-cc-pvtz-jkfit
    Number of shells: 440
    Number of basis function: 1500
    Number of Cartesian functions: 1860
    Spherical Harmonics?: true
    Max angular momentum: 4

  Minimum eigenvalue in the overlap matrix is 2.8052275417E-07.
  Using Symmetric Orthogonalization.
  SCF Guess: Core (One-Electron) Hamiltonian.

  Guess energy:  -182.17402755392158

  ==> Iterations <==

                        Total Energy        Delta E     RMS |[F,P]|

   @RHF iter   1:  -182.86478802405003   -1.82865e+02   1.42162e-02 
   @RHF iter   2:  -169.43441993559873    1.34304e+01   7.13709e-03 DIIS
   @RHF iter   3:  -220.38304510319239   -5.09486e+01   5.99039e-03 DIIS
   @RHF iter   4:  -228.80412923257745   -8.42108e+00   2.59920e-03 DIIS
   @RHF iter   5:  -230.25054875224475   -1.44642e+00   1.36558e-03 DIIS
   @RHF iter   6:  -230.67509284675191   -4.24544e-01   5.97869e-04 DIIS
   @RHF iter   7:  -230.77710540256658   -1.02013e-01   1.01923e-04 DIIS
   @RHF iter   8:  -230.78118648392513   -4.08108e-03   2.20148e-05 DIIS
   @RHF iter   9:  -230.78137533971727   -1.88856e-04   7.33985e-06 DIIS
   @RHF iter  10:  -230.78139568301219   -2.03433e-05   1.76721e-06 DIIS
   @RHF iter  11:  -230.78139760112231   -1.91811e-06   7.97133e-07 DIIS
   @RHF iter  12:  -230.78139796069388   -3.59572e-07   3.69339e-07 DIIS
   @RHF iter  13:  -230.78139811853242   -1.57839e-07   1.76552e-07 DIIS
   @RHF iter  14:  -230.78139815869656   -4.01641e-08   7.56220e-08 DIIS
   @RHF iter  15:  -230.78139816557416   -6.87760e-09   1.59779e-08 DIIS
   @RHF iter  16:  -230.78139816578033   -2.06171e-10   4.86160e-09 DIIS

  ==> Post-Iterations <==

	Orbital Energies (a.u.)
	-----------------------

	Doubly Occupied:                                                      

	   1A    -11.236462     2A    -11.235895     3A    -11.235875  
	   4A    -11.234651     5A    -11.234639     6A    -11.234037  
	   7A     -1.149933     8A     -1.014682     9A     -1.014524  
	  10A     -0.824130    11A     -0.824090    12A     -0.709579  
	  13A     -0.644520    14A     -0.618822    15A     -0.588250  
	  16A     -0.587963    17A     -0.502095    18A     -0.495195  
	  19A     -0.494724    20A     -0.336665    21A     -0.336633  

	Virtual:                                                              

	  22A      0.022367    23A      0.032748    24A      0.033552  
	  25A      0.035375    26A      0.046833    27A      0.047908  
	  28A      0.052741    29A      0.053851    30A      0.062844  
	  31A      0.064586    32A      0.087226    33A      0.094383  
	  34A      0.096422    35A      0.100193    36A      0.101411  
	  37A      0.106801    38A      0.110255    39A      0.113800  
	  40A      0.121770    41A      0.123916    42A      0.126411  
	  43A      0.127242    44A      0.129223    45A      0.130549  
	  46A      0.135851    47A      0.141380    48A      0.144908  
	  49A      0.146053    50A      0.154283    51A      0.155470  
	  52A      0.157612    53A      0.158855    54A      0.160716  
	  55A      0.161510    56A      0.177977    57A      0.181890  
	  58A      0.201265    59A      0.204492    60A      0.213591  
	  61A      0.219069    62A      0.224055    63A      0.230407  
	  64A      0.231170    65A      0.235263    66A      0.244930  
	  67A      0.248529    68A      0.253772    69A      0.258478  
	  70A      0.259706    71A      0.265673    72A      0.271585  
	  73A      0.281815    74A      0.287361    75A      0.297048  
	  76A      0.299936    77A      0.302465    78A      0.306219  
	  79A      0.312513    80A      0.314812    81A      0.315212  
	  82A      0.317764    83A      0.324077    84A      0.330309  
	  85A      0.338797    86A      0.342792    87A      0.346310  
	  88A      0.347613    89A      0.354071    90A      0.356325  
	  91A      0.359937    92A      0.361998    93A      0.378453  
	  94A      0.379779    95A      0.385210    96A      0.386645  
	  97A      0.397015    98A      0.399441    99A      0.401172  
	 100A      0.415372   101A      0.416565   102A      0.426365  
	 103A      0.436567   104A      0.439306   105A      0.444414  
	 106A      0.446130   107A      0.449829   108A      0.458842  
	 109A      0.461409   110A      0.464904   111A      0.470111  
	 112A      0.473911   113A      0.479737   114A      0.486755  
	 115A      0.488254   116A      0.489183   117A      0.491916  
	 118A      0.492168   119A      0.500377   120A      0.503471  
	 121A      0.507480   122A      0.510640   123A      0.515778  
	 124A      0.522173   125A      0.526365   126A      0.532008  
	 127A      0.535524   128A      0.536875   129A      0.540981  
	 130A      0.543776   131A      0.546059   132A      0.549683  
	 133A      0.556368   134A      0.566377   135A      0.573777  
	 136A      0.577549   137A      0.579203   138A      0.588428  
	 139A      0.596291   140A      0.616310   141A      0.623039  
	 142A      0.628599   143A      0.638939   144A      0.639915  
	 145A      0.645401   146A      0.656645   147A      0.661619  
	 148A      0.662218   149A      0.667690   150A      0.672856  
	 151A      0.681198   152A      0.683203   153A      0.685478  
	 154A      0.688551   155A      0.700894   156A      0.701492  
	 157A      0.703113   158A      0.713310   159A      0.722220  
	 160A      0.723723   161A      0.737733   162A      0.742744  
	 163A      0.746255   164A      0.759700   165A      0.768711  
	 166A      0.787274   167A      0.794397   168A      0.797993  
	 169A      0.801258   170A      0.804773   171A      0.813690  
	 172A      0.823454   173A      0.834559   174A      0.842714  
	 175A      0.853101   176A      0.855944   177A      0.859887  
	 178A      0.865435   179A      0.868137   180A      0.880127  
	 181A      0.888907   182A      0.892147   183A      0.897178  
	 184A      0.899541   185A      0.903961   186A      0.915425  
	 187A      0.921302   188A      0.929472   189A      0.931197  
	 190A      0.934321   191A      0.938421   192A      0.942485  
	 193A      0.949617   194A      0.956606   195A      0.966720  
	 196A      0.971348   197A      0.987185   198A      0.989686  
	 199A      0.991550   200A      0.996649   201A      1.002442  
	 202A      1.005842   203A      1.009883   204A      1.020496  
	 205A      1.037353   206A      1.046705   207A      1.049549  
	 208A      1.062704   209A      1.072121   210A      1.074124  
	 211A      1.081911   212A      1.088233   213A      1.090664  
	 214A      1.095229   215A      1.100238   216A      1.102080  
	 217A      1.104589   218A      1.110126   219A      1.114624  
	 220A      1.116131   221A      1.123300   222A      1.125737  
	 223A      1.131416   224A      1.139132   225A      1.141633  
	 226A      1.145150   227A      1.151033   228A      1.158043  
	 229A      1.162260   230A      1.173996   231A      1.179366  
	 232A      1.182206   233A      1.182836   234A      1.188651  
	 235A      1.198287   236A      1.200356   237A      1.202071  
	 238A      1.206189   239A      1.212265   240A      1.219958  
	 241A      1.223038   242A      1.236828   243A      1.247978  
	 244A      1.253792   245A      1.255410   246A      1.260202  
	 247A      1.264635   248A      1.269652   249A      1.278032  
	 250A      1.278633   251A      1.280597   252A      1.285241  
	 253A      1.292825   254A      1.307345   255A      1.313332  
	 256A      1.314324   257A      1.320992   258A      1.324771  
	 259A      1.338577   260A      1.345763   261A      1.358282  
	 262A      1.370104   263A      1.376195   264A      1.379648  
	 265A      1.390487   266A      1.391401   267A      1.400112  
	 268A      1.400885   269A      1.402969   270A      1.425639  
	 271A      1.433022   272A      1.439648   273A      1.443350  
	 274A      1.447055   275A      1.456542   276A      1.459022  
	 277A      1.486797   278A      1.498787   279A      1.499502  
	 280A      1.505779   281A      1.514349   282A      1.517100  
	 283A      1.523322   284A      1.526623   285A      1.533163  
	 286A      1.553339   287A      1.564092   288A      1.585872  
	 289A      1.587541   290A      1.599338   291A      1.630184  
	 292A      1.641756   293A      1.663022   294A      1.668618  
	 295A      1.687227   296A      1.702918   297A      1.706469  
	 298A      1.710682   299A      1.725687   300A      1.731220  
	 301A      1.742427   302A      1.747116   303A      1.762962  
	 304A      1.763375   305A      1.768868   306A      1.776249  
	 307A      1.777469   308A      1.791701   309A      1.796917  
	 310A      1.814051   311A      1.815455   312A      1.820909  
	 313A      1.832240   314A      1.843819   315A      1.849229  
	 316A      1.855116   317A      1.868119   318A      1.880519  
	 319A      1.884968   320A      1.892063   321A      1.900897  
	 322A      1.907838   323A      1.918114   324A      1.925151  
	 325A      1.927378   326A      1.953177   327A      1.966110  
	 328A      1.976285   329A      1.985892   330A      1.993389  
	 331A      2.002450   332A      2.005802   333A      2.016564  
	 334A      2.019784   335A      2.034422   336A      2.039876  
	 337A      2.041197   338A      2.052528   339A      2.053570  
	 340A      2.058686   341A      2.061738   342A      2.064093  
	 343A      2.074127   344A      2.092562   345A      2.094126  
	 346A      2.097589   347A      2.103308   348A      2.117868  
	 349A      2.135703   350A      2.147764   351A      2.152666  
	 352A      2.156473   353A      2.161662   354A      2.185273  
	 355A      2.188869   356A      2.200111   357A      2.209672  
	 358A      2.212343   359A      2.237586   360A      2.251525  
	 361A      2.281668   362A      2.286821   363A      2.297174  
	 364A      2.304268   365A      2.333744   366A      2.342741  
	 367A      2.347186   368A      2.352222   369A      2.360417  
	 370A      2.375056   371A      2.395521   372A      2.400663  
	 373A      2.412506   374A      2.416211   375A      2.420264  
	 376A      2.463726   377A      2.468072   378A      2.481182  
	 379A      2.482702   380A      2.509048   381A      2.527893  
	 382A      2.530465   383A      2.531820   384A      2.581773  
	 385A      2.583713   386A      2.591026   387A      2.596701  
	 388A      2.605076   389A      2.619177   390A      2.626070  
	 391A      2.666594   392A      2.683030   393A      2.700230  
	 394A      2.710411   395A      2.724031   396A      2.734208  
	 397A      2.750360   398A      2.757875   399A      2.774131  
	 400A      2.790682   401A      2.803784   402A      2.807745  
	 403A      2.831132   404A      2.850810   405A      2.861299  
	 406A      2.872123   407A      2.883163   408A      2.897091  
	 409A      2.914675   410A      2.923490   411A      2.938433  
	 412A      2.989341   413A      2.995729   414A      3.029025  
	 415A      3.041899   416A      3.082179   417A      3.092013  
	 418A      3.154218   419A      3.158652   420A      3.168275  
	 421A      3.179233   422A      3.228204   423A      3.241931  
	 424A      3.262049   425A      3.280378   426A      3.317042  
	 427A      3.329589   428A      3.343174   429A      3.347646  
	 430A      3.383624   431A      3.387120   432A      3.399016  
	 433A      3.417425   434A      3.419424   435A      3.433779  
	 436A      3.445140   437A      3.473179   438A      3.479222  
	 439A      3.485215   440A      3.500840   441A      3.512835  
	 442A      3.529935   443A      3.542322   444A      3.556875  
	 445A      3.564954   446A      3.579666   447A      3.615758  
	 448A      3.620843   449A      3.629516   450A      3.641311  
	 451A      3.658692   452A      3.669730   453A      3.678743  
	 454A      3.691451   455A      3.694993   456A      3.720245  
	 457A      3.728694   458A      3.752944   459A      3.759965  
	 460A      3.768334   461A      3.783585   462A      3.801061  
	 463A      3.805160   464A      3.823872   465A      3.846115  
	 466A      3.847492   467A      3.861974   468A      3.869091  
	 469A      3.883767   470A      3.889157   471A      3.896179  
	 472A      3.900450   473A      3.937761   474A      3.950314  
	 475A      3.969067   476A      3.987202   477A      3.990970  
	 478A      4.003524   479A      4.006328   480A      4.011184  
	 481A      4.020574   482A      4.051698   483A      4.053068  
	 484A      4.067089   485A      4.071154   486A      4.077862  
	 487A      4.084724   488A      4.085165   489A      4.105967  
	 490A      4.110692   491A      4.130508   492A      4.132337  
	 493A      4.145228   494A      4.152920   495A      4.161280  
	 496A      4.166677   497A      4.176677   498A      4.178473  
	 499A      4.190242   500A      4.208159   501A      4.216422  
	 502A      4.244942   503A      4.247971   504A      4.278169  
	 505A      4.296567   506A      4.305198   507A      4.307925  
	 508A      4.348429   509A      4.359464   510A      4.372351  
	 511A      4.385725   512A      4.390560   513A      4.396157  
	 514A      4.429566   515A      4.436471   516A      4.438372  
	 517A      4.443098   518A      4.446124   519A      4.456191  
	 520A      4.466972   521A      4.468195   522A      4.476065  
	 523A      4.484918   524A      4.490195   525A      4.512742  
	 526A      4.515048   527A      4.529908   528A      4.555565  
	 529A      4.586714   530A      4.598235   531A      4.607502  
	 532A      4.611424   533A      4.648571   534A      4.670098  
	 535A      4.698413   536A      4.705544   537A      4.723799  
	 538A      4.731022   539A      4.747926   540A      4.749711  
	 541A      4.759792   542A      4.791362   543A      4.800961  
	 544A      4.805394   545A      4.820433   546A      4.837129  
	 547A      4.885959   548A      4.889285   549A      4.891274  
	 550A      4.915966   551A      4.930801   552A      4.947609  
	 553A      4.951667   554A      4.992045   555A      5.012119  
	 556A      5.018646   557A      5.041093   558A      5.042488  
	 559A      5.052315   560A      5.081951   561A      5.090892  
	 562A      5.096763   563A      5.099253   564A      5.115857  
	 565A      5.135970   566A      5.144163   567A      5.161619  
	 568A      5.172006   569A      5.184583   570A      5.186423  
	 571A      5.195772   572A      5.209341   573A      5.218723  
	 574A      5.235863   575A      5.241918   576A      5.261023  
	 577A      5.278207   578A      5.302685   579A      5.345476  
	 580A      5.346477   581A      5.354021   582A      5.364397  
	 583A      5.376348   584A      5.389743   585A      5.411917  
	 586A      5.441888   587A      5.446748   588A      5.452703  
	 589A      5.459621   590A      5.471321   591A      5.490758  
	 592A      5.498768   593A      5.519627   594A      5.530583  
	 595A      5.562446   596A      5.578875   597A      5.585310  
	 598A      5.588846   599A      5.662650   600A      5.707047  
	 601A      5.750727   602A      5.766346   603A      5.778454  
	 604A      5.797263   605A      5.800080   606A      5.861441  
	 607A      5.890195   608A      5.939666   609A      5.982128  
	 610A      5.986071   611A      6.017980   612A      6.113188  
	 613A      6.225335   614A      6.225661   615A      6.230304  
	 616A      6.241559   617A      6.255086   618A      6.275205  
	 619A      6.278758   620A      6.286921   621A      6.348399  
	 622A      6.389672   623A      6.401938   624A      6.410772  
	 625A      6.465711   626A      6.544082   627A      6.668407  
	 628A      6.678830   629A      6.724558   630A      6.809254  
	 631A      6.880995   632A      6.884809   633A      6.932122  
	 634A      7.030608   635A      7.152338   636A      7.228293  
	 637A      7.229484   638A      7.262477   639A      7.443009  
	 640A      7.491505   641A      7.607755   642A      7.680548  
	 643A      7.803677   644A      7.841593   645A      7.852075  
	 646A      7.878460   647A      7.890351   648A      7.940660  
	 649A      8.010021   650A      8.093432   651A      8.195757  
	 652A      8.249542   653A      8.299953   654A      8.319167  
	 655A      8.396409   656A      8.409023   657A      8.620827  
	 658A      8.957772   659A      9.114393   660A      9.231609  
	 661A      9.700110   662A      9.939038   663A      9.978854  
	 664A     10.031407   665A     10.090026   666A     10.163996  
	 667A     10.292511   668A     10.420883   669A     10.445144  
	 670A     10.609323   671A     11.006258   672A     11.140749  
	 673A     11.913942   674A     12.035284   675A     12.179467  
	 676A     12.662099   677A     13.131276   678A     13.591275  
	 679A     14.083298   680A     14.409766   681A     16.122127  
	 682A     16.173669   683A     19.575627   684A     19.606467  
	 685A     19.620053   686A     20.216160   687A     51.708411  
	 688A     54.075330   689A     65.493059   690A     69.756818  

	Final Occupation by Irrep:
	          A 
	DOCC [    21 ]

  Energy converged.

  @RHF Final Energy:  -230.78139816578033

   => Energetics <=

    Nuclear Repulsion Energy =            203.6058754322463642
    One-Electron Energy =                -713.6678240420677639
    Two-Electron Energy =                 279.2805504440421487
    DFT Exchange-Correlation Energy =       0.0000000000000000
    Empirical Dispersion Energy =           0.0000000000000000
    Total Energy =                       -230.7813981657792510



Properties will be evaluated at   0.000000,   0.000000,   0.000000 Bohr
  ==> Properties <==


Properties computed using the SCF density density matrix
  Nuclear Dipole Moment: (a.u.)
     X:     5.2883      Y:   -22.2211      Z:  -136.8670

  Electronic Dipole Moment: (a.u.)
     X:    -5.2869      Y:    22.2190      Z:   136.8814

  Dipole Moment: (a.u.)
     X:     0.0014      Y:    -0.0021      Z:     0.0144     Total:     0.0146

  Dipole Moment: (Debye)
     X:     0.0035      Y:    -0.0053      Z:     0.0366     Total:     0.0371


  Saving occupied orbitals to File 180.

  Saving SAPT 2-MONOMER_A file.

*** tstop() called on node33.bme.utexas.edu at Mon Oct 28 11:46:34 2013
Module time:
	user time   =     729.25 seconds =      12.15 minutes
	system time =       7.05 seconds =       0.12 minutes
	total time  =        133 seconds =       2.22 minutes
Total time:
	user time   =    1923.94 seconds =      32.07 minutes
	system time =      19.41 seconds =       0.32 minutes
	total time  =        358 seconds =       5.97 minutes

  //>>>>>>>>>>>>>>>>>>>>>>>>>>>>>>>>>>>//
  //            Monomer B HF           //
  //<<<<<<<<<<<<<<<<<<<<<<<<<<<<<<<<<<<//


  No DF_BASIS_SCF auxiliary basis selected, defaulting to aug-cc-pvtz-jkfit


*** tstart() called on node33.bme.utexas.edu
*** at Mon Oct 28 11:46:34 2013


         ---------------------------------------------------------
                                   SCF
            by Justin Turney, Rob Parrish, and Andy Simmonett
                              RHF Reference
                        6 Threads,  20000 MiB Core
         ---------------------------------------------------------

  ==> Geometry <==

    Molecular point group: c1
    Full point group: C1

    Geometry (in Angstrom), charge = 0, multiplicity = 1:

       Center              X                  Y                   Z       
    ------------   -----------------  -----------------  -----------------
           C(Gh)      0.963778540672     0.784478397143    -1.648036578328
           H(Gh)      1.659527764672     1.609315912143    -1.580007941328
           C(Gh)      1.430755240672    -0.503748347857    -1.907058697328
           H(Gh)      2.489222682672    -0.677824078857    -2.043062830328
           C(Gh)      0.533825813672    -1.568253808857    -1.983632663328
           H(Gh)      0.896659446672    -2.568003296857    -2.178062204328
           C(Gh)     -0.830628666328    -1.344218996857    -1.805194104328
           H(Gh)     -1.526061854328    -2.170239264857    -1.861933670328
           C(Gh)     -1.297888997328    -0.056202300857    -1.545807588328
           H(Gh)     -2.354697917328     0.117401205143    -1.397489259328
           C(Gh)     -0.400746932328     1.009164299143    -1.464448847328
           H(Gh)     -0.760756982328     2.003153887143    -1.241293236328
           C         -0.128474748328     0.460534750143     2.221429797672
           O         -0.596664342328     1.509981373143     1.842169412672
           O          0.274737829672    -0.517028515857     1.382144537672
           H          0.106033008672    -0.191114930857     0.480739283672
           C          0.081479551672     0.063547664143     3.652835588672
           H         -0.228486599328     0.872884247143     4.302824475672
           H         -0.494601176328    -0.833076309857     3.869786702672
           H          1.129976972672    -0.172584421857     3.817854172672

  Running in c1 symmetry.

  Nuclear repulsion =  121.226808059795530

  Charge       = 0
  Multiplicity = 1
  Electrons    = 32
  Nalpha       = 16
  Nbeta        = 16

  ==> Algorithm <==

  SCF Algorithm Type is DF.
  DIIS enabled.
  MOM disabled.
  Fractional occupation disabled.
  Guess Type is CORE.
  Energy threshold   = 1.00e-08
  Density threshold  = 1.00e-08
  Integral threshold = 0.00e+00

  ==> Primary Basis <==

  Basis Set: AUG-CC-PVTZ
    Number of shells: 230
    Number of basis function: 690
    Number of Cartesian functions: 800
    Spherical Harmonics?: true
    Max angular momentum: 3

  ==> Pre-Iterations <==

   -------------------------------------------------------
    Irrep   Nso     Nmo     Nalpha   Nbeta   Ndocc  Nsocc
   -------------------------------------------------------
     A        690     690       0       0       0       0
   -------------------------------------------------------
    Total     690     690      16      16      16       0
   -------------------------------------------------------

 OEINTS: Wrapper to libmints.
   by Justin Turney

   Calculation information:
      Number of atoms:                  20
      Number of AO shells:             230
      Number of SO shells:             230
      Number of primitives:            410
      Number of atomic orbitals:       800
      Number of basis functions:       690

      Number of irreps:                  1
      Number of functions per irrep: [ 690 ]

      Overlap, kinetic, potential, dipole, and quadrupole integrals
        stored in file 35.

  ==> Integral Setup <==

  ==> DFJK: Density-Fitted J/K Matrices <==

    J tasked:                  Yes
    K tasked:                  Yes
    wK tasked:                  No
    OpenMP threads:              6
    Integrals threads:           6
    Memory (MB):             14305
    Algorithm:                Core
    Integral Cache:           LOAD
    Schwarz Cutoff:          0E+00
    Fitting Condition:       1E-12

   => Auxiliary Basis Set <=

  Basis Set: aug-cc-pvtz-jkfit
    Number of shells: 440
    Number of basis function: 1500
    Number of Cartesian functions: 1860
    Spherical Harmonics?: true
    Max angular momentum: 4

  Minimum eigenvalue in the overlap matrix is 2.8052275417E-07.
  Using Symmetric Orthogonalization.
  SCF Guess: Core (One-Electron) Hamiltonian.

  Guess energy:  -183.22490814647006

  ==> Iterations <==

                        Total Energy        Delta E     RMS |[F,P]|

   @RHF iter   1:  -170.73420343943820   -1.70734e+02   1.90497e-02 
   @RHF iter   2:  -144.78589104937100    2.59483e+01   1.13719e-02 DIIS
   @RHF iter   3:  -199.89718142888267   -5.51113e+01   8.34264e-03 DIIS
   @RHF iter   4:  -224.53959267962239   -2.46424e+01   3.87708e-03 DIIS
   @RHF iter   5:  -227.28549753419304   -2.74590e+00   1.85840e-03 DIIS
   @RHF iter   6:  -227.85755557342884   -5.72058e-01   4.66800e-04 DIIS
   @RHF iter   7:  -227.89643128220609   -3.88757e-02   1.81013e-04 DIIS
   @RHF iter   8:  -227.90401984885199   -7.58857e-03   5.04552e-05 DIIS
   @RHF iter   9:  -227.90517933626563   -1.15949e-03   1.49698e-05 DIIS
   @RHF iter  10:  -227.90534983045012   -1.70494e-04   5.48636e-06 DIIS
   @RHF iter  11:  -227.90536912302645   -1.92926e-05   1.93897e-06 DIIS
   @RHF iter  12:  -227.90537149367037   -2.37064e-06   6.24752e-07 DIIS
   @RHF iter  13:  -227.90537173346900   -2.39799e-07   1.84713e-07 DIIS
   @RHF iter  14:  -227.90537175276017   -1.92912e-08   4.45064e-08 DIIS
   @RHF iter  15:  -227.90537175393263   -1.17245e-09   1.34531e-08 DIIS
   @RHF iter  16:  -227.90537175403637   -1.03739e-10   3.76336e-09 DIIS

  ==> Post-Iterations <==

	Orbital Energies (a.u.)
	-----------------------

	Doubly Occupied:                                                      

	   1A    -20.617764     2A    -20.551959     3A    -11.390860  
	   4A    -11.245414     5A     -1.467670     6A     -1.363013  
	   7A     -1.029756     8A     -0.825859     9A     -0.707930  
	  10A     -0.682252    11A     -0.653221    12A     -0.585864  
	  13A     -0.574915    14A     -0.563664    15A     -0.485153  
	  16A     -0.456658  

	Virtual:                                                              

	  17A      0.017398    18A      0.030731    19A      0.030846  
	  20A      0.034887    21A      0.048872    22A      0.049602  
	  23A      0.050546    24A      0.053590    25A      0.062609  
	  26A      0.066906    27A      0.068375    28A      0.089231  
	  29A      0.093421    30A      0.094232    31A      0.099929  
	  32A      0.101008    33A      0.112015    34A      0.118315  
	  35A      0.120656    36A      0.124425    37A      0.125932  
	  38A      0.129525    39A      0.137199    40A      0.139906  
	  41A      0.142314    42A      0.143208    43A      0.145486  
	  44A      0.149494    45A      0.154451    46A      0.159833  
	  47A      0.160442    48A      0.162337    49A      0.164492  
	  50A      0.169662    51A      0.183884    52A      0.188980  
	  53A      0.192906    54A      0.193407    55A      0.200539  
	  56A      0.204439    57A      0.213724    58A      0.226470  
	  59A      0.235475    60A      0.235559    61A      0.236664  
	  62A      0.243589    63A      0.252394    64A      0.261054  
	  65A      0.266027    66A      0.267586    67A      0.272325  
	  68A      0.285101    69A      0.288399    70A      0.291667  
	  71A      0.300684    72A      0.307973    73A      0.315799  
	  74A      0.316974    75A      0.317754    76A      0.326458  
	  77A      0.330751    78A      0.331136    79A      0.338235  
	  80A      0.338409    81A      0.345363    82A      0.348369  
	  83A      0.349035    84A      0.351797    85A      0.360448  
	  86A      0.363219    87A      0.368354    88A      0.369562  
	  89A      0.375407    90A      0.386772    91A      0.391716  
	  92A      0.397223    93A      0.399221    94A      0.401400  
	  95A      0.408219    96A      0.412460    97A      0.418977  
	  98A      0.422386    99A      0.426230   100A      0.429633  
	 101A      0.430111   102A      0.433990   103A      0.441418  
	 104A      0.443870   105A      0.456626   106A      0.462633  
	 107A      0.465856   108A      0.467407   109A      0.477371  
	 110A      0.478618   111A      0.481871   112A      0.483589  
	 113A      0.492377   114A      0.498800   115A      0.508474  
	 116A      0.513170   117A      0.516491   118A      0.519938  
	 119A      0.522567   120A      0.532396   121A      0.540772  
	 122A      0.544744   123A      0.550170   124A      0.563020  
	 125A      0.566543   126A      0.571609   127A      0.578545  
	 128A      0.582256   129A      0.587636   130A      0.593639  
	 131A      0.596238   132A      0.603918   133A      0.604957  
	 134A      0.614639   135A      0.617763   136A      0.620304  
	 137A      0.641150   138A      0.649508   139A      0.650719  
	 140A      0.655577   141A      0.663267   142A      0.663697  
	 143A      0.670185   144A      0.675521   145A      0.676757  
	 146A      0.683648   147A      0.697877   148A      0.701841  
	 149A      0.706580   150A      0.710325   151A      0.711442  
	 152A      0.713126   153A      0.727976   154A      0.739900  
	 155A      0.742721   156A      0.747144   157A      0.748303  
	 158A      0.752617   159A      0.754679   160A      0.761436  
	 161A      0.767139   162A      0.771125   163A      0.776801  
	 164A      0.777322   165A      0.796063   166A      0.806236  
	 167A      0.809156   168A      0.811086   169A      0.820533  
	 170A      0.826157   171A      0.831935   172A      0.844709  
	 173A      0.853767   174A      0.856934   175A      0.870208  
	 176A      0.877868   177A      0.884829   178A      0.885203  
	 179A      0.891894   180A      0.893018   181A      0.906058  
	 182A      0.909077   183A      0.920641   184A      0.925885  
	 185A      0.938323   186A      0.942131   187A      0.950084  
	 188A      0.959187   189A      0.965307   190A      0.973947  
	 191A      0.999157   192A      1.000491   193A      1.006544  
	 194A      1.019812   195A      1.022988   196A      1.024242  
	 197A      1.029721   198A      1.038170   199A      1.041176  
	 200A      1.046199   201A      1.052482   202A      1.057653  
	 203A      1.064222   204A      1.073097   205A      1.081302  
	 206A      1.082731   207A      1.094109   208A      1.098432  
	 209A      1.105125   210A      1.112607   211A      1.120247  
	 212A      1.124059   213A      1.140214   214A      1.142376  
	 215A      1.143615   216A      1.149916   217A      1.160458  
	 218A      1.163547   219A      1.173060   220A      1.176484  
	 221A      1.178933   222A      1.182746   223A      1.198860  
	 224A      1.201665   225A      1.211007   226A      1.212234  
	 227A      1.219209   228A      1.221337   229A      1.226553  
	 230A      1.237046   231A      1.241573   232A      1.243892  
	 233A      1.256457   234A      1.262092   235A      1.264608  
	 236A      1.265732   237A      1.272793   238A      1.281136  
	 239A      1.282082   240A      1.284133   241A      1.294915  
	 242A      1.304138   243A      1.305968   244A      1.309534  
	 245A      1.313557   246A      1.319774   247A      1.327221  
	 248A      1.331445   249A      1.338837   250A      1.342639  
	 251A      1.358878   252A      1.362238   253A      1.365961  
	 254A      1.371725   255A      1.377047   256A      1.383369  
	 257A      1.386096   258A      1.408219   259A      1.413248  
	 260A      1.422444   261A      1.422976   262A      1.443909  
	 263A      1.447684   264A      1.456577   265A      1.462709  
	 266A      1.473567   267A      1.480509   268A      1.489054  
	 269A      1.497666   270A      1.507683   271A      1.521330  
	 272A      1.536307   273A      1.539889   274A      1.544468  
	 275A      1.546738   276A      1.558673   277A      1.561611  
	 278A      1.570532   279A      1.577784   280A      1.584411  
	 281A      1.593812   282A      1.597994   283A      1.608768  
	 284A      1.617303   285A      1.622089   286A      1.623561  
	 287A      1.628012   288A      1.638576   289A      1.643644  
	 290A      1.645943   291A      1.649953   292A      1.657431  
	 293A      1.665152   294A      1.668995   295A      1.677746  
	 296A      1.681711   297A      1.689683   298A      1.690839  
	 299A      1.693704   300A      1.714756   301A      1.730779  
	 302A      1.751531   303A      1.763624   304A      1.778321  
	 305A      1.780615   306A      1.791862   307A      1.801780  
	 308A      1.811522   309A      1.822429   310A      1.831705  
	 311A      1.849155   312A      1.852643   313A      1.853484  
	 314A      1.878459   315A      1.896530   316A      1.900309  
	 317A      1.903423   318A      1.908337   319A      1.918802  
	 320A      1.927805   321A      1.930036   322A      1.947815  
	 323A      1.968685   324A      1.977659   325A      1.985108  
	 326A      2.003896   327A      2.004609   328A      2.027332  
	 329A      2.030434   330A      2.044242   331A      2.055459  
	 332A      2.080724   333A      2.101619   334A      2.116563  
	 335A      2.119159   336A      2.139291   337A      2.145099  
	 338A      2.155272   339A      2.163158   340A      2.165964  
	 341A      2.175045   342A      2.190064   343A      2.191760  
	 344A      2.203136   345A      2.210053   346A      2.210810  
	 347A      2.228964   348A      2.231221   349A      2.235522  
	 350A      2.243025   351A      2.266099   352A      2.275574  
	 353A      2.279227   354A      2.286101   355A      2.318588  
	 356A      2.321455   357A      2.326421   358A      2.342326  
	 359A      2.350648   360A      2.360508   361A      2.365800  
	 362A      2.376688   363A      2.381721   364A      2.396342  
	 365A      2.415598   366A      2.428033   367A      2.439254  
	 368A      2.441339   369A      2.473507   370A      2.478697  
	 371A      2.487933   372A      2.492572   373A      2.496315  
	 374A      2.508213   375A      2.511433   376A      2.531809  
	 377A      2.534624   378A      2.536207   379A      2.542752  
	 380A      2.544818   381A      2.550049   382A      2.552849  
	 383A      2.557069   384A      2.593896   385A      2.603759  
	 386A      2.612142   387A      2.621906   388A      2.635096  
	 389A      2.639899   390A      2.661415   391A      2.678509  
	 392A      2.685476   393A      2.707285   394A      2.715835  
	 395A      2.754453   396A      2.771216   397A      2.779279  
	 398A      2.784629   399A      2.803994   400A      2.808103  
	 401A      2.828608   402A      2.837957   403A      2.866265  
	 404A      2.869037   405A      2.881412   406A      2.893512  
	 407A      2.901213   408A      2.903709   409A      2.925435  
	 410A      2.962527   411A      2.974256   412A      2.993613  
	 413A      2.996896   414A      3.020170   415A      3.035513  
	 416A      3.049561   417A      3.099126   418A      3.130328  
	 419A      3.136808   420A      3.142534   421A      3.170350  
	 422A      3.214854   423A      3.223671   424A      3.281268  
	 425A      3.282854   426A      3.314243   427A      3.319191  
	 428A      3.367862   429A      3.382042   430A      3.444607  
	 431A      3.486806   432A      3.491027   433A      3.498451  
	 434A      3.524058   435A      3.586471   436A      3.592727  
	 437A      3.621029   438A      3.625340   439A      3.635369  
	 440A      3.675634   441A      3.687741   442A      3.766276  
	 443A      3.780315   444A      3.837311   445A      3.838068  
	 446A      3.848601   447A      3.891953   448A      3.894986  
	 449A      3.917478   450A      3.924034   451A      3.934245  
	 452A      3.949229   453A      3.952896   454A      3.975992  
	 455A      3.991724   456A      4.002748   457A      4.034868  
	 458A      4.039656   459A      4.059196   460A      4.066428  
	 461A      4.077464   462A      4.078439   463A      4.086490  
	 464A      4.098186   465A      4.109769   466A      4.120349  
	 467A      4.130063   468A      4.143933   469A      4.150568  
	 470A      4.154007   471A      4.160337   472A      4.176108  
	 473A      4.191604   474A      4.195216   475A      4.199499  
	 476A      4.217332   477A      4.229774   478A      4.241847  
	 479A      4.246501   480A      4.260892   481A      4.266034  
	 482A      4.293969   483A      4.300476   484A      4.318082  
	 485A      4.329388   486A      4.340588   487A      4.342461  
	 488A      4.378793   489A      4.384882   490A      4.395973  
	 491A      4.402487   492A      4.422438   493A      4.431426  
	 494A      4.477757   495A      4.486288   496A      4.490350  
	 497A      4.495819   498A      4.523194   499A      4.535754  
	 500A      4.551931   501A      4.558226   502A      4.560191  
	 503A      4.568522   504A      4.573874   505A      4.579994  
	 506A      4.585280   507A      4.601651   508A      4.618096  
	 509A      4.627022   510A      4.633450   511A      4.649889  
	 512A      4.672932   513A      4.683925   514A      4.696312  
	 515A      4.715745   516A      4.724992   517A      4.741954  
	 518A      4.775683   519A      4.787780   520A      4.810160  
	 521A      4.825768   522A      4.849678   523A      4.855143  
	 524A      4.862641   525A      4.870850   526A      4.891041  
	 527A      4.916820   528A      4.929653   529A      4.945328  
	 530A      4.967580   531A      4.990926   532A      5.000747  
	 533A      5.002891   534A      5.010772   535A      5.024075  
	 536A      5.027248   537A      5.062926   538A      5.068243  
	 539A      5.079168   540A      5.084607   541A      5.095352  
	 542A      5.115944   543A      5.124604   544A      5.128271  
	 545A      5.144882   546A      5.153843   547A      5.165336  
	 548A      5.181782   549A      5.182994   550A      5.184690  
	 551A      5.215875   552A      5.216405   553A      5.233138  
	 554A      5.248224   555A      5.283492   556A      5.294254  
	 557A      5.304191   558A      5.355615   559A      5.357899  
	 560A      5.382459   561A      5.404059   562A      5.413520  
	 563A      5.439302   564A      5.443298   565A      5.457803  
	 566A      5.472186   567A      5.494858   568A      5.504980  
	 569A      5.519969   570A      5.524884   571A      5.536270  
	 572A      5.570160   573A      5.626684   574A      5.631932  
	 575A      5.636526   576A      5.673704   577A      5.687393  
	 578A      5.692941   579A      5.703161   580A      5.715059  
	 581A      5.715848   582A      5.735215   583A      5.746965  
	 584A      5.749379   585A      5.764233   586A      5.796246  
	 587A      5.798161   588A      5.801408   589A      5.811836  
	 590A      5.823905   591A      5.852728   592A      5.966814  
	 593A      5.973183   594A      5.981379   595A      6.005086  
	 596A      6.009992   597A      6.027188   598A      6.069678  
	 599A      6.076199   600A      6.112388   601A      6.125395  
	 602A      6.129250   603A      6.137164   604A      6.160549  
	 605A      6.189954   606A      6.194210   607A      6.202808  
	 608A      6.211935   609A      6.227969   610A      6.419061  
	 611A      6.438938   612A      6.459379   613A      6.461522  
	 614A      6.520249   615A      6.612645   616A      6.658621  
	 617A      6.677224   618A      6.696577   619A      6.708692  
	 620A      6.735013   621A      6.779937   622A      6.808900  
	 623A      6.836023   624A      6.865472   625A      6.896702  
	 626A      6.919652   627A      6.929242   628A      6.952924  
	 629A      7.037080   630A      7.070509   631A      7.091763  
	 632A      7.101032   633A      7.149051   634A      7.160105  
	 635A      7.175126   636A      7.218344   637A      7.255999  
	 638A      7.300012   639A      7.351096   640A      7.356683  
	 641A      7.386272   642A      7.399034   643A      7.402048  
	 644A      7.484540   645A      7.492896   646A      7.511387  
	 647A      7.513697   648A      7.573277   649A      7.576559  
	 650A      7.614170   651A      7.659872   652A      7.668387  
	 653A      7.684507   654A      7.783143   655A      7.800776  
	 656A      7.810267   657A      7.884703   658A      7.910959  
	 659A      8.005393   660A      8.105570   661A      8.114688  
	 662A      8.195004   663A      8.200493   664A      8.204401  
	 665A      8.323021   666A      8.330580   667A      8.345823  
	 668A      8.594447   669A      8.968393   670A      8.987015  
	 671A      9.357579   672A      9.425142   673A      9.464571  
	 674A     10.046123   675A     10.054628   676A     10.976768  
	 677A     11.029971   678A     11.364231   679A     11.388602  
	 680A     11.579335   681A     15.631848   682A     16.262625  
	 683A     17.758931   684A     19.883731   685A     49.793713  
	 686A     49.894910   687A     55.763443   688A     55.856469  
	 689A     56.622606   690A     56.871015  

	Final Occupation by Irrep:
	          A 
	DOCC [    16 ]

  Energy converged.

  @RHF Final Energy:  -227.90537175403637

   => Energetics <=

    Nuclear Repulsion Energy =            121.2268080597955304
    One-Electron Energy =                -551.8604549745990653
    Two-Electron Energy =                 202.7282751607663727
    DFT Exchange-Correlation Energy =       0.0000000000000000
    Empirical Dispersion Energy =           0.0000000000000000
    Total Energy =                       -227.9053717540371622



Properties will be evaluated at   0.000000,   0.000000,   0.000000 Bohr
  ==> Properties <==


Properties computed using the SCF density density matrix
  Nuclear Dipole Moment: (a.u.)
     X:    -4.4304      Y:    20.3414      Z:   138.9162

  Electronic Dipole Moment: (a.u.)
     X:     4.7373      Y:   -21.0357      Z:  -138.6587

  Dipole Moment: (a.u.)
     X:     0.3069      Y:    -0.6942      Z:     0.2576     Total:     0.8015

  Dipole Moment: (Debye)
     X:     0.7800      Y:    -1.7645      Z:     0.6547     Total:     2.0373


  Saving occupied orbitals to File 180.

  Saving SAPT 2-MONOMER_B file.

*** tstop() called on node33.bme.utexas.edu at Mon Oct 28 11:48:44 2013
Module time:
	user time   =     711.79 seconds =      11.86 minutes
	system time =       6.81 seconds =       0.11 minutes
	total time  =        130 seconds =       2.17 minutes
Total time:
	user time   =    2635.76 seconds =      43.93 minutes
	system time =      26.22 seconds =       0.44 minutes
	total time  =        488 seconds =       8.13 minutes
  No DF_BASIS_SAPT auxiliary basis selected, defaulting to aug-cc-pvtz-ri

  //>>>>>>>>>>>>>>>>>>>>>>>>>>>>>>>>>>>//
  //               SAPT2+              //
  //<<<<<<<<<<<<<<<<<<<<<<<<<<<<<<<<<<<//


*** tstart() called on node33.bme.utexas.edu
*** at Mon Oct 28 11:48:44 2013

        SAPT2+  
    Ed Hohenstein
     6 June 2009

      Orbital Information
  --------------------------
    NSO        =       690
    NMO        =       690
    NRI        =      1520
    NOCC A     =        21
    NOCC B     =        16
    FOCC A     =         6
    FOCC B     =         4
    NVIR A     =       669
    NVIR B     =       674

    Estimated memory usage: 10332.1 MB

    Els    Elst10,r            =    -0.008249734794 H
    Exch10 (S^2)        =     0.012693514276 H
    Exch10              =     0.012779370403 H
    Ind20,r (A<-B)      =    -0.005499148409 H
    Ind20,r (B<-A)      =    -0.001252471603 H
    Ind20,r             =    -0.006751620012 H
    Exch-Ind20,r (A<-B) =     0.003179273104 H
    Exch-Ind20,r (B<-A) =     0.001092190672 H
    Exch-Ind20,r        =     0.004271463776 H
    Disp20              =    -0.011192773803 H
    Exch-Disp20         =     0.001411330673 H
    Elst12,r            =     0.000068931908 H
    Exch11              =     0.000313206678 H
    Exch12              =     0.000949441745 H
    Ind22               =    -0.000356773772 H
    Disp21              =     0.002081088046 H
    Disp22 (SDQ)        =     0.000199888723 H

    (i =   1 of  12)      13766 seconds
    (i =   2 of  12)      27531 seconds
    (i =   3 of  12)      41315 seconds
    (i =   4 of  12)      55094 seconds
    (i =   5 of  12)      68872 seconds
    (i =   6 of  12)      82624 seconds
    (i =   7 of  12)      96394 seconds
    (i =   8 of  12)     110173 seconds
    (i =   9 of  12)     123939 seconds
    (i =  10 of  12)     137718 seconds
    (i =  11 of  12)     151494 seconds
    (i =  12 of  12)     165252 seconds

    Disp220 (T)         =    -0.001090587923 H

    (i =   1 of  15)       8907 seconds
    (i =   2 of  15)      17831 seconds
    (i =   3 of  15)      26752 seconds
    (i =   4 of  15)      35671 seconds
    (i =   5 of  15)      44595 seconds
    (i =   6 of  15)      53525 seconds
    (i =   7 of  15)      62450 seconds
    (i =   8 of  15)      71378 seconds
    (i =   9 of  15)      80290 seconds
    (i =  10 of  15)      89203 seconds
    (i =  11 of  15)      98124 seconds
    (i =  12 of  15)     107039 seconds
    (i =  13 of  15)     115957 seconds
    (i =  14 of  15)     124864 seconds
    (i =  15 of  15)     133775 seconds

    Disp202 (T)         =    -0.001297610940 H

    Disp22 (T)          =    -0.002388198863 H

    SAPT Results  
  -----------------------------------------------------------------------
    Electrostatics          -8.18080289 mH      -5.13353153 kcal mol^-1
      Elst10,r              -8.24973479 mH      -5.17678696 kcal mol^-1
      Elst12,r               0.06893191 mH       0.04325543 kcal mol^-1

    Exchange                14.04201883 mH       8.81150021 kcal mol^-1
      Exch10                12.77937040 mH       8.01917633 kcal mol^-1
      Exch10(S^2)           12.69351428 mH       7.96530080 kcal mol^-1
      Exch11(S^2)            0.31320668 mH       0.19654017 kcal mol^-1
      Exch12(S^2)            0.94944175 mH       0.59578371 kcal mol^-1

    Induction               -4.29662419 mH      -2.69617250 kcal mol^-1
      Ind20,r               -6.75162001 mH      -4.23670570 kcal mol^-1
      Ind22                 -0.35677377 mH      -0.22387893 kcal mol^-1
      Exch-Ind20,r           4.27146378 mH       2.68038410 kcal mol^-1
      Exch-Ind22             0.22571564 mH       0.14163871 kcal mol^-1
      delta HF,r (2)        -1.68540982 mH      -1.05761068 kcal mol^-1

    Dispersion              -9.88866522 mH      -6.20523137 kcal mol^-1
      Disp20               -11.19277380 mH      -7.02357189 kcal mol^-1
      Disp21                 2.08108805 mH       1.30590252 kcal mol^-1
      Disp22 (SDQ)           0.19988872 mH       0.12543207 kcal mol^-1
      Disp22 (T)            -2.38819886 mH      -1.49861747 kcal mol^-1
      Exch-Disp20            1.41133067 mH       0.88562341 kcal mol^-1

    Total HF                 0.36406955 mH       0.22845710 kcal mol^-1
    Total SAPT0             -9.41737358 mH      -5.90949139 kcal mol^-1
    Total SAPT2             -8.21685138 mH      -5.15615230 kcal mol^-1
    Total SAPT2+            -8.32407347 mH      -5.22343518 kcal mol^-1

*** tstop() called on node119.bme.utexas.edu at Mon Nov 11 08:09:05 2013
Module time:
	user time   = 1224782.78 seconds =   20413.05 minutes
	system time =   14586.45 seconds =     243.11 minutes
	total time  =    2239242 seconds =   37320.70 minutes
Total time:
	user time   = 1228015.06 seconds =   20466.92 minutes
	system time =   14617.85 seconds =     243.63 minutes
	total time  =    2240139 seconds =   37335.65 minutes

*** PSI4 exiting successfully. Buy a developer a beer!
