
    -----------------------------------------------------------------------
          Psi4: An Open-Source Ab Initio Electronic Structure Package
                               Psi4 1.4a2.dev224 

                         Git: Rev {master} e453b16 


    R. M. Parrish, L. A. Burns, D. G. A. Smith, A. C. Simmonett,
    A. E. DePrince III, E. G. Hohenstein, U. Bozkaya, A. Yu. Sokolov,
    R. Di Remigio, R. M. Richard, J. F. Gonthier, A. M. James,
    H. R. McAlexander, A. Kumar, M. Saitow, X. Wang, B. P. Pritchard,
    P. Verma, H. F. Schaefer III, K. Patkowski, R. A. King, E. F. Valeev,
    F. A. Evangelista, J. M. Turney, T. D. Crawford, and C. D. Sherrill,
    J. Chem. Theory Comput. 13(7) pp 3185--3197 (2017).
    (doi: 10.1021/acs.jctc.7b00174)


                         Additional Contributions by
    P. Kraus, H. Kruse, M. H. Lechner, M. C. Schieber, R. A. Shaw,
    A. Alenaizan, R. Galvelis, Z. L. Glick, S. Lehtola, and J. P. Misiewicz

    -----------------------------------------------------------------------


    Psi4 started on: Thursday, 23 April 2020 11:23PM

    Process ID: 25944
    Host:       node144.bme.utexas.edu
    PSIDATADIR: /home/liuchw/anaconda3/envs/psi4env/share/psi4
    Memory:     500.0 MiB
    Threads:    8
    
  ==> Input File <==

--------------------------------------------------------------------------
#Generated by lconvert.py for sapt job

memory 50 GB

molecule  {
0 1
  C       0.780150   -0.609910   -1.207560
  H       0.896190   -1.137640   -2.144140
  C       0.477940    0.750990   -1.207890
  H       0.356960    1.278170   -2.144050
  C       0.327290    1.431870   -0.000000
  H       0.091470    2.487140    0.000000
  C       0.477940    0.750990    1.207890
  H       0.356960    1.278170    2.144050
  C       0.780150   -0.609910    1.207560
  H       0.896190   -1.137640    2.144140
  C       0.931650   -1.289980    0.000000
  H       1.168490   -2.345210   -0.000000
--
0 1
  O      -4.618430   -0.479680    0.000000
  H      -4.453630   -1.424400    0.000000
  H      -3.731130   -0.108090    0.000000
units angstrom
no_reorient
symmetry c1
}

set {
scf_type DF
basis aug-cc-pvtz
freeze_core True
guess SAD
}
energy('sapt2+')
--------------------------------------------------------------------------

  Memory set to  46.566 GiB by Python driver.

Scratch directory: /scratch/liuchw/

  //>>>>>>>>>>>>>>>>>>>>>>>>>>>>>>>>>>>//
  //              Dimer HF             //
  //<<<<<<<<<<<<<<<<<<<<<<<<<<<<<<<<<<<//


*** tstart() called on node144.bme.utexas.edu
*** at Thu Apr 23 23:23:25 2020

   => Loading Basis Set <=

    Name: AUG-CC-PVTZ
    Role: ORBITAL
    Keyword: BASIS
    atoms 1, 3, 5, 7, 9, 11         entry C          line   239 file /home/liuchw/anaconda3/envs/psi4env/share/psi4/basis/aug-cc-pvtz.gbs 
    atoms 2, 4, 6, 8, 10, 12, 14-15 entry H          line    40 file /home/liuchw/anaconda3/envs/psi4env/share/psi4/basis/aug-cc-pvtz.gbs 
    atoms 13                        entry O          line   331 file /home/liuchw/anaconda3/envs/psi4env/share/psi4/basis/aug-cc-pvtz.gbs 


         ---------------------------------------------------------
                                   SCF
               by Justin Turney, Rob Parrish, Andy Simmonett
                          and Daniel G. A. Smith
                              RHF Reference
                        8 Threads,  47683 MiB Core
         ---------------------------------------------------------

  ==> Geometry <==

    Molecular point group: c1
    Full point group: Cs

    Geometry (in Angstrom), charge = 0, multiplicity = 1:

       Center              X                  Y                   Z               Mass       
    ------------   -----------------  -----------------  -----------------  -----------------
         C            1.123933913976    -0.571370355052    -1.207560000000    12.000000000000
         H            1.239973913976    -1.099100355052    -2.144140000000     1.007825032230
         C            0.821723913976     0.789529644948    -1.207890000000    12.000000000000
         H            0.700743913976     1.316709644948    -2.144050000000     1.007825032230
         C            0.671073913976     1.470409644948     0.000000000000    12.000000000000
         H            0.435253913976     2.525679644948     0.000000000000     1.007825032230
         C            0.821723913976     0.789529644948     1.207890000000    12.000000000000
         H            0.700743913976     1.316709644948     2.144050000000     1.007825032230
         C            1.123933913976    -0.571370355052     1.207560000000    12.000000000000
         H            1.239973913976    -1.099100355052     2.144140000000     1.007825032230
         C            1.275433913976    -1.251440355052     0.000000000000    12.000000000000
         H            1.512273913976    -2.306670355052     0.000000000000     1.007825032230
         O           -4.274646086024    -0.441140355052     0.000000000000    15.994914619570
         H           -4.109846086024    -1.385860355052     0.000000000000     1.007825032230
         H           -3.387346086024    -0.069550355052     0.000000000000     1.007825032230

  Running in c1 symmetry.

  Rotational constants: A =      0.09539  B =      0.03446  C =      0.03443 [cm^-1]
  Rotational constants: A =   2859.62168  B =   1033.08003  C =   1032.31787 [MHz]
  Nuclear repulsion =  253.932832915768671

  Charge       = 0
  Multiplicity = 1
  Electrons    = 52
  Nalpha       = 26
  Nbeta        = 26

  ==> Algorithm <==

  SCF Algorithm Type is DF.
  DIIS enabled.
  MOM disabled.
  Fractional occupation disabled.
  Guess Type is SAD.
  Energy threshold   = 1.00e-08
  Density threshold  = 1.00e-08
  Integral threshold = 0.00e+00

  ==> Primary Basis <==

  Basis Set: AUG-CC-PVTZ
    Blend: AUG-CC-PVTZ
    Number of shells: 170
    Number of basis function: 506
    Number of Cartesian functions: 585
    Spherical Harmonics?: true
    Max angular momentum: 3

   => Loading Basis Set <=

    Name: (AUG-CC-PVTZ AUX)
    Role: JKFIT
    Keyword: DF_BASIS_SCF
    atoms 1, 3, 5, 7, 9, 11         entry C          line   162 file /home/liuchw/anaconda3/envs/psi4env/share/psi4/basis/aug-cc-pvtz-jkfit.gbs 
    atoms 2, 4, 6, 8, 10, 12, 14-15 entry H          line    70 file /home/liuchw/anaconda3/envs/psi4env/share/psi4/basis/aug-cc-pvtz-jkfit.gbs 
    atoms 13                        entry O          line   286 file /home/liuchw/anaconda3/envs/psi4env/share/psi4/basis/aug-cc-pvtz-jkfit.gbs 

  ==> Pre-Iterations <==

   -------------------------------------------------------
    Irrep   Nso     Nmo     Nalpha   Nbeta   Ndocc  Nsocc
   -------------------------------------------------------
     A        506     506       0       0       0       0
   -------------------------------------------------------
    Total     506     506      26      26      26       0
   -------------------------------------------------------

  ==> Integral Setup <==

  ==> DiskDFJK: Density-Fitted J/K Matrices <==

    J tasked:                  Yes
    K tasked:                  Yes
    wK tasked:                  No
    OpenMP threads:              8
    Integrals threads:           8
    Memory [MiB]:            35762
    Algorithm:                Core
    Integral Cache:           SAVE
    Schwarz Cutoff:          1E-12
    Fitting Condition:       1E-10

   => Auxiliary Basis Set <=

  Basis Set: (AUG-CC-PVTZ AUX)
    Blend: AUG-CC-PVTZ-JKFIT
    Number of shells: 322
    Number of basis function: 1096
    Number of Cartesian functions: 1357
    Spherical Harmonics?: true
    Max angular momentum: 4

  Minimum eigenvalue in the overlap matrix is 3.2070708674E-07.
  Using Symmetric Orthogonalization.

  SCF Guess: Superposition of Atomic Densities via on-the-fly atomic UHF.

  ==> Iterations <==

                           Total Energy        Delta E     RMS |[F,P]|

   @DF-RHF iter SAD:  -305.66823277323698   -3.05668e+02   0.00000e+00 
   @DF-RHF iter   1:  -306.57981220993810   -9.11579e-01   1.41696e-03 DIIS
   @DF-RHF iter   2:  -306.77371664721551   -1.93904e-01   8.20164e-04 DIIS
   @DF-RHF iter   3:  -306.84044834343899   -6.67317e-02   1.01262e-04 DIIS
   @DF-RHF iter   4:  -306.84241852061018   -1.97018e-03   3.11125e-05 DIIS
   @DF-RHF iter   5:  -306.84254752687627   -1.29006e-04   7.93165e-06 DIIS
   @DF-RHF iter   6:  -306.84255793964724   -1.04128e-05   1.58292e-06 DIIS
   @DF-RHF iter   7:  -306.84255871564136   -7.75994e-07   3.71929e-07 DIIS
   @DF-RHF iter   8:  -306.84255876637224   -5.07309e-08   1.06673e-07 DIIS
   @DF-RHF iter   9:  -306.84255876878956   -2.41732e-09   4.94110e-08 DIIS
   @DF-RHF iter  10:  -306.84255876927398   -4.84420e-10   5.68888e-09 DIIS
  Energy and wave function converged.


  ==> Post-Iterations <==

    Orbital Energies [Eh]
    ---------------------

    Doubly Occupied:                                                      

       1A    -20.562114     2A    -11.242481     3A    -11.241934  
       4A    -11.241875     5A    -11.240692     6A    -11.240630  
       7A    -11.240054     8A     -1.346848     9A     -1.156375  
      10A     -1.020919    11A     -1.020775    12A     -0.830193  
      13A     -0.830104    14A     -0.715593    15A     -0.706500  
      16A     -0.650161    17A     -0.625063    18A     -0.594129  
      19A     -0.593977    20A     -0.581605    21A     -0.508705  
      22A     -0.504435    23A     -0.500869    24A     -0.500848  
      25A     -0.343125    26A     -0.343107  

    Virtual:                                                              

      27A      0.024935    28A      0.032556    29A      0.032889  
      30A      0.043346    31A      0.046356    32A      0.046443  
      33A      0.063139    34A      0.066175    35A      0.097857  
      36A      0.098108    37A      0.101329    38A      0.103225  
      39A      0.110361    40A      0.113574    41A      0.115098  
      42A      0.120834    43A      0.122941    44A      0.125872  
      45A      0.125990    46A      0.133596    47A      0.136453  
      48A      0.152159    49A      0.153455    50A      0.155528  
      51A      0.155573    52A      0.156259    53A      0.157089  
      54A      0.159782    55A      0.172828    56A      0.194545  
      57A      0.201839    58A      0.205812    59A      0.229150  
      60A      0.235871    61A      0.240817    62A      0.241124  
      63A      0.246349    64A      0.258161    65A      0.276896  
      66A      0.277203    67A      0.280137    68A      0.295244  
      69A      0.298307    70A      0.300227    71A      0.303054  
      72A      0.308869    73A      0.311375    74A      0.312632  
      75A      0.325010    76A      0.327413    77A      0.336028  
      78A      0.337790    79A      0.339539    80A      0.345746  
      81A      0.345988    82A      0.350282    83A      0.354150  
      84A      0.354939    85A      0.380068    86A      0.385782  
      87A      0.389045    88A      0.404377    89A      0.413616  
      90A      0.415912    91A      0.438232    92A      0.438675  
      93A      0.444186    94A      0.444445    95A      0.452887  
      96A      0.466423    97A      0.469702    98A      0.469966  
      99A      0.475847   100A      0.483057   101A      0.486310  
     102A      0.486337   103A      0.491900   104A      0.498042  
     105A      0.500141   106A      0.507997   107A      0.508831  
     108A      0.522668   109A      0.523000   110A      0.525696  
     111A      0.526222   112A      0.530619   113A      0.541447  
     114A      0.542299   115A      0.546806   116A      0.606641  
     117A      0.610601   118A      0.627561   119A      0.629166  
     120A      0.629835   121A      0.639392   122A      0.648668  
     123A      0.652301   124A      0.659969   125A      0.661730  
     126A      0.686646   127A      0.695490   128A      0.699030  
     129A      0.701318   130A      0.705195   131A      0.716498  
     132A      0.721445   133A      0.728264   134A      0.728362  
     135A      0.739119   136A      0.741115   137A      0.746129  
     138A      0.759056   139A      0.760534   140A      0.771317  
     141A      0.786313   142A      0.796657   143A      0.814057  
     144A      0.820691   145A      0.831768   146A      0.838485  
     147A      0.845458   148A      0.845520   149A      0.864307  
     150A      0.865707   151A      0.870778   152A      0.872004  
     153A      0.873695   154A      0.888352   155A      0.894987  
     156A      0.895406   157A      0.902663   158A      0.911321  
     159A      0.914005   160A      0.921011   161A      0.926753  
     162A      0.927952   163A      0.939510   164A      0.951510  
     165A      0.952382   166A      0.957983   167A      0.967438  
     168A      0.970770   169A      0.985767   170A      0.989816  
     171A      0.994876   172A      1.014946   173A      1.024804  
     174A      1.026202   175A      1.032462   176A      1.040043  
     177A      1.043086   178A      1.056849   179A      1.067683  
     180A      1.073212   181A      1.077649   182A      1.082214  
     183A      1.085112   184A      1.094921   185A      1.094935  
     186A      1.097612   187A      1.099652   188A      1.103941  
     189A      1.105311   190A      1.132989   191A      1.137781  
     192A      1.145358   193A      1.149792   194A      1.152618  
     195A      1.165644   196A      1.175275   197A      1.175722  
     198A      1.192669   199A      1.206735   200A      1.212475  
     201A      1.215266   202A      1.216305   203A      1.216756  
     204A      1.223116   205A      1.231972   206A      1.238366  
     207A      1.239844   208A      1.256084   209A      1.271511  
     210A      1.271970   211A      1.276492   212A      1.278501  
     213A      1.312261   214A      1.335562   215A      1.359016  
     216A      1.365998   217A      1.369693   218A      1.382658  
     219A      1.397485   220A      1.397523   221A      1.401107  
     222A      1.416318   223A      1.425123   224A      1.476146  
     225A      1.481357   226A      1.483746   227A      1.503887  
     228A      1.509905   229A      1.517025   230A      1.519587  
     231A      1.533704   232A      1.541330   233A      1.546806  
     234A      1.591374   235A      1.600588   236A      1.667617  
     237A      1.677526   238A      1.678346   239A      1.694324  
     240A      1.694754   241A      1.697094   242A      1.718297  
     243A      1.719074   244A      1.754978   245A      1.755055  
     246A      1.772639   247A      1.786198   248A      1.812018  
     249A      1.825751   250A      1.826224   251A      1.833194  
     252A      1.835388   253A      1.835451   254A      1.847362  
     255A      1.866781   256A      1.879161   257A      1.884180  
     258A      1.887365   259A      1.907175   260A      1.908149  
     261A      1.925611   262A      1.987672   263A      1.990046  
     264A      1.991321   265A      2.002759   266A      2.003140  
     267A      2.013609   268A      2.013886   269A      2.023339  
     270A      2.035625   271A      2.047496   272A      2.047899  
     273A      2.056468   274A      2.082406   275A      2.086806  
     276A      2.095036   277A      2.096955   278A      2.100392  
     279A      2.111135   280A      2.187724   281A      2.223607  
     282A      2.227891   283A      2.263952   284A      2.268923  
     285A      2.281944   286A      2.331505   287A      2.334706  
     288A      2.343022   289A      2.346613   290A      2.352406  
     291A      2.367094   292A      2.368129   293A      2.390973  
     294A      2.396453   295A      2.405771   296A      2.434728  
     297A      2.458735   298A      2.465033   299A      2.478171  
     300A      2.503106   301A      2.508331   302A      2.535426  
     303A      2.558523   304A      2.561421   305A      2.566465  
     306A      2.589287   307A      2.590486   308A      2.699306  
     309A      2.710912   310A      2.742037   311A      2.745554  
     312A      2.747904   313A      2.758918   314A      2.787975  
     315A      2.817907   316A      2.825794   317A      2.835994  
     318A      2.837374   319A      2.871463   320A      2.912971  
     321A      2.925300   322A      3.074594   323A      3.076920  
     324A      3.150939   325A      3.165726   326A      3.170322  
     327A      3.218293   328A      3.218484   329A      3.306076  
     330A      3.314873   331A      3.315173   332A      3.336961  
     333A      3.363329   334A      3.365812   335A      3.384554  
     336A      3.389437   337A      3.398810   338A      3.401980  
     339A      3.407513   340A      3.423628   341A      3.424540  
     342A      3.527501   343A      3.528742   344A      3.529958  
     345A      3.530355   346A      3.556375   347A      3.558994  
     348A      3.569177   349A      3.573176   350A      3.610009  
     351A      3.625688   352A      3.627061   353A      3.645442  
     354A      3.651059   355A      3.651859   356A      3.690682  
     357A      3.743822   358A      3.766242   359A      3.772830  
     360A      3.797628   361A      3.815502   362A      3.827553  
     363A      3.829022   364A      3.832576   365A      3.832895  
     366A      3.841387   367A      3.842961   368A      3.865778  
     369A      3.870809   370A      3.957601   371A      3.963946  
     372A      3.984202   373A      3.984821   374A      3.986140  
     375A      4.030354   376A      4.035573   377A      4.036071  
     378A      4.047768   379A      4.050907   380A      4.051127  
     381A      4.100399   382A      4.103190   383A      4.123061  
     384A      4.128142   385A      4.128157   386A      4.136568  
     387A      4.165626   388A      4.166406   389A      4.182569  
     390A      4.199468   391A      4.243005   392A      4.243516  
     393A      4.266719   394A      4.281212   395A      4.284169  
     396A      4.296611   397A      4.328078   398A      4.330767  
     399A      4.348163   400A      4.355299   401A      4.364817  
     402A      4.395669   403A      4.401747   404A      4.422601  
     405A      4.423577   406A      4.428623   407A      4.429091  
     408A      4.437055   409A      4.437311   410A      4.461592  
     411A      4.467359   412A      4.468920   413A      4.504560  
     414A      4.504596   415A      4.556531   416A      4.599239  
     417A      4.697661   418A      4.714435   419A      4.714838  
     420A      4.722336   421A      4.722580   422A      4.735941  
     423A      4.777790   424A      4.790707   425A      4.791181  
     426A      4.871027   427A      4.875127   428A      4.885249  
     429A      4.923459   430A      4.932630   431A      4.936248  
     432A      5.027250   433A      5.028359   434A      5.075329  
     435A      5.075621   436A      5.080185   437A      5.090271  
     438A      5.112496   439A      5.122014   440A      5.148348  
     441A      5.149108   442A      5.157480   443A      5.175335  
     444A      5.175936   445A      5.176177   446A      5.176425  
     447A      5.186468   448A      5.233680   449A      5.234287  
     450A      5.274124   451A      5.334059   452A      5.334693  
     453A      5.340172   454A      5.344279   455A      5.350379  
     456A      5.427783   457A      5.431207   458A      5.435134  
     459A      5.435625   460A      5.499268   461A      5.532647  
     462A      5.537665   463A      5.666689   464A      5.737863  
     465A      5.739409   466A      5.786983   467A      5.787214  
     468A      5.852058   469A      5.875529   470A      5.942406  
     471A      5.977007   472A      6.165446   473A      6.170743  
     474A      6.210720   475A      6.266086   476A      6.266645  
     477A      6.367476   478A      6.369546   479A      6.393673  
     480A      6.528563   481A      6.645068   482A      6.645531  
     483A      6.731009   484A      6.854551   485A      6.855859  
     486A      6.940449   487A      7.023509   488A      7.144209  
     489A      7.214655   490A      7.282342   491A      7.296575  
     492A      7.336914   493A      7.375608   494A      7.377324  
     495A      7.438163   496A      7.570512   497A      7.896855  
     498A      7.962351   499A      8.839433   500A     15.825509  
     501A     16.040697   502A     16.045384   503A     17.299750  
     504A     19.340690   505A     19.359062   506A     19.556208  

    Final Occupation by Irrep:
              A 
    DOCC [    26 ]

  @DF-RHF Final Energy:  -306.84255876927398

   => Energetics <=

    Nuclear Repulsion Energy =            253.9328329157686710
    One-Electron Energy =                -918.7845592038240738
    Two-Electron Energy =                 358.0091675187813962
    Total Energy =                       -306.8425587692739782

Computation Completed


Properties will be evaluated at   0.000000,   0.000000,   0.000000 [a0]

Properties computed using the SCF density matrix

  Nuclear Dipole Moment: [e a0]
     X:    -1.5845      Y:    -0.7532      Z:     0.0000

  Electronic Dipole Moment: [e a0]
     X:     2.3449      Y:     0.3943      Z:    -0.0000

  Dipole Moment: [e a0]
     X:     0.7605      Y:    -0.3589      Z:    -0.0000     Total:     0.8409

  Dipole Moment: [D]
     X:     1.9329      Y:    -0.9123      Z:    -0.0000     Total:     2.1374


*** tstop() called on node144.bme.utexas.edu at Thu Apr 23 23:24:05 2020
Module time:
	user time   =     263.61 seconds =       4.39 minutes
	system time =       7.59 seconds =       0.13 minutes
	total time  =         40 seconds =       0.67 minutes
Total time:
	user time   =     263.61 seconds =       4.39 minutes
	system time =       7.59 seconds =       0.13 minutes
	total time  =         40 seconds =       0.67 minutes

  //>>>>>>>>>>>>>>>>>>>>>>>>>>>>>>>>>>>//
  //            Monomer A HF           //
  //<<<<<<<<<<<<<<<<<<<<<<<<<<<<<<<<<<<//


*** tstart() called on node144.bme.utexas.edu
*** at Thu Apr 23 23:24:05 2020

   => Loading Basis Set <=

    Name: AUG-CC-PVTZ
    Role: ORBITAL
    Keyword: BASIS
    atoms 1, 3, 5, 7, 9, 11         entry C          line   239 file /home/liuchw/anaconda3/envs/psi4env/share/psi4/basis/aug-cc-pvtz.gbs 
    atoms 2, 4, 6, 8, 10, 12, 14-15 entry H          line    40 file /home/liuchw/anaconda3/envs/psi4env/share/psi4/basis/aug-cc-pvtz.gbs 
    atoms 13                        entry O          line   331 file /home/liuchw/anaconda3/envs/psi4env/share/psi4/basis/aug-cc-pvtz.gbs 


         ---------------------------------------------------------
                                   SCF
               by Justin Turney, Rob Parrish, Andy Simmonett
                          and Daniel G. A. Smith
                              RHF Reference
                        8 Threads,  47683 MiB Core
         ---------------------------------------------------------

  ==> Geometry <==

    Molecular point group: c1
    Full point group: Cs

    Geometry (in Angstrom), charge = 0, multiplicity = 1:

       Center              X                  Y                   Z               Mass       
    ------------   -----------------  -----------------  -----------------  -----------------
         C            1.123933913976    -0.571370355052    -1.207560000000    12.000000000000
         H            1.239973913976    -1.099100355052    -2.144140000000     1.007825032230
         C            0.821723913976     0.789529644948    -1.207890000000    12.000000000000
         H            0.700743913976     1.316709644948    -2.144050000000     1.007825032230
         C            0.671073913976     1.470409644948     0.000000000000    12.000000000000
         H            0.435253913976     2.525679644948     0.000000000000     1.007825032230
         C            0.821723913976     0.789529644948     1.207890000000    12.000000000000
         H            0.700743913976     1.316709644948     2.144050000000     1.007825032230
         C            1.123933913976    -0.571370355052     1.207560000000    12.000000000000
         H            1.239973913976    -1.099100355052     2.144140000000     1.007825032230
         C            1.275433913976    -1.251440355052     0.000000000000    12.000000000000
         H            1.512273913976    -2.306670355052     0.000000000000     1.007825032230
      Gh(O)          -4.274646086024    -0.441140355052     0.000000000000    15.994914619570
      Gh(H)          -4.109846086024    -1.385860355052     0.000000000000     1.007825032230
      Gh(H)          -3.387346086024    -0.069550355052     0.000000000000     1.007825032230

  Running in c1 symmetry.

  Rotational constants: A =      0.09539  B =      0.03446  C =      0.03443 [cm^-1]
  Rotational constants: A =   2859.62168  B =   1033.08003  C =   1032.31787 [MHz]
  Nuclear repulsion =  203.634130495336194

  Charge       = 0
  Multiplicity = 1
  Electrons    = 42
  Nalpha       = 21
  Nbeta        = 21

  ==> Algorithm <==

  SCF Algorithm Type is DF.
  DIIS enabled.
  MOM disabled.
  Fractional occupation disabled.
  Guess Type is SAD.
  Energy threshold   = 1.00e-08
  Density threshold  = 1.00e-08
  Integral threshold = 0.00e+00

  ==> Primary Basis <==

  Basis Set: AUG-CC-PVTZ
    Blend: AUG-CC-PVTZ
    Number of shells: 170
    Number of basis function: 506
    Number of Cartesian functions: 585
    Spherical Harmonics?: true
    Max angular momentum: 3

   => Loading Basis Set <=

    Name: (AUG-CC-PVTZ AUX)
    Role: JKFIT
    Keyword: DF_BASIS_SCF
    atoms 1, 3, 5, 7, 9, 11         entry C          line   162 file /home/liuchw/anaconda3/envs/psi4env/share/psi4/basis/aug-cc-pvtz-jkfit.gbs 
    atoms 2, 4, 6, 8, 10, 12, 14-15 entry H          line    70 file /home/liuchw/anaconda3/envs/psi4env/share/psi4/basis/aug-cc-pvtz-jkfit.gbs 
    atoms 13                        entry O          line   286 file /home/liuchw/anaconda3/envs/psi4env/share/psi4/basis/aug-cc-pvtz-jkfit.gbs 

  ==> Pre-Iterations <==

   -------------------------------------------------------
    Irrep   Nso     Nmo     Nalpha   Nbeta   Ndocc  Nsocc
   -------------------------------------------------------
     A        506     506       0       0       0       0
   -------------------------------------------------------
    Total     506     506      21      21      21       0
   -------------------------------------------------------

  ==> Integral Setup <==

  ==> DiskDFJK: Density-Fitted J/K Matrices <==

    J tasked:                  Yes
    K tasked:                  Yes
    wK tasked:                  No
    OpenMP threads:              8
    Integrals threads:           8
    Memory [MiB]:            35762
    Algorithm:                Core
    Integral Cache:           LOAD
    Schwarz Cutoff:          1E-12
    Fitting Condition:       1E-10

   => Auxiliary Basis Set <=

  Basis Set: (AUG-CC-PVTZ AUX)
    Blend: AUG-CC-PVTZ-JKFIT
    Number of shells: 322
    Number of basis function: 1096
    Number of Cartesian functions: 1357
    Spherical Harmonics?: true
    Max angular momentum: 4

  Minimum eigenvalue in the overlap matrix is 3.2070708674E-07.
  Using Symmetric Orthogonalization.

  SCF Guess: Superposition of Atomic Densities via on-the-fly atomic UHF.

  ==> Iterations <==

                           Total Energy        Delta E     RMS |[F,P]|

   @DF-RHF iter SAD:  -230.18840991066156   -2.30188e+02   0.00000e+00 
   @DF-RHF iter   1:  -230.60098162956191   -4.12572e-01   1.08009e-03 DIIS
   @DF-RHF iter   2:  -230.74284459520067   -1.41863e-01   5.35271e-04 DIIS
   @DF-RHF iter   3:  -230.77964659158988   -3.68020e-02   8.56160e-05 DIIS
   @DF-RHF iter   4:  -230.78119359806081   -1.54701e-03   1.05795e-05 DIIS
   @DF-RHF iter   5:  -230.78122247287601   -2.88748e-05   1.92798e-06 DIIS
   @DF-RHF iter   6:  -230.78122348998588   -1.01711e-06   2.42640e-07 DIIS
   @DF-RHF iter   7:  -230.78122350568825   -1.57024e-08   1.08827e-07 DIIS
   @DF-RHF iter   8:  -230.78122350747776   -1.78952e-09   1.86548e-08 DIIS
   @DF-RHF iter   9:  -230.78122350758568   -1.07917e-10   3.41932e-09 DIIS
  Energy and wave function converged.


  ==> Post-Iterations <==

    Orbital Energies [Eh]
    ---------------------

    Doubly Occupied:                                                      

       1A    -11.236452     2A    -11.235889     3A    -11.235858  
       4A    -11.234651     5A    -11.234613     6A    -11.234023  
       7A     -1.150118     8A     -1.014819     9A     -1.014618  
      10A     -0.824204    11A     -0.824128    12A     -0.709657  
      13A     -0.644417    14A     -0.618997    15A     -0.588253  
      16A     -0.588038    17A     -0.502183    18A     -0.495011  
      19A     -0.494988    20A     -0.336816    21A     -0.336658  

    Virtual:                                                              

      22A      0.027349    23A      0.034465    24A      0.034846  
      25A      0.040598    26A      0.048194    27A      0.048240  
      28A      0.062990    29A      0.064619    30A      0.101796  
      31A      0.102444    32A      0.103467    33A      0.104058  
      34A      0.114038    35A      0.116121    36A      0.117284  
      37A      0.124017    38A      0.124741    39A      0.128506  
      40A      0.128643    41A      0.133177    42A      0.135663  
      43A      0.149249    44A      0.154720    45A      0.158034  
      46A      0.158062    47A      0.158644    48A      0.160611  
      49A      0.161249    50A      0.162686    51A      0.177341  
      52A      0.186343    53A      0.194374    54A      0.231194  
      55A      0.243716    56A      0.246957    57A      0.250077  
      58A      0.252769    59A      0.256184    60A      0.283812  
      61A      0.284812    62A      0.287888    63A      0.301683  
      64A      0.303674    65A      0.304603    66A      0.307053  
      67A      0.311885    68A      0.317953    69A      0.318605  
      70A      0.330897    71A      0.334198    72A      0.337843  
      73A      0.341561    74A      0.343050    75A      0.349399  
      76A      0.349496    77A      0.350177    78A      0.351167  
      79A      0.364682    80A      0.378317    81A      0.385131  
      82A      0.390675    83A      0.396897    84A      0.411740  
      85A      0.417267    86A      0.421726    87A      0.443042  
      88A      0.444106    89A      0.448997    90A      0.449957  
      91A      0.458770    92A      0.475244    93A      0.475540  
      94A      0.479900    95A      0.486038    96A      0.487506  
      97A      0.490963    98A      0.491357    99A      0.493500  
     100A      0.501458   101A      0.511338   102A      0.515687  
     103A      0.527454   104A      0.527911   105A      0.528918  
     106A      0.529081   107A      0.534662   108A      0.545699  
     109A      0.546686   110A      0.554135   111A      0.601294  
     112A      0.615790   113A      0.632918   114A      0.636699  
     115A      0.637137   116A      0.637577   117A      0.653854  
     118A      0.655963   119A      0.663877   120A      0.663888  
     121A      0.690544   122A      0.700073   123A      0.702930  
     124A      0.707456   125A      0.709637   126A      0.709694  
     127A      0.730275   128A      0.732199   129A      0.739423  
     130A      0.745583   131A      0.765238   132A      0.767529  
     133A      0.790572   134A      0.790708   135A      0.796739  
     136A      0.804251   137A      0.810981   138A      0.817100  
     139A      0.819601   140A      0.836809   141A      0.843374  
     142A      0.844789   143A      0.851255   144A      0.859697  
     145A      0.864236   146A      0.870936   147A      0.878118  
     148A      0.881272   149A      0.890651   150A      0.890889  
     151A      0.900402   152A      0.903586   153A      0.904461  
     154A      0.907673   155A      0.916129   156A      0.921193  
     157A      0.940728   158A      0.946587   159A      0.951576  
     160A      0.956863   161A      0.967602   162A      0.972418  
     163A      0.981516   164A      0.991560   165A      1.000743  
     166A      1.001355   167A      1.018151   168A      1.029113  
     169A      1.029667   170A      1.039949   171A      1.047787  
     172A      1.050614   173A      1.057940   174A      1.068875  
     175A      1.076328   176A      1.085307   177A      1.086780  
     178A      1.094440   179A      1.099228   180A      1.099928  
     181A      1.103414   182A      1.104010   183A      1.109891  
     184A      1.114617   185A      1.119710   186A      1.123498  
     187A      1.144523   188A      1.144991   189A      1.151225  
     190A      1.170624   191A      1.181063   192A      1.183678  
     193A      1.206353   194A      1.213143   195A      1.214038  
     196A      1.219896   197A      1.222750   198A      1.223326  
     199A      1.224962   200A      1.240335   201A      1.244245  
     202A      1.249068   203A      1.261438   204A      1.274016  
     205A      1.279272   206A      1.281273   207A      1.293396  
     208A      1.337196   209A      1.363937   210A      1.372192  
     211A      1.373024   212A      1.387731   213A      1.402681  
     214A      1.403484   215A      1.407395   216A      1.409770  
     217A      1.430539   218A      1.461855   219A      1.477772  
     220A      1.481818   221A      1.489182   222A      1.505484  
     223A      1.514274   224A      1.519950   225A      1.523570  
     226A      1.530580   227A      1.548691   228A      1.564849  
     229A      1.659977   230A      1.676411   231A      1.685199  
     232A      1.692871   233A      1.702016   234A      1.702177  
     235A      1.713897   236A      1.720307   237A      1.727388  
     238A      1.727928   239A      1.760127   240A      1.760812  
     241A      1.768100   242A      1.778706   243A      1.792619  
     244A      1.817548   245A      1.831024   246A      1.834043  
     247A      1.839223   248A      1.841284   249A      1.842481  
     250A      1.856623   251A      1.883015   252A      1.886523  
     253A      1.890357   254A      1.910854   255A      1.913182  
     256A      1.916191   257A      1.938261   258A      1.994415  
     259A      1.996361   260A      1.998527   261A      2.009683  
     262A      2.011448   263A      2.019213   264A      2.021072  
     265A      2.041109   266A      2.053287   267A      2.053367  
     268A      2.060258   269A      2.082331   270A      2.087951  
     271A      2.095299   272A      2.105482   273A      2.111485  
     274A      2.117890   275A      2.134016   276A      2.229605  
     277A      2.231571   278A      2.271544   279A      2.273893  
     280A      2.341646   281A      2.341711   282A      2.352405  
     283A      2.368199   284A      2.372489   285A      2.374691  
     286A      2.388658   287A      2.403394   288A      2.414137  
     289A      2.441496   290A      2.447840   291A      2.513294  
     292A      2.514003   293A      2.534034   294A      2.542353  
     295A      2.558229   296A      2.563537   297A      2.566653  
     298A      2.569401   299A      2.583598   300A      2.590460  
     301A      2.595354   302A      2.600513   303A      2.658829  
     304A      2.717158   305A      2.737681   306A      2.753905  
     307A      2.764325   308A      2.793429   309A      2.841935  
     310A      2.842317   311A      2.868004   312A      2.896329  
     313A      2.929436   314A      3.079580   315A      3.081990  
     316A      3.125929   317A      3.167066   318A      3.170564  
     319A      3.182128   320A      3.186205   321A      3.200878  
     322A      3.224370   323A      3.225211   324A      3.307259  
     325A      3.312500   326A      3.320477   327A      3.330766  
     328A      3.342558   329A      3.363475   330A      3.371321  
     331A      3.371761   332A      3.394816   333A      3.398580  
     334A      3.404843   335A      3.408620   336A      3.414167  
     337A      3.430423   338A      3.431203   339A      3.524073  
     340A      3.534041   341A      3.536099   342A      3.536538  
     343A      3.537868   344A      3.566204   345A      3.568783  
     346A      3.576329   347A      3.579425   348A      3.616404  
     349A      3.631851   350A      3.632979   351A      3.651424  
     352A      3.657230   353A      3.658135   354A      3.720664  
     355A      3.751513   356A      3.772384   357A      3.802958  
     358A      3.823070   359A      3.833898   360A      3.834802  
     361A      3.838555   362A      3.838586   363A      3.848900  
     364A      3.850950   365A      3.872278   366A      3.875884  
     367A      3.966787   368A      3.971813   369A      3.990410  
     370A      3.991195   371A      3.992709   372A      4.040295  
     373A      4.041911   374A      4.053917   375A      4.054770  
     376A      4.057018   377A      4.107992   378A      4.109163  
     379A      4.128995   380A      4.134085   381A      4.134389  
     382A      4.172175   383A      4.187891   384A      4.205274  
     385A      4.248491   386A      4.249733   387A      4.289801  
     388A      4.291798   389A      4.334156   390A      4.336989  
     391A      4.354257   392A      4.365459   393A      4.373170  
     394A      4.376617   395A      4.428750   396A      4.432655  
     397A      4.434591   398A      4.434717   399A      4.443174  
     400A      4.443191   401A      4.461915   402A      4.472313  
     403A      4.474657   404A      4.476485   405A      4.510149  
     406A      4.510189   407A      4.595428   408A      4.605332  
     409A      4.663308   410A      4.685944   411A      4.703393  
     412A      4.720837   413A      4.720892   414A      4.728041  
     415A      4.730163   416A      4.742509   417A      4.796511  
     418A      4.797029   419A      4.874623   420A      4.875421  
     421A      4.880639   422A      4.882780   423A      4.892918  
     424A      4.929226   425A      4.936038   426A      4.941941  
     427A      5.033102   428A      5.033749   429A      5.081075  
     430A      5.081276   431A      5.085652   432A      5.096648  
     433A      5.118100   434A      5.127887   435A      5.154107  
     436A      5.155088   437A      5.181012   438A      5.181877  
     439A      5.182079   440A      5.182173   441A      5.220827  
     442A      5.239318   443A      5.240409   444A      5.339769  
     445A      5.340137   446A      5.346230   447A      5.355550  
     448A      5.433140   449A      5.435672   450A      5.440984  
     451A      5.441388   452A      5.504870   453A      5.538320  
     454A      5.569061   455A      5.626684   456A      5.651088  
     457A      5.743769   458A      5.744422   459A      5.792655  
     460A      5.792863   461A      5.857609   462A      5.861600  
     463A      5.881439   464A      5.948514   465A      5.982853  
     466A      6.121614   467A      6.172034   468A      6.176955  
     469A      6.271863   470A      6.272432   471A      6.372843  
     472A      6.373507   473A      6.399482   474A      6.402099  
     475A      6.614591   476A      6.651147   477A      6.651632  
     478A      6.860441   479A      6.860960   480A      7.029484  
     481A      7.075877   482A      7.220628   483A      7.444067  
     484A      7.678868   485A      7.843910   486A      8.044127  
     487A      8.150897   488A      8.297828   489A      8.742129  
     490A      8.846046   491A      9.644463   492A      9.849202  
     493A      9.999692   494A     10.238507   495A     11.253639  
     496A     11.630707   497A     12.102439   498A     13.514570  
     499A     13.816657   500A     16.046726   501A     16.051374  
     502A     17.298590   503A     19.346737   504A     19.363499  
     505A     19.562263   506A     64.661133  

    Final Occupation by Irrep:
              A 
    DOCC [    21 ]

  @DF-RHF Final Energy:  -230.78122350758568

   => Energetics <=

    Nuclear Repulsion Energy =            203.6341304953361941
    One-Electron Energy =                -713.7219338341856201
    Two-Electron Energy =                 279.3065798312637753
    Total Energy =                       -230.7812235075856506

Computation Completed


Properties will be evaluated at   0.000000,   0.000000,   0.000000 [a0]

Properties computed using the SCF density matrix

  Nuclear Dipole Moment: [e a0]
     X:    77.2065      Y:     8.6662      Z:     0.0000

  Electronic Dipole Moment: [e a0]
     X:   -77.2089      Y:    -8.6664      Z:    -0.0000

  Dipole Moment: [e a0]
     X:    -0.0025      Y:    -0.0003      Z:    -0.0000     Total:     0.0025

  Dipole Moment: [D]
     X:    -0.0063      Y:    -0.0006      Z:    -0.0000     Total:     0.0063


*** tstop() called on node144.bme.utexas.edu at Thu Apr 23 23:24:28 2020
Module time:
	user time   =     151.65 seconds =       2.53 minutes
	system time =       4.39 seconds =       0.07 minutes
	total time  =         23 seconds =       0.38 minutes
Total time:
	user time   =     415.33 seconds =       6.92 minutes
	system time =      11.98 seconds =       0.20 minutes
	total time  =         63 seconds =       1.05 minutes

  //>>>>>>>>>>>>>>>>>>>>>>>>>>>>>>>>>>>//
  //            Monomer B HF           //
  //<<<<<<<<<<<<<<<<<<<<<<<<<<<<<<<<<<<//


*** tstart() called on node144.bme.utexas.edu
*** at Thu Apr 23 23:24:28 2020

   => Loading Basis Set <=

    Name: AUG-CC-PVTZ
    Role: ORBITAL
    Keyword: BASIS
    atoms 1, 3, 5, 7, 9, 11         entry C          line   239 file /home/liuchw/anaconda3/envs/psi4env/share/psi4/basis/aug-cc-pvtz.gbs 
    atoms 2, 4, 6, 8, 10, 12, 14-15 entry H          line    40 file /home/liuchw/anaconda3/envs/psi4env/share/psi4/basis/aug-cc-pvtz.gbs 
    atoms 13                        entry O          line   331 file /home/liuchw/anaconda3/envs/psi4env/share/psi4/basis/aug-cc-pvtz.gbs 


         ---------------------------------------------------------
                                   SCF
               by Justin Turney, Rob Parrish, Andy Simmonett
                          and Daniel G. A. Smith
                              RHF Reference
                        8 Threads,  47683 MiB Core
         ---------------------------------------------------------

  ==> Geometry <==

    Molecular point group: c1
    Full point group: Cs

    Geometry (in Angstrom), charge = 0, multiplicity = 1:

       Center              X                  Y                   Z               Mass       
    ------------   -----------------  -----------------  -----------------  -----------------
      Gh(C)           1.123933913976    -0.571370355052    -1.207560000000    12.000000000000
      Gh(H)           1.239973913976    -1.099100355052    -2.144140000000     1.007825032230
      Gh(C)           0.821723913976     0.789529644948    -1.207890000000    12.000000000000
      Gh(H)           0.700743913976     1.316709644948    -2.144050000000     1.007825032230
      Gh(C)           0.671073913976     1.470409644948     0.000000000000    12.000000000000
      Gh(H)           0.435253913976     2.525679644948     0.000000000000     1.007825032230
      Gh(C)           0.821723913976     0.789529644948     1.207890000000    12.000000000000
      Gh(H)           0.700743913976     1.316709644948     2.144050000000     1.007825032230
      Gh(C)           1.123933913976    -0.571370355052     1.207560000000    12.000000000000
      Gh(H)           1.239973913976    -1.099100355052     2.144140000000     1.007825032230
      Gh(C)           1.275433913976    -1.251440355052     0.000000000000    12.000000000000
      Gh(H)           1.512273913976    -2.306670355052     0.000000000000     1.007825032230
         O           -4.274646086024    -0.441140355052     0.000000000000    15.994914619570
         H           -4.109846086024    -1.385860355052     0.000000000000     1.007825032230
         H           -3.387346086024    -0.069550355052     0.000000000000     1.007825032230

  Running in c1 symmetry.

  Rotational constants: A =      0.09539  B =      0.03446  C =      0.03443 [cm^-1]
  Rotational constants: A =   2859.62168  B =   1033.08003  C =   1032.31787 [MHz]
  Nuclear repulsion =    9.167682908823766

  Charge       = 0
  Multiplicity = 1
  Electrons    = 10
  Nalpha       = 5
  Nbeta        = 5

  ==> Algorithm <==

  SCF Algorithm Type is DF.
  DIIS enabled.
  MOM disabled.
  Fractional occupation disabled.
  Guess Type is SAD.
  Energy threshold   = 1.00e-08
  Density threshold  = 1.00e-08
  Integral threshold = 0.00e+00

  ==> Primary Basis <==

  Basis Set: AUG-CC-PVTZ
    Blend: AUG-CC-PVTZ
    Number of shells: 170
    Number of basis function: 506
    Number of Cartesian functions: 585
    Spherical Harmonics?: true
    Max angular momentum: 3

   => Loading Basis Set <=

    Name: (AUG-CC-PVTZ AUX)
    Role: JKFIT
    Keyword: DF_BASIS_SCF
    atoms 1, 3, 5, 7, 9, 11         entry C          line   162 file /home/liuchw/anaconda3/envs/psi4env/share/psi4/basis/aug-cc-pvtz-jkfit.gbs 
    atoms 2, 4, 6, 8, 10, 12, 14-15 entry H          line    70 file /home/liuchw/anaconda3/envs/psi4env/share/psi4/basis/aug-cc-pvtz-jkfit.gbs 
    atoms 13                        entry O          line   286 file /home/liuchw/anaconda3/envs/psi4env/share/psi4/basis/aug-cc-pvtz-jkfit.gbs 

  ==> Pre-Iterations <==

   -------------------------------------------------------
    Irrep   Nso     Nmo     Nalpha   Nbeta   Ndocc  Nsocc
   -------------------------------------------------------
     A        506     506       0       0       0       0
   -------------------------------------------------------
    Total     506     506       5       5       5       0
   -------------------------------------------------------

  ==> Integral Setup <==

  ==> DiskDFJK: Density-Fitted J/K Matrices <==

    J tasked:                  Yes
    K tasked:                  Yes
    wK tasked:                  No
    OpenMP threads:              8
    Integrals threads:           8
    Memory [MiB]:            35762
    Algorithm:                Core
    Integral Cache:           LOAD
    Schwarz Cutoff:          1E-12
    Fitting Condition:       1E-10

   => Auxiliary Basis Set <=

  Basis Set: (AUG-CC-PVTZ AUX)
    Blend: AUG-CC-PVTZ-JKFIT
    Number of shells: 322
    Number of basis function: 1096
    Number of Cartesian functions: 1357
    Spherical Harmonics?: true
    Max angular momentum: 4

  Minimum eigenvalue in the overlap matrix is 3.2070708674E-07.
  Using Symmetric Orthogonalization.

  SCF Guess: Superposition of Atomic Densities via on-the-fly atomic UHF.

  ==> Iterations <==

                           Total Energy        Delta E     RMS |[F,P]|

   @DF-RHF iter SAD:   -75.47608628392106   -7.54761e+01   0.00000e+00 
   @DF-RHF iter   1:   -75.97563732697115   -4.99551e-01   9.25793e-04 DIIS
   @DF-RHF iter   2:   -76.02815119818058   -5.25139e-02   6.32778e-04 DIIS
   @DF-RHF iter   3:   -76.05978961266744   -3.16384e-02   4.29601e-05 DIIS
   @DF-RHF iter   4:   -76.06017840482109   -3.88792e-04   1.03099e-05 DIIS
   @DF-RHF iter   5:   -76.06020291556641   -2.45107e-05   2.34987e-06 DIIS
   @DF-RHF iter   6:   -76.06020492696939   -2.01140e-06   5.12327e-07 DIIS
   @DF-RHF iter   7:   -76.06020503170345   -1.04734e-07   9.09540e-08 DIIS
   @DF-RHF iter   8:   -76.06020503459712   -2.89367e-09   1.52426e-08 DIIS
   @DF-RHF iter   9:   -76.06020503465990   -6.27836e-11   3.69707e-09 DIIS
  Energy and wave function converged.


  ==> Post-Iterations <==

    Orbital Energies [Eh]
    ---------------------

    Doubly Occupied:                                                      

       1A    -20.568522     2A     -1.353168     3A     -0.712786  
       4A     -0.587636     5A     -0.510592  

    Virtual:                                                              

       6A      0.012818     7A      0.028715     8A      0.029554  
       9A      0.038093    10A      0.046805    11A      0.046905  
      12A      0.057438    13A      0.064499    14A      0.073193  
      15A      0.084045    16A      0.091322    17A      0.091682  
      18A      0.093414    19A      0.107237    20A      0.119877  
      21A      0.121723    22A      0.121740    23A      0.125147  
      24A      0.127560    25A      0.128360    26A      0.132627  
      27A      0.147473    28A      0.152607    29A      0.156270  
      30A      0.156320    31A      0.161365    32A      0.161919  
      33A      0.189670    34A      0.190093    35A      0.192556  
      36A      0.193972    37A      0.200889    38A      0.212045  
      39A      0.228685    40A      0.230648    41A      0.231807  
      42A      0.249911    43A      0.266869    44A      0.267216  
      45A      0.283405    46A      0.283903    47A      0.284330  
      48A      0.297547    49A      0.298867    50A      0.305060  
      51A      0.307849    52A      0.313080    53A      0.313732  
      54A      0.319753    55A      0.327831    56A      0.331116  
      57A      0.335752    58A      0.350335    59A      0.355632  
      60A      0.359605    61A      0.360457    62A      0.360905  
      63A      0.363041    64A      0.366676    65A      0.392383  
      66A      0.394010    67A      0.399658    68A      0.401202  
      69A      0.405572    70A      0.407954    71A      0.421771  
      72A      0.427355    73A      0.429994    74A      0.431478  
      75A      0.436532    76A      0.443716    77A      0.466783  
      78A      0.471324    79A      0.479346    80A      0.488325  
      81A      0.490441    82A      0.496884    83A      0.516434  
      84A      0.518994    85A      0.540583    86A      0.541093  
      87A      0.544379    88A      0.564028    89A      0.583665  
      90A      0.586323    91A      0.590572    92A      0.595500  
      93A      0.610653    94A      0.611565    95A      0.617683  
      96A      0.621436    97A      0.626449    98A      0.644294  
      99A      0.655746   100A      0.661237   101A      0.663215  
     102A      0.673929   103A      0.676316   104A      0.684723  
     105A      0.687899   106A      0.700108   107A      0.700578  
     108A      0.707802   109A      0.709848   110A      0.719537  
     111A      0.727242   112A      0.729152   113A      0.735132  
     114A      0.737892   115A      0.738188   116A      0.740663  
     117A      0.747024   118A      0.750839   119A      0.762291  
     120A      0.765598   121A      0.775286   122A      0.779843  
     123A      0.795464   124A      0.814614   125A      0.821829  
     126A      0.855984   127A      0.858460   128A      0.871103  
     129A      0.875137   130A      0.880118   131A      0.894514  
     132A      0.909884   133A      0.917077   134A      0.924605  
     135A      0.931308   136A      0.939466   137A      0.954343  
     138A      0.958146   139A      0.971755   140A      0.984790  
     141A      0.996681   142A      1.016345   143A      1.024200  
     144A      1.028904   145A      1.031397   146A      1.034005  
     147A      1.044438   148A      1.052831   149A      1.066311  
     150A      1.072905   151A      1.073165   152A      1.076978  
     153A      1.077329   154A      1.085732   155A      1.086809  
     156A      1.095625   157A      1.104030   158A      1.114591  
     159A      1.135813   160A      1.146357   161A      1.151641  
     162A      1.156883   163A      1.160266   164A      1.167728  
     165A      1.169969   166A      1.173880   167A      1.182480  
     168A      1.183253   169A      1.188660   170A      1.225901  
     171A      1.226015   172A      1.234439   173A      1.261998  
     174A      1.264278   175A      1.279636   176A      1.287324  
     177A      1.289791   178A      1.291458   179A      1.297948  
     180A      1.299332   181A      1.304057   182A      1.305214  
     183A      1.306239   184A      1.306992   185A      1.307045  
     186A      1.309891   187A      1.310604   188A      1.313344  
     189A      1.314722   190A      1.320823   191A      1.339898  
     192A      1.379913   193A      1.389278   194A      1.408826  
     195A      1.432336   196A      1.466958   197A      1.469250  
     198A      1.475788   199A      1.504215   200A      1.508833  
     201A      1.509123   202A      1.510331   203A      1.534379  
     204A      1.537300   205A      1.546593   206A      1.549256  
     207A      1.552888   208A      1.553087   209A      1.554062  
     210A      1.559186   211A      1.567571   212A      1.585790  
     213A      1.595312   214A      1.606785   215A      1.638008  
     216A      1.639584   217A      1.665935   218A      1.666561  
     219A      1.667271   220A      1.676806   221A      1.679693  
     222A      1.686589   223A      1.710255   224A      1.804995  
     225A      1.823477   226A      1.835673   227A      1.846702  
     228A      1.846994   229A      1.869720   230A      1.881243  
     231A      1.883178   232A      1.888124   233A      1.888701  
     234A      1.896922   235A      1.980189   236A      2.005327  
     237A      2.005586   238A      2.006850   239A      2.013808  
     240A      2.100901   241A      2.101573   242A      2.136144  
     243A      2.148772   244A      2.149369   245A      2.152750  
     246A      2.154368   247A      2.160055   248A      2.167411  
     249A      2.169577   250A      2.192763   251A      2.194615  
     252A      2.208625   253A      2.216999   254A      2.241689  
     255A      2.270534   256A      2.284758   257A      2.303428  
     258A      2.313549   259A      2.319026   260A      2.319386  
     261A      2.325254   262A      2.325947   263A      2.333352  
     264A      2.340432   265A      2.344968   266A      2.346648  
     267A      2.355709   268A      2.365294   269A      2.378310  
     270A      2.378665   271A      2.396651   272A      2.445740  
     273A      2.451628   274A      2.458045   275A      2.462047  
     276A      2.474835   277A      2.498662   278A      2.500398  
     279A      2.512074   280A      2.513585   281A      2.527762  
     282A      2.531987   283A      2.541132   284A      2.543682  
     285A      2.543824   286A      2.607901   287A      2.609487  
     288A      2.675331   289A      2.701543   290A      2.728151  
     291A      2.732164   292A      2.743089   293A      2.771933  
     294A      2.815533   295A      2.822470   296A      2.826597  
     297A      2.832100   298A      2.850664   299A      2.873401  
     300A      2.874858   301A      2.876494   302A      2.912518  
     303A      2.922620   304A      3.030059   305A      3.093914  
     306A      3.123907   307A      3.124619   308A      3.276947  
     309A      3.278412   310A      3.482557   311A      3.482913  
     312A      3.573753   313A      3.679369   314A      3.765737  
     315A      3.782314   316A      3.790570   317A      3.798163  
     318A      3.851487   319A      3.858642   320A      3.928702  
     321A      3.974361   322A      3.987666   323A      3.995996  
     324A      4.000584   325A      4.023414   326A      4.028839  
     327A      4.029485   328A      4.044507   329A      4.051165  
     330A      4.057560   331A      4.077530   332A      4.083182  
     333A      4.116645   334A      4.124734   335A      4.132318  
     336A      4.156579   337A      4.168646   338A      4.169134  
     339A      4.199629   340A      4.206456   341A      4.206583  
     342A      4.263575   343A      4.268797   344A      4.274477  
     345A      4.277955   346A      4.284662   347A      4.286850  
     348A      4.303453   349A      4.305048   350A      4.340239  
     351A      4.340836   352A      4.360934   353A      4.378675  
     354A      4.387514   355A      4.403024   356A      4.415201  
     357A      4.472886   358A      4.484584   359A      4.484594  
     360A      4.518620   361A      4.544150   362A      4.552385  
     363A      4.554432   364A      4.556445   365A      4.557672  
     366A      4.564552   367A      4.569375   368A      4.570944  
     369A      4.572641   370A      4.627746   371A      4.628474  
     372A      4.638112   373A      4.701154   374A      4.701668  
     375A      4.770388   376A      4.777627   377A      4.788974  
     378A      4.789015   379A      4.872762   380A      4.882016  
     381A      4.918250   382A      4.963288   383A      4.965086  
     384A      4.966161   385A      4.970212   386A      5.052328  
     387A      5.052389   388A      5.098340   389A      5.101100  
     390A      5.101813   391A      5.116439   392A      5.129849  
     393A      5.150944   394A      5.153308   395A      5.169810  
     396A      5.170900   397A      5.180733   398A      5.204007  
     399A      5.204119   400A      5.209305   401A      5.265998  
     402A      5.266835   403A      5.267608   404A      5.337994  
     405A      5.398794   406A      5.408908   407A      5.410441  
     408A      5.440517   409A      5.443888   410A      5.478876  
     411A      5.479527   412A      5.497743   413A      5.523238  
     414A      5.531378   415A      5.621634   416A      5.621725  
     417A      5.633965   418A      5.646629   419A      5.658523  
     420A      5.660244   421A      5.686836   422A      5.718530  
     423A      5.719012   424A      5.728028   425A      5.729972  
     426A      5.761093   427A      5.784757   428A      5.785041  
     429A      5.786151   430A      5.787409   431A      5.859835  
     432A      5.955216   433A      5.955248   434A      5.995847  
     435A      5.997387   436A      6.128685   437A      6.129197  
     438A      6.167033   439A      6.186941   440A      6.187920  
     441A      6.188407   442A      6.203250   443A      6.206943  
     444A      6.294790   445A      6.426113   446A      6.427021  
     447A      6.458046   448A      6.516004   449A      6.522756  
     450A      6.702862   451A      6.723922   452A      6.763604  
     453A      6.766757   454A      6.877021   455A      6.878705  
     456A      6.933726   457A      6.976292   458A      7.052904  
     459A      7.054259   460A      7.103883   461A      7.106557  
     462A      7.138234   463A      7.147895   464A      7.148054  
     465A      7.275906   466A      7.289719   467A      7.330792  
     468A      7.368529   469A      7.369432   470A      7.390412  
     471A      7.458210   472A      7.460143   473A      7.566496  
     474A      7.567835   475A      7.646345   476A      7.647446  
     477A      7.778161   478A      7.884592   479A      7.890728  
     480A      7.956290   481A      7.995414   482A      8.189786  
     483A      8.191049   484A      8.206149   485A      8.323576  
     486A      8.324308   487A      8.832601   488A      8.949670  
     489A      8.950952   490A      9.318519   491A      9.331316  
     492A      9.359336   493A     10.038790   494A     10.039841  
     495A     10.979382   496A     11.032750   497A     11.192982  
     498A     11.309699   499A     11.314169   500A     15.830703  
     501A     49.645920   502A     49.655320   503A     50.397094  
     504A     55.328084   505A     55.358606   506A     56.603698  

    Final Occupation by Irrep:
              A 
    DOCC [     5 ]

  @DF-RHF Final Energy:   -76.06020503465990

   => Energetics <=

    Nuclear Repulsion Energy =              9.1676829088237657
    One-Electron Energy =                -122.9903667328743921
    Two-Electron Energy =                  37.7624787893907268
    Total Energy =                        -76.0602050346599015

Computation Completed


Properties will be evaluated at   0.000000,   0.000000,   0.000000 [a0]

Properties computed using the SCF density matrix

  Nuclear Dipole Moment: [e a0]
     X:   -78.7909      Y:    -9.4194      Z:     0.0000

  Electronic Dipole Moment: [e a0]
     X:    79.4865      Y:     9.0399      Z:     0.0000

  Dipole Moment: [e a0]
     X:     0.6955      Y:    -0.3795      Z:     0.0000     Total:     0.7923

  Dipole Moment: [D]
     X:     1.7679      Y:    -0.9646      Z:     0.0000     Total:     2.0139


*** tstop() called on node144.bme.utexas.edu at Thu Apr 23 23:24:48 2020
Module time:
	user time   =     122.84 seconds =       2.05 minutes
	system time =       3.48 seconds =       0.06 minutes
	total time  =         20 seconds =       0.33 minutes
Total time:
	user time   =     538.24 seconds =       8.97 minutes
	system time =      15.47 seconds =       0.26 minutes
	total time  =         83 seconds =       1.38 minutes
  Constructing Basis Sets for SAPT...

   => Loading Basis Set <=

    Name: (AUG-CC-PVTZ AUX)
    Role: RIFIT
    Keyword: DF_BASIS_SAPT
    atoms 1, 3, 5, 7, 9, 11         entry C          line   148 file /home/liuchw/anaconda3/envs/psi4env/share/psi4/basis/aug-cc-pvtz-ri.gbs 
    atoms 2, 4, 6, 8, 10, 12, 14-15 entry H          line    30 file /home/liuchw/anaconda3/envs/psi4env/share/psi4/basis/aug-cc-pvtz-ri.gbs 
    atoms 13                        entry O          line   264 file /home/liuchw/anaconda3/envs/psi4env/share/psi4/basis/aug-cc-pvtz-ri.gbs 


  //>>>>>>>>>>>>>>>>>>>>>>>>>>>>>>>>>>>//
  //               SAPT2+              //
  //<<<<<<<<<<<<<<<<<<<<<<<<<<<<<<<<<<<//


*** tstart() called on node144.bme.utexas.edu
*** at Thu Apr 23 23:24:48 2020

        SAPT2+  
    Ed Hohenstein
     6 June 2009

      Orbital Information
  --------------------------
    NSO        =       506
    NMO        =       506
    NRI        =      1110
    NOCC A     =        21
    NOCC B     =         5
    FOCC A     =         6
    FOCC B     =         1
    NVIR A     =       485
    NVIR B     =       501

    Estimated memory usage: 4885.5 MB

    Natural Orbital Cutoff:   1.000E-06
    Disp(T3) Truncation:            Yes
    CCD (vv|vv) Truncation:         Yes
    MBPT T2 Truncation:             Yes

    Monomer A: 144 virtual orbitals dropped
    Monomer B: 423 virtual orbitals dropped

    Elst10,r            =    -0.001074608310 [Eh]
    Exch10 (S^2)        =     0.000011799704 [Eh]
    Exch10              =     0.000011799759 [Eh]
    Ind20,r (A<-B)      =    -0.000055711731 [Eh]
    Ind20,r (B<-A)      =    -0.000010672730 [Eh]
    Ind20,r             =    -0.000066384461 [Eh]
    Exch-Ind20,r (A<-B) =     0.000001818128 [Eh]
    Exch-Ind20,r (B<-A) =     0.000000211513 [Eh]
    Exch-Ind20,r        =     0.000002029642 [Eh]
    Disp20              =    -0.000351642764 [Eh]
    Disp20 (NO)         =    -0.000336233924 [Eh]
    Exch-Disp20         =     0.000002333425 [Eh]
    Elst12,r            =     0.000179876747 [Eh]
    Exch11              =     0.000000450108 [Eh]
    Exch12              =     0.000001918318 [Eh]
    Ind22               =     0.000006205113 [Eh]
    Disp21              =     0.000071711042 [Eh]
    Disp22 (SDQ)        =     0.000006901572 [Eh]

    (i =   1 of   4)        198 seconds
    (i =   2 of   4)        374 seconds
    (i =   3 of   4)        653 seconds
    (i =   4 of   4)        839 seconds

    Disp220 (T)         =    -0.000035593701 [Eh]

    (i =   1 of  15)          6 seconds
    (i =   2 of  15)         13 seconds
    (i =   3 of  15)         18 seconds
    (i =   4 of  15)         25 seconds
    (i =   5 of  15)         33 seconds
    (i =   6 of  15)         39 seconds
    (i =   7 of  15)         45 seconds
    (i =   8 of  15)         51 seconds
    (i =   9 of  15)         58 seconds
    (i =  10 of  15)         64 seconds
    (i =  11 of  15)         70 seconds
    (i =  12 of  15)         76 seconds
    (i =  13 of  15)         81 seconds
    (i =  14 of  15)         88 seconds
    (i =  15 of  15)         95 seconds

    Disp202 (T)         =    -0.000037780557 [Eh]

    Disp22 (T)          =    -0.000073374257 [Eh]

    Est. Disp220 (T)    =    -0.000037224880 [Eh]
    Est. Disp202 (T)    =    -0.000039511954 [Eh]

    Est. Disp22 (T)     =    -0.000076736834 [Eh]

    SAPT Results 
  --------------------------------------------------------------------------------------------------------
    Electrostatics                 -0.89473156 [mEh]      -0.56145253 [kcal/mol]      -2.34911739 [kJ/mol]
      Elst10,r                     -1.07460831 [mEh]      -0.67432689 [kcal/mol]      -2.82138373 [kJ/mol]
      Elst12,r                      0.17987675 [mEh]       0.11287436 [kcal/mol]       0.47226633 [kJ/mol]

    Exchange                        0.01416818 [mEh]       0.00889067 [kcal/mol]       0.03719856 [kJ/mol]
      Exch10                        0.01179976 [mEh]       0.00740446 [kcal/mol]       0.03098026 [kJ/mol]
      Exch10(S^2)                   0.01179970 [mEh]       0.00740443 [kcal/mol]       0.03098012 [kJ/mol]
      Exch11(S^2)                   0.00045011 [mEh]       0.00028245 [kcal/mol]       0.00118176 [kJ/mol]
      Exch12(S^2)                   0.00191832 [mEh]       0.00120376 [kcal/mol]       0.00503654 [kJ/mol]

    Induction                      -0.06140308 [mEh]      -0.03853101 [kcal/mol]      -0.16121377 [kJ/mol]
      Ind20,r                      -0.06638446 [mEh]      -0.04165688 [kcal/mol]      -0.17429238 [kJ/mol]
      Ind22                         0.00620511 [mEh]       0.00389377 [kcal/mol]       0.01629152 [kJ/mol]
      Exch-Ind20,r                  0.00202964 [mEh]       0.00127362 [kcal/mol]       0.00532882 [kJ/mol]
      Exch-Ind22                   -0.00018972 [mEh]      -0.00011905 [kcal/mol]      -0.00049810 [kJ/mol]
      delta HF,r (2)               -0.00306366 [mEh]      -0.00192248 [kcal/mol]      -0.00804364 [kJ/mol]

    Dispersion                     -0.34743356 [mEh]      -0.21801785 [kcal/mol]      -0.91218668 [kJ/mol]
      Disp20                       -0.35164276 [mEh]      -0.22065917 [kcal/mol]      -0.92323795 [kJ/mol]
      Disp21                        0.07171104 [mEh]       0.04499936 [kcal/mol]       0.18827731 [kJ/mol]
      Disp22 (SDQ)                  0.00690157 [mEh]       0.00433080 [kcal/mol]       0.01812008 [kJ/mol]
      Disp22 (T)                   -0.07337426 [mEh]      -0.04604304 [kcal/mol]      -0.19264409 [kJ/mol]
      Est. Disp22 (T)              -0.07673683 [mEh]      -0.04815309 [kcal/mol]      -0.20147253 [kJ/mol]
      Exch-Disp20                   0.00233342 [mEh]       0.00146425 [kcal/mol]       0.00612641 [kJ/mol]

  Total HF                         -1.13022703 [mEh]      -0.70922817 [kcal/mol]      -2.96741065 [kJ/mol]
  Total SAPT0                      -1.47953637 [mEh]      -0.92842309 [kcal/mol]      -3.88452220 [kJ/mol]
  Total SAPT2                      -1.29127580 [mEh]      -0.81028780 [kcal/mol]      -3.39024414 [kJ/mol]
  Total SAPT2+                     -1.28940002 [mEh]      -0.80911073 [kcal/mol]      -3.38531928 [kJ/mol]

  Special recipe for scaled SAPT0 (see Manual):
    Electrostatics sSAPT0          -1.07460831 [mEh]      -0.67432689 [kcal/mol]      -2.82138373 [kJ/mol]
    Exchange sSAPT0                 0.01179976 [mEh]       0.00740446 [kcal/mol]       0.03098026 [kJ/mol]
    Induction sSAPT0               -0.06741845 [mEh]      -0.04230572 [kcal/mol]      -0.17700711 [kJ/mol]
    Dispersion sSAPT0              -0.34930931 [mEh]      -0.21919490 [kcal/mol]      -0.91711146 [kJ/mol]
  Total sSAPT0                     -1.47953631 [mEh]      -0.92842305 [kcal/mol]      -3.88452204 [kJ/mol]
  --------------------------------------------------------------------------------------------------------

*** tstop() called on node144.bme.utexas.edu at Fri Apr 24 00:04:29 2020
Module time:
	user time   =   15121.86 seconds =     252.03 minutes
	system time =     540.72 seconds =       9.01 minutes
	total time  =       2381 seconds =      39.68 minutes
Total time:
	user time   =   15661.09 seconds =     261.02 minutes
	system time =     556.26 seconds =       9.27 minutes
	total time  =       2464 seconds =      41.07 minutes

    Psi4 stopped on: Friday, 24 April 2020 12:04AM
    Psi4 wall time for execution: 0:41:04.79

*** Psi4 exiting successfully. Buy a developer a beer!
