    -----------------------------------------------------------------------
          PSI4: An Open-Source Ab Initio Electronic Structure Package
                              PSI 4.0.0-beta4 Driver

    J. M. Turney, A. C. Simmonett, R. M. Parrish, E. G. Hohenstein,
    F. A. Evangelista, J. T. Fermann, B. J. Mintz, L. A. Burns, J. J. Wilke,
    M. L. Abrams, N. J. Russ, M. L. Leininger, C. L. Janssen, E. T. Seidl,
    W. D. Allen, H. F. Schaefer, R. A. King, E. F. Valeev, C. D. Sherrill,
    and T. D. Crawford, WIREs Comput. Mol. Sci., (2011) (doi: 10.1002/wcms.93)

                         Additional Contributions by
    A. E. DePrince, M. Saitow, U. Bozkaya, A. Yu. Sokolov
    -----------------------------------------------------------------------

    Process ID:  11903
    PSI4DATADIR: /home/xzhu216/psi4/psi4-install/share/psi

    Using LocalCommunicator (Number of processes = 1)

    Memory level set to 256.000 MB

  ==> Input File <==

--------------------------------------------------------------------------
#psi4
#
memory 7 gb

molecule Benzene_Water {
0 1
C    0.780147171  -0.609914733  -1.207556891
H    0.896191595  -1.137639594  -2.144144625
C    0.477942753   0.750993631  -1.207895407
H    0.356964231   1.278167803  -2.144054074
C    0.327289279   1.431867868  -0.000000000
H    0.091465028   2.487139215   0.000000000
C    0.477942754   0.750993631   1.207895407
H    0.356964231   1.278167803   2.144054074
C    0.780147171  -0.609914733   1.207556891
H    0.896191595  -1.137639594   2.144144625
C    0.931648311  -1.289981342   0.000000000
H    1.168485730  -2.345213690  -0.000000000
--
0 1
O   -2.927711248  -0.289902451  -0.000000000
H   -2.762907253  -1.234623979  -0.000000000
H   -2.040410305   0.081687874  -0.000000000
units angstrom
no_reorient  #important for SAPT in psi4, default
symmetry c1  #important for SAPT in psi4, default
}

set {
basis aug-cc-pVTZ
scf_type DF
freeze_core True
}
energy('sapt2+')
--------------------------------------------------------------------------

  Memory set to   7.000 GiB by Python script.

  //>>>>>>>>>>>>>>>>>>>>>>>>>>>>>>>>>>>//
  //              Dimer HF             //
  //<<<<<<<<<<<<<<<<<<<<<<<<<<<<<<<<<<<//


  No DF_BASIS_SCF auxiliary basis selected, defaulting to aug-cc-pvtz-jkfit


*** tstart() called on node143.bme.utexas.edu
*** at Sat Oct 19 14:38:22 2013


         ---------------------------------------------------------
                                   SCF
            by Justin Turney, Rob Parrish, and Andy Simmonett
                              RHF Reference
                        8 Threads,   7000 MiB Core
         ---------------------------------------------------------

  ==> Geometry <==

    Molecular point group: c1
    Full point group: Cs

    Geometry (in Angstrom), charge = 0, multiplicity = 1:

       Center              X                  Y                   Z       
    ------------   -----------------  -----------------  -----------------
           C          0.806925422713    -0.606957138637    -1.207556891000
           H          0.922969846713    -1.134681999637    -2.144144625000
           C          0.504721004713     0.753951225363    -1.207895407000
           H          0.383742482713     1.281125397363    -2.144054074000
           C          0.354067530713     1.434825462363     0.000000000000
           H          0.118243279713     2.490096809363     0.000000000000
           C          0.504721005713     0.753951225363     1.207895407000
           H          0.383742482713     1.281125397363     2.144054074000
           C          0.806925422713    -0.606957138637     1.207556891000
           H          0.922969846713    -1.134681999637     2.144144625000
           C          0.958426562713    -1.287023747637     0.000000000000
           H          1.195263981713    -2.342256095637     0.000000000000
           O         -2.900932996287    -0.286944856637     0.000000000000
           H         -2.736129001287    -1.231666384637     0.000000000000
           H         -2.013632053287     0.084645468363     0.000000000000

  Running in c1 symmetry.

  Nuclear repulsion =  271.292884133780660

  Charge       = 0
  Multiplicity = 1
  Electrons    = 52
  Nalpha       = 26
  Nbeta        = 26

  ==> Algorithm <==

  SCF Algorithm Type is DF.
  DIIS enabled.
  MOM disabled.
  Fractional occupation disabled.
  Guess Type is CORE.
  Energy threshold   = 1.00e-08
  Density threshold  = 1.00e-08
  Integral threshold = 0.00e+00

  ==> Primary Basis <==

  Basis Set: AUG-CC-PVTZ
    Number of shells: 170
    Number of basis function: 506
    Number of Cartesian functions: 585
    Spherical Harmonics?: true
    Max angular momentum: 3

  ==> Pre-Iterations <==

   -------------------------------------------------------
    Irrep   Nso     Nmo     Nalpha   Nbeta   Ndocc  Nsocc
   -------------------------------------------------------
     A        506     506       0       0       0       0
   -------------------------------------------------------
    Total     506     506      26      26      26       0
   -------------------------------------------------------

 OEINTS: Wrapper to libmints.
   by Justin Turney

   Calculation information:
      Number of atoms:                  15
      Number of AO shells:             170
      Number of SO shells:             170
      Number of primitives:            298
      Number of atomic orbitals:       585
      Number of basis functions:       506

      Number of irreps:                  1
      Number of functions per irrep: [ 506 ]

      Overlap, kinetic, potential, dipole, and quadrupole integrals
        stored in file 35.

  ==> Integral Setup <==

  ==> DFJK: Density-Fitted J/K Matrices <==

    J tasked:                  Yes
    K tasked:                  Yes
    wK tasked:                  No
    OpenMP threads:              8
    Integrals threads:           8
    Memory (MB):              5006
    Algorithm:                Core
    Integral Cache:           SAVE
    Schwarz Cutoff:          0E+00
    Fitting Condition:       1E-12

   => Auxiliary Basis Set <=

  Basis Set: aug-cc-pvtz-jkfit
    Number of shells: 322
    Number of basis function: 1096
    Number of Cartesian functions: 1357
    Spherical Harmonics?: true
    Max angular momentum: 4

  Minimum eigenvalue in the overlap matrix is 2.9031995595E-07.
  Using Symmetric Orthogonalization.
  SCF Guess: Core (One-Electron) Hamiltonian.

  Guess energy:  -245.19672869241668

  ==> Iterations <==

                        Total Energy        Delta E     RMS |[F,P]|

   @RHF iter   1:  -207.15106326186407   -2.07151e+02   2.41190e-02 
   @RHF iter   2:   -48.57514078788915    1.58576e+02   3.82114e-02 DIIS
   @RHF iter   3:  -247.39094345774146   -1.98816e+02   1.14915e-02 DIIS
   @RHF iter   4:  -287.88881487142993   -4.04979e+01   1.13859e-02 DIIS
   @RHF iter   5:  -303.78745721946331   -1.58986e+01   4.65164e-03 DIIS
   @RHF iter   6:  -306.03730703463935   -2.24985e+00   2.31744e-03 DIIS
   @RHF iter   7:  -306.67070569491733   -6.33399e-01   1.10359e-03 DIIS
   @RHF iter   8:  -306.83671303235843   -1.66007e-01   1.79055e-04 DIIS
   @RHF iter   9:  -306.84333806731826   -6.62503e-03   4.68601e-05 DIIS
   @RHF iter  10:  -306.84361305708995   -2.74990e-04   1.30260e-05 DIIS
   @RHF iter  11:  -306.84365557590701   -4.25188e-05   2.88032e-06 DIIS
   @RHF iter  12:  -306.84365851772560   -2.94182e-06   7.89823e-07 DIIS
   @RHF iter  13:  -306.84365874407519   -2.26350e-07   3.09145e-07 DIIS
   @RHF iter  14:  -306.84365877876058   -3.46854e-08   1.37574e-07 DIIS
   @RHF iter  15:  -306.84365878808131   -9.32073e-09   5.81724e-08 DIIS
   @RHF iter  16:  -306.84365879013018   -2.04886e-09   2.95015e-08 DIIS
   @RHF iter  17:  -306.84365879079070   -6.60521e-10   1.06674e-08 DIIS
   @RHF iter  18:  -306.84365879086482   -7.41238e-11   2.43957e-09 DIIS

  ==> Post-Iterations <==

	Orbital Energies (a.u.)
	-----------------------

	Doubly Occupied:                                                      

	   1A    -20.548652     2A    -11.247391     3A    -11.246826  
	   4A    -11.246718     5A    -11.245577     6A    -11.245474  
	   7A    -11.244900     8A     -1.334418     9A     -1.162192  
	  10A     -1.026240    11A     -1.026039    12A     -0.835012  
	  13A     -0.834890    14A     -0.720445    15A     -0.694971  
	  16A     -0.654385    17A     -0.630020    18A     -0.598848  
	  19A     -0.598765    20A     -0.571801    21A     -0.513066  
	  22A     -0.505466    23A     -0.505344    24A     -0.492502  
	  25A     -0.349649    26A     -0.348493  

	Virtual:                                                              

	  27A      0.025743    28A      0.032990    29A      0.033037  
	  30A      0.046346    31A      0.046506    32A      0.050824  
	  33A      0.063271    34A      0.077002    35A      0.094287  
	  36A      0.094874    37A      0.095749    38A      0.103847  
	  39A      0.110766    40A      0.117892    41A      0.118447  
	  42A      0.120404    43A      0.125106    44A      0.125415  
	  45A      0.127841    46A      0.137653    47A      0.142321  
	  48A      0.151189    49A      0.152613    50A      0.153701  
	  51A      0.155450    52A      0.155593    53A      0.160438  
	  54A      0.171252    55A      0.187108    56A      0.223495  
	  57A      0.224036    58A      0.229178    59A      0.234346  
	  60A      0.241311    61A      0.242129    62A      0.245152  
	  63A      0.250225    64A      0.268928    65A      0.279861  
	  66A      0.281273    67A      0.297561    68A      0.301209  
	  69A      0.303716    70A      0.305382    71A      0.308902  
	  72A      0.311145    73A      0.320460    74A      0.321350  
	  75A      0.328609    76A      0.331432    77A      0.344342  
	  78A      0.344385    79A      0.345655    80A      0.346756  
	  81A      0.355454    82A      0.356627    83A      0.367850  
	  84A      0.379031    85A      0.382817    86A      0.395084  
	  87A      0.401656    88A      0.411631    89A      0.419419  
	  90A      0.439831    91A      0.445685    92A      0.451989  
	  93A      0.454110    94A      0.457355    95A      0.462869  
	  96A      0.472483    97A      0.478043    98A      0.481344  
	  99A      0.481551   100A      0.483712   101A      0.485806  
	 102A      0.496991   103A      0.502553   104A      0.515077  
	 105A      0.517499   106A      0.518142   107A      0.526535  
	 108A      0.528121   109A      0.532185   110A      0.538748  
	 111A      0.541085   112A      0.541276   113A      0.560010  
	 114A      0.566428   115A      0.608047   116A      0.611088  
	 117A      0.618753   118A      0.627932   119A      0.644773  
	 120A      0.645776   121A      0.653697   122A      0.655588  
	 123A      0.658674   124A      0.659242   125A      0.697259  
	 126A      0.697620   127A      0.700451   128A      0.704024  
	 129A      0.704695   130A      0.718042   131A      0.727363  
	 132A      0.728008   133A      0.734162   134A      0.744940  
	 135A      0.759378   136A      0.777480   137A      0.781216  
	 138A      0.791954   139A      0.794155   140A      0.803178  
	 141A      0.812406   142A      0.821138   143A      0.828887  
	 144A      0.833345   145A      0.849366   146A      0.850547  
	 147A      0.864072   148A      0.866431   149A      0.868413  
	 150A      0.870666   151A      0.878414   152A      0.885211  
	 153A      0.888355   154A      0.891430   155A      0.897866  
	 156A      0.900735   157A      0.901707   158A      0.915802  
	 159A      0.923188   160A      0.932966   161A      0.965180  
	 162A      0.972373   163A      0.981338   164A      0.989760  
	 165A      0.992531   166A      1.005620   167A      1.011035  
	 168A      1.023965   169A      1.035133   170A      1.042404  
	 171A      1.053972   172A      1.056091   173A      1.063993  
	 174A      1.077964   175A      1.078738   176A      1.083735  
	 177A      1.089863   178A      1.091906   179A      1.092553  
	 180A      1.100561   181A      1.111435   182A      1.111437  
	 183A      1.119295   184A      1.123100   185A      1.130934  
	 186A      1.142292   187A      1.146316   188A      1.147504  
	 189A      1.154637   190A      1.163839   191A      1.169637  
	 192A      1.178599   193A      1.184252   194A      1.199404  
	 195A      1.208175   196A      1.217066   197A      1.227737  
	 198A      1.236527   199A      1.241640   200A      1.255048  
	 201A      1.260812   202A      1.261153   203A      1.272674  
	 204A      1.282170   205A      1.286968   206A      1.291498  
	 207A      1.315158   208A      1.323193   209A      1.335757  
	 210A      1.356766   211A      1.359106   212A      1.380163  
	 213A      1.380607   214A      1.383790   215A      1.395138  
	 216A      1.402135   217A      1.421553   218A      1.425153  
	 219A      1.447141   220A      1.459782   221A      1.470401  
	 222A      1.487248   223A      1.488910   224A      1.493020  
	 225A      1.509962   226A      1.512256   227A      1.517663  
	 228A      1.542536   229A      1.542915   230A      1.553645  
	 231A      1.598259   232A      1.603519   233A      1.645756  
	 234A      1.683982   235A      1.690044   236A      1.694022  
	 237A      1.697807   238A      1.703270   239A      1.709242  
	 240A      1.709500   241A      1.721110   242A      1.750518  
	 243A      1.752002   244A      1.766463   245A      1.782766  
	 246A      1.792247   247A      1.808639   248A      1.823468  
	 249A      1.830718   250A      1.837357   251A      1.839573  
	 252A      1.853093   253A      1.866923   254A      1.872696  
	 255A      1.900332   256A      1.903929   257A      1.917520  
	 258A      1.937427   259A      1.957103   260A      1.967751  
	 261A      1.987894   262A      1.994111   263A      2.001543  
	 264A      2.010937   265A      2.011553   266A      2.029004  
	 267A      2.031924   268A      2.039661   269A      2.054018  
	 270A      2.070750   271A      2.071593   272A      2.090780  
	 273A      2.092172   274A      2.096325   275A      2.104812  
	 276A      2.116332   277A      2.124612   278A      2.150263  
	 279A      2.184073   280A      2.260934   281A      2.264176  
	 282A      2.268111   283A      2.300778   284A      2.326536  
	 285A      2.332192   286A      2.339282   287A      2.342315  
	 288A      2.362874   289A      2.369985   290A      2.393068  
	 291A      2.426120   292A      2.432418   293A      2.436584  
	 294A      2.458615   295A      2.506858   296A      2.507870  
	 297A      2.526436   298A      2.534335   299A      2.549970  
	 300A      2.557174   301A      2.562539   302A      2.572931  
	 303A      2.589488   304A      2.595376   305A      2.597114  
	 306A      2.632237   307A      2.668689   308A      2.730509  
	 309A      2.743256   310A      2.755602   311A      2.766735  
	 312A      2.784282   313A      2.821176   314A      2.834895  
	 315A      2.839148   316A      2.893931   317A      2.899950  
	 318A      2.963108   319A      2.965484   320A      2.995948  
	 321A      3.056339   322A      3.097369   323A      3.124005  
	 324A      3.198207   325A      3.208761   326A      3.258253  
	 327A      3.281503   328A      3.299183   329A      3.310090  
	 330A      3.343297   331A      3.345010   332A      3.372981  
	 333A      3.375149   334A      3.381256   335A      3.394826  
	 336A      3.411843   337A      3.441850   338A      3.443352  
	 339A      3.462140   340A      3.476307   341A      3.525197  
	 342A      3.528828   343A      3.554327   344A      3.555073  
	 345A      3.570128   346A      3.600606   347A      3.602035  
	 348A      3.606818   349A      3.644273   350A      3.644872  
	 351A      3.645267   352A      3.661845   353A      3.677802  
	 354A      3.697879   355A      3.741689   356A      3.779911  
	 357A      3.782459   358A      3.805442   359A      3.821351  
	 360A      3.828339   361A      3.832734   362A      3.837691  
	 363A      3.855043   364A      3.868791   365A      3.869261  
	 366A      3.898598   367A      3.907747   368A      3.911874  
	 369A      3.966927   370A      3.971889   371A      3.985215  
	 372A      3.987520   373A      3.998921   374A      4.042204  
	 375A      4.042759   376A      4.045805   377A      4.050606  
	 378A      4.056360   379A      4.082772   380A      4.101722  
	 381A      4.104901   382A      4.109422   383A      4.125352  
	 384A      4.126889   385A      4.137814   386A      4.162144  
	 387A      4.196662   388A      4.202523   389A      4.261611  
	 390A      4.263720   391A      4.278704   392A      4.303081  
	 393A      4.307180   394A      4.322598   395A      4.331283  
	 396A      4.334785   397A      4.354701   398A      4.359338  
	 399A      4.359998   400A      4.389256   401A      4.403060  
	 402A      4.416737   403A      4.417986   404A      4.424078  
	 405A      4.434795   406A      4.445590   407A      4.455345  
	 408A      4.460529   409A      4.468464   410A      4.481336  
	 411A      4.488097   412A      4.500828   413A      4.501760  
	 414A      4.550320   415A      4.594240   416A      4.686214  
	 417A      4.693297   418A      4.715935   419A      4.724568  
	 420A      4.725288   421A      4.735719   422A      4.764588  
	 423A      4.788263   424A      4.789847   425A      4.820473  
	 426A      4.873370   427A      4.875656   428A      4.918922  
	 429A      4.932036   430A      4.945749   431A      5.015953  
	 432A      5.026846   433A      5.052912   434A      5.073319  
	 435A      5.075572   436A      5.108227   437A      5.112290  
	 438A      5.126617   439A      5.153270   440A      5.155687  
	 441A      5.160865   442A      5.172338   443A      5.173834  
	 444A      5.174734   445A      5.189684   446A      5.215996  
	 447A      5.231269   448A      5.234969   449A      5.264089  
	 450A      5.334815   451A      5.335778   452A      5.336340  
	 453A      5.353179   454A      5.378189   455A      5.431967  
	 456A      5.431978   457A      5.436372   458A      5.437556  
	 459A      5.449368   460A      5.536565   461A      5.536691  
	 462A      5.568890   463A      5.743383   464A      5.744736  
	 465A      5.760011   466A      5.783967   467A      5.786932  
	 468A      5.848157   469A      5.874247   470A      5.973118  
	 471A      6.029455   472A      6.187148   473A      6.202694  
	 474A      6.261811   475A      6.262582   476A      6.298426  
	 477A      6.375445   478A      6.377562   479A      6.389510  
	 480A      6.579314   481A      6.650191   482A      6.652688  
	 483A      6.828227   484A      6.860066   485A      6.871678  
	 486A      7.018675   487A      7.023568   488A      7.188828  
	 489A      7.213772   490A      7.327812   491A      7.371773  
	 492A      7.376726   493A      7.433493   494A      7.439157  
	 495A      7.557236   496A      7.766065   497A      8.005988  
	 498A      8.030119   499A      8.876149   500A     16.041937  
	 501A     16.049198   502A     16.442611   503A     18.490437  
	 504A     19.407767   505A     19.541147   506A     19.556045  

	Final Occupation by Irrep:
	          A 
	DOCC [    26 ]

  Energy converged.

  @RHF Final Energy:  -306.84365879086482

   => Energetics <=

    Nuclear Repulsion Energy =            271.2928841337806602
    One-Electron Energy =                -953.4169151628292411
    Two-Electron Energy =                 375.2803722381835883
    DFT Exchange-Correlation Energy =       0.0000000000000000
    Empirical Dispersion Energy =           0.0000000000000000
    Total Energy =                       -306.8436587908650495



Properties will be evaluated at   0.000000,   0.000000,   0.000000 Bohr
  ==> Properties <==


Properties computed using the SCF density density matrix
  Nuclear Dipole Moment: (a.u.)
     X:    -0.7853      Y:    -0.6635      Z:    -0.0000

  Electronic Dipole Moment: (a.u.)
     X:     1.6491      Y:     0.3338      Z:     0.0000

  Dipole Moment: (a.u.)
     X:     0.8638      Y:    -0.3297      Z:     0.0000     Total:     0.9246

  Dipole Moment: (Debye)
     X:     2.1955      Y:    -0.8381      Z:     0.0000     Total:     2.3500


  Saving occupied orbitals to File 180.

  Saving SAPT 2-DIMER file.

*** tstop() called on node143.bme.utexas.edu at Sat Oct 19 14:39:56 2013
Module time:
	user time   =     673.08 seconds =      11.22 minutes
	system time =       6.95 seconds =       0.12 minutes
	total time  =         94 seconds =       1.57 minutes
Total time:
	user time   =     673.08 seconds =      11.22 minutes
	system time =       6.95 seconds =       0.12 minutes
	total time  =         94 seconds =       1.57 minutes

  //>>>>>>>>>>>>>>>>>>>>>>>>>>>>>>>>>>>//
  //            Monomer A HF           //
  //<<<<<<<<<<<<<<<<<<<<<<<<<<<<<<<<<<<//


  No DF_BASIS_SCF auxiliary basis selected, defaulting to aug-cc-pvtz-jkfit


*** tstart() called on node143.bme.utexas.edu
*** at Sat Oct 19 14:39:56 2013


         ---------------------------------------------------------
                                   SCF
            by Justin Turney, Rob Parrish, and Andy Simmonett
                              RHF Reference
                        8 Threads,   7000 MiB Core
         ---------------------------------------------------------

  ==> Geometry <==

    Molecular point group: c1
    Full point group: Cs

    Geometry (in Angstrom), charge = 0, multiplicity = 1:

       Center              X                  Y                   Z       
    ------------   -----------------  -----------------  -----------------
           C          0.806925422713    -0.606957138637    -1.207556891000
           H          0.922969846713    -1.134681999637    -2.144144625000
           C          0.504721004713     0.753951225363    -1.207895407000
           H          0.383742482713     1.281125397363    -2.144054074000
           C          0.354067530713     1.434825462363     0.000000000000
           H          0.118243279713     2.490096809363     0.000000000000
           C          0.504721005713     0.753951225363     1.207895407000
           H          0.383742482713     1.281125397363     2.144054074000
           C          0.806925422713    -0.606957138637     1.207556891000
           H          0.922969846713    -1.134681999637     2.144144625000
           C          0.958426562713    -1.287023747637     0.000000000000
           H          1.195263981713    -2.342256095637     0.000000000000
           O(Gh)     -2.900932996287    -0.286944856637     0.000000000000
           H(Gh)     -2.736129001287    -1.231666384637     0.000000000000
           H(Gh)     -2.013632053287     0.084645468363     0.000000000000

  Running in c1 symmetry.

  Nuclear repulsion =  203.633900412964493

  Charge       = 0
  Multiplicity = 1
  Electrons    = 42
  Nalpha       = 21
  Nbeta        = 21

  ==> Algorithm <==

  SCF Algorithm Type is DF.
  DIIS enabled.
  MOM disabled.
  Fractional occupation disabled.
  Guess Type is CORE.
  Energy threshold   = 1.00e-08
  Density threshold  = 1.00e-08
  Integral threshold = 0.00e+00

  ==> Primary Basis <==

  Basis Set: AUG-CC-PVTZ
    Number of shells: 170
    Number of basis function: 506
    Number of Cartesian functions: 585
    Spherical Harmonics?: true
    Max angular momentum: 3

  ==> Pre-Iterations <==

   -------------------------------------------------------
    Irrep   Nso     Nmo     Nalpha   Nbeta   Ndocc  Nsocc
   -------------------------------------------------------
     A        506     506       0       0       0       0
   -------------------------------------------------------
    Total     506     506      21      21      21       0
   -------------------------------------------------------

 OEINTS: Wrapper to libmints.
   by Justin Turney

   Calculation information:
      Number of atoms:                  15
      Number of AO shells:             170
      Number of SO shells:             170
      Number of primitives:            298
      Number of atomic orbitals:       585
      Number of basis functions:       506

      Number of irreps:                  1
      Number of functions per irrep: [ 506 ]

      Overlap, kinetic, potential, dipole, and quadrupole integrals
        stored in file 35.

  ==> Integral Setup <==

  ==> DFJK: Density-Fitted J/K Matrices <==

    J tasked:                  Yes
    K tasked:                  Yes
    wK tasked:                  No
    OpenMP threads:              8
    Integrals threads:           8
    Memory (MB):              5006
    Algorithm:                Core
    Integral Cache:           LOAD
    Schwarz Cutoff:          0E+00
    Fitting Condition:       1E-12

   => Auxiliary Basis Set <=

  Basis Set: aug-cc-pvtz-jkfit
    Number of shells: 322
    Number of basis function: 1096
    Number of Cartesian functions: 1357
    Spherical Harmonics?: true
    Max angular momentum: 4

  Minimum eigenvalue in the overlap matrix is 2.9031995602E-07.
  Using Symmetric Orthogonalization.
  SCF Guess: Core (One-Electron) Hamiltonian.

  Guess energy:  -182.17720581261872

  ==> Iterations <==

                        Total Energy        Delta E     RMS |[F,P]|

   @RHF iter   1:  -182.86838455354942   -1.82868e+02   1.93392e-02 
   @RHF iter   2:  -171.60422574498514    1.12642e+01   9.80017e-03 DIIS
   @RHF iter   3:  -220.58037305892813   -4.89761e+01   8.09424e-03 DIIS
   @RHF iter   4:  -228.78320320881554   -8.20283e+00   3.56833e-03 DIIS
   @RHF iter   5:  -230.16183900148738   -1.37864e+00   2.03421e-03 DIIS
   @RHF iter   6:  -230.67389347603640   -5.12054e-01   8.13536e-04 DIIS
   @RHF iter   7:  -230.77708368335087   -1.03190e-01   1.35641e-04 DIIS
   @RHF iter   8:  -230.78113062910464   -4.04695e-03   2.71505e-05 DIIS
   @RHF iter   9:  -230.78130377466576   -1.73146e-04   9.07720e-06 DIIS
   @RHF iter  10:  -230.78132177714170   -1.80025e-05   2.71016e-06 DIIS
   @RHF iter  11:  -230.78132473641810   -2.95928e-06   1.28560e-06 DIIS
   @RHF iter  12:  -230.78132546976374   -7.33346e-07   5.81578e-07 DIIS
   @RHF iter  13:  -230.78132576426069   -2.94497e-07   2.68250e-07 DIIS
   @RHF iter  14:  -230.78132580780076   -4.35401e-08   6.08936e-08 DIIS
   @RHF iter  15:  -230.78132581025184   -2.45109e-09   1.12733e-08 DIIS
   @RHF iter  16:  -230.78132581030755   -5.57066e-11   3.39724e-09 DIIS

  ==> Post-Iterations <==

	Orbital Energies (a.u.)
	-----------------------

	Doubly Occupied:                                                      

	   1A    -11.236414     2A    -11.235851     3A    -11.235821  
	   4A    -11.234612     5A    -11.234576     6A    -11.233986  
	   7A     -1.150088     8A     -1.014781     9A     -1.014583  
	  10A     -0.824167    11A     -0.824091    12A     -0.709619  
	  13A     -0.644383    14A     -0.618956    15A     -0.588214  
	  16A     -0.588000    17A     -0.502181    18A     -0.494976  
	  19A     -0.494948    20A     -0.336781    21A     -0.336632  

	Virtual:                                                              

	  22A      0.028243    23A      0.034518    24A      0.034645  
	  25A      0.046147    26A      0.048057    27A      0.048061  
	  28A      0.064589    29A      0.067780    30A      0.099122  
	  31A      0.102560    32A      0.102684    33A      0.104391  
	  34A      0.113357    35A      0.117178    36A      0.122446  
	  37A      0.123751    38A      0.127935    39A      0.128035  
	  40A      0.130320    41A      0.137319    42A      0.140258  
	  43A      0.154601    44A      0.156126    45A      0.157855  
	  46A      0.158095    47A      0.159390    48A      0.159398  
	  49A      0.162441    50A      0.172992    51A      0.201086  
	  52A      0.201903    53A      0.214150    54A      0.231209  
	  55A      0.246839    56A      0.247401    57A      0.253129  
	  58A      0.255756    59A      0.273414    60A      0.283759  
	  61A      0.286466    62A      0.301544    63A      0.305465  
	  64A      0.306291    65A      0.313393    66A      0.315490  
	  67A      0.317311    68A      0.321867    69A      0.323866  
	  70A      0.331911    71A      0.339361    72A      0.348354  
	  73A      0.349148    74A      0.349276    75A      0.354717  
	  76A      0.360344    77A      0.360810    78A      0.377659  
	  79A      0.388908    80A      0.389075    81A      0.391334  
	  82A      0.398759    83A      0.419724    84A      0.424018  
	  85A      0.425057    86A      0.446271    87A      0.450384  
	  88A      0.458248    89A      0.463427    90A      0.471829  
	  91A      0.476930    92A      0.478614    93A      0.482633  
	  94A      0.488977    95A      0.490203    96A      0.496505  
	  97A      0.501476    98A      0.507677    99A      0.512962  
	 100A      0.522298   101A      0.525394   102A      0.526760  
	 103A      0.533747   104A      0.534919   105A      0.540128  
	 106A      0.540385   107A      0.543935   108A      0.546475  
	 109A      0.553106   110A      0.576596   111A      0.615726  
	 112A      0.635703   113A      0.646318   114A      0.649630  
	 115A      0.655071   116A      0.662008   117A      0.662652  
	 118A      0.664659   119A      0.665035   120A      0.695746  
	 121A      0.702930   122A      0.709673   123A      0.711408  
	 124A      0.718091   125A      0.731132   126A      0.736989  
	 127A      0.739155   128A      0.748215   129A      0.752088  
	 130A      0.768272   131A      0.782512   132A      0.798095  
	 133A      0.799108   134A      0.811182   135A      0.824184  
	 136A      0.825742   137A      0.836803   138A      0.840040  
	 139A      0.845765   140A      0.860483   141A      0.867955  
	 142A      0.869134   143A      0.873519   144A      0.876737  
	 145A      0.882343   146A      0.882764   147A      0.885582  
	 148A      0.897717   149A      0.903109   150A      0.905024  
	 151A      0.911406   152A      0.912632   153A      0.916703  
	 154A      0.920962   155A      0.930617   156A      0.932543  
	 157A      0.939902   158A      0.984582   159A      0.991462  
	 160A      0.994582   161A      1.006020   162A      1.009360  
	 163A      1.021968   164A      1.042930   165A      1.046916  
	 166A      1.069855   167A      1.070081   168A      1.077329  
	 169A      1.084281   170A      1.091543   171A      1.094926  
	 172A      1.098830   173A      1.099912   174A      1.100769  
	 175A      1.104056   176A      1.105945   177A      1.121814  
	 178A      1.125853   179A      1.141417   180A      1.145355  
	 181A      1.147202   182A      1.149304   183A      1.156491  
	 184A      1.161984   185A      1.165458   186A      1.187654  
	 187A      1.191796   188A      1.196062   189A      1.210022  
	 190A      1.210177   191A      1.225611   192A      1.226034  
	 193A      1.231822   194A      1.239722   195A      1.249104  
	 196A      1.257556   197A      1.269677   198A      1.270890  
	 199A      1.286721   200A      1.297866   201A      1.302899  
	 202A      1.337559   203A      1.348669   204A      1.363951  
	 205A      1.365723   206A      1.372964   207A      1.387733  
	 208A      1.400878   209A      1.401513   210A      1.412576  
	 211A      1.424718   212A      1.424855   213A      1.439077  
	 214A      1.448733   215A      1.469062   216A      1.480094  
	 217A      1.496573   218A      1.498919   219A      1.512947  
	 220A      1.520543   221A      1.529594   222A      1.535109  
	 223A      1.543154   224A      1.552790   225A      1.566764  
	 226A      1.578466   227A      1.662787   228A      1.691657  
	 229A      1.699100   230A      1.702305   231A      1.704204  
	 232A      1.713455   233A      1.720064   234A      1.735794  
	 235A      1.735832   236A      1.757195   237A      1.763952  
	 238A      1.769160   239A      1.778019   240A      1.789080  
	 241A      1.792581   242A      1.810696   243A      1.817582  
	 244A      1.842527   245A      1.845403   246A      1.849535  
	 247A      1.852654   248A      1.873238   249A      1.886761  
	 250A      1.908950   251A      1.919220   252A      1.935229  
	 253A      1.942825   254A      1.949724   255A      1.980677  
	 256A      1.997812   257A      2.004545   258A      2.005509  
	 259A      2.016138   260A      2.024704   261A      2.036848  
	 262A      2.041321   263A      2.047978   264A      2.058757  
	 265A      2.069302   266A      2.079546   267A      2.102235  
	 268A      2.104669   269A      2.108918   270A      2.118603  
	 271A      2.135599   272A      2.137890   273A      2.154596  
	 274A      2.180152   275A      2.232183   276A      2.272047  
	 277A      2.275946   278A      2.281604   279A      2.327897  
	 280A      2.346541   281A      2.346649   282A      2.352437  
	 283A      2.370531   284A      2.381660   285A      2.410208  
	 286A      2.435355   287A      2.455167   288A      2.473619  
	 289A      2.510691   290A      2.520160   291A      2.522462  
	 292A      2.527528   293A      2.567259   294A      2.570806  
	 295A      2.580942   296A      2.596065   297A      2.598987  
	 298A      2.615734   299A      2.676957   300A      2.693856  
	 301A      2.706497   302A      2.734212   303A      2.753717  
	 304A      2.756242   305A      2.764497   306A      2.784411  
	 307A      2.793462   308A      2.846457   309A      2.849997  
	 310A      2.892611   311A      2.986973   312A      2.999584  
	 313A      3.005704   314A      3.108020   315A      3.112463  
	 316A      3.175624   317A      3.207331   318A      3.208580  
	 319A      3.240189   320A      3.258078   321A      3.270988  
	 322A      3.292918   323A      3.315040   324A      3.317574  
	 325A      3.349358   326A      3.354221   327A      3.372057  
	 328A      3.387365   329A      3.389861   330A      3.397433  
	 331A      3.406490   332A      3.417532   333A      3.422995  
	 334A      3.459987   335A      3.463417   336A      3.490899  
	 337A      3.530116   338A      3.537617   339A      3.540888  
	 340A      3.559934   341A      3.587106   342A      3.588252  
	 343A      3.612059   344A      3.612127   345A      3.627774  
	 346A      3.635833   347A      3.656160   348A      3.672270  
	 349A      3.681502   350A      3.701579   351A      3.752684  
	 352A      3.763926   353A      3.775078   354A      3.786622  
	 355A      3.822483   356A      3.826139   357A      3.834665  
	 358A      3.839597   359A      3.846590   360A      3.863968  
	 361A      3.867124   362A      3.888700   363A      3.899830  
	 364A      3.941565   365A      3.950019   366A      3.954195  
	 367A      3.980877   368A      3.998690   369A      3.999143  
	 370A      4.010624   371A      4.044635   372A      4.056420  
	 373A      4.057633   374A      4.061452   375A      4.067314  
	 376A      4.073061   377A      4.113415   378A      4.121228  
	 379A      4.136496   380A      4.136790   381A      4.154713  
	 382A      4.172188   383A      4.205848   384A      4.206056  
	 385A      4.275985   386A      4.277858   387A      4.293578  
	 388A      4.339300   389A      4.344756   390A      4.366710  
	 391A      4.370046   392A      4.381858   393A      4.393956  
	 394A      4.428707   395A      4.434543   396A      4.435409  
	 397A      4.442356   398A      4.453029   399A      4.463772  
	 400A      4.472039   401A      4.484917   402A      4.484945  
	 403A      4.509850   404A      4.511599   405A      4.513369  
	 406A      4.595890   407A      4.605315   408A      4.622427  
	 409A      4.703427   410A      4.723401   411A      4.725310  
	 412A      4.728091   413A      4.731776   414A      4.756332  
	 415A      4.780821   416A      4.796876   417A      4.799015  
	 418A      4.880620   419A      4.883221   420A      4.898713  
	 421A      4.915610   422A      4.935024   423A      4.946160  
	 424A      4.967018   425A      4.977017   426A      5.011117  
	 427A      5.037105   428A      5.042446   429A      5.084330  
	 430A      5.087778   431A      5.118763   432A      5.124405  
	 433A      5.134797   434A      5.166845   435A      5.167087  
	 436A      5.180202   437A      5.182080   438A      5.184414  
	 439A      5.201308   440A      5.220989   441A      5.242738  
	 442A      5.244260   443A      5.332663   444A      5.345514  
	 445A      5.346442   446A      5.349248   447A      5.402041  
	 448A      5.441842   449A      5.443826   450A      5.446750  
	 451A      5.450055   452A      5.529872   453A      5.545650  
	 454A      5.601977   455A      5.662333   456A      5.696452  
	 457A      5.759317   458A      5.761333   459A      5.793938  
	 460A      5.796025   461A      5.857693   462A      5.884795  
	 463A      5.932312   464A      5.983518   465A      6.046700  
	 466A      6.180246   467A      6.198762   468A      6.217659  
	 469A      6.272813   470A      6.272926   471A      6.386152  
	 472A      6.387558   473A      6.400317   474A      6.488594  
	 475A      6.662498   476A      6.663372   477A      6.707821  
	 478A      6.870916   479A      6.873314   480A      7.029511  
	 481A      7.135613   482A      7.225916   483A      7.444079  
	 484A      7.771127   485A      7.910503   486A      8.108467  
	 487A      8.246688   488A      8.329611   489A      8.832318  
	 490A      9.019311   491A      9.751200   492A      9.896344  
	 493A     10.124034   494A     10.356062   495A     11.271626  
	 496A     11.801556   497A     12.181283   498A     13.654504  
	 499A     13.981377   500A     16.058552   501A     16.060402  
	 502A     18.392670   503A     19.419363   504A     19.542499  
	 505A     19.567150   506A     66.343847  

	Final Occupation by Irrep:
	          A 
	DOCC [    21 ]

  Energy converged.

  @RHF Final Energy:  -230.78132581030755

   => Energetics <=

    Nuclear Repulsion Energy =            203.6339004129644934
    One-Electron Energy =                -713.7231321883120927
    Two-Electron Energy =                 279.3079059650406180
    DFT Exchange-Correlation Energy =       0.0000000000000000
    Empirical Dispersion Energy =           0.0000000000000000
    Total Energy =                       -230.7813258103069529



Properties will be evaluated at   0.000000,   0.000000,   0.000000 Bohr
  ==> Properties <==


Properties computed using the SCF density density matrix
  Nuclear Dipole Moment: (a.u.)
     X:    52.0462      Y:     5.8420      Z:    -0.0000

  Electronic Dipole Moment: (a.u.)
     X:   -52.0485      Y:    -5.8424      Z:     0.0000

  Dipole Moment: (a.u.)
     X:    -0.0024      Y:    -0.0003      Z:     0.0000     Total:     0.0024

  Dipole Moment: (Debye)
     X:    -0.0060      Y:    -0.0008      Z:     0.0000     Total:     0.0061


  Saving occupied orbitals to File 180.

  Saving SAPT 2-MONOMER_A file.

*** tstop() called on node143.bme.utexas.edu at Sat Oct 19 14:41:06 2013
Module time:
	user time   =     518.31 seconds =       8.64 minutes
	system time =       4.30 seconds =       0.07 minutes
	total time  =         70 seconds =       1.17 minutes
Total time:
	user time   =    1191.41 seconds =      19.86 minutes
	system time =      11.25 seconds =       0.19 minutes
	total time  =        164 seconds =       2.73 minutes

  //>>>>>>>>>>>>>>>>>>>>>>>>>>>>>>>>>>>//
  //            Monomer B HF           //
  //<<<<<<<<<<<<<<<<<<<<<<<<<<<<<<<<<<<//


  No DF_BASIS_SCF auxiliary basis selected, defaulting to aug-cc-pvtz-jkfit


*** tstart() called on node143.bme.utexas.edu
*** at Sat Oct 19 14:41:06 2013


         ---------------------------------------------------------
                                   SCF
            by Justin Turney, Rob Parrish, and Andy Simmonett
                              RHF Reference
                        8 Threads,   7000 MiB Core
         ---------------------------------------------------------

  ==> Geometry <==

    Molecular point group: c1
    Full point group: Cs

    Geometry (in Angstrom), charge = 0, multiplicity = 1:

       Center              X                  Y                   Z       
    ------------   -----------------  -----------------  -----------------
           C(Gh)      0.806925422713    -0.606957138637    -1.207556891000
           H(Gh)      0.922969846713    -1.134681999637    -2.144144625000
           C(Gh)      0.504721004713     0.753951225363    -1.207895407000
           H(Gh)      0.383742482713     1.281125397363    -2.144054074000
           C(Gh)      0.354067530713     1.434825462363     0.000000000000
           H(Gh)      0.118243279713     2.490096809363     0.000000000000
           C(Gh)      0.504721005713     0.753951225363     1.207895407000
           H(Gh)      0.383742482713     1.281125397363     2.144054074000
           C(Gh)      0.806925422713    -0.606957138637     1.207556891000
           H(Gh)      0.922969846713    -1.134681999637     2.144144625000
           C(Gh)      0.958426562713    -1.287023747637     0.000000000000
           H(Gh)      1.195263981713    -2.342256095637     0.000000000000
           O         -2.900932996287    -0.286944856637     0.000000000000
           H         -2.736129001287    -1.231666384637     0.000000000000
           H         -2.013632053287     0.084645468363     0.000000000000

  Running in c1 symmetry.

  Nuclear repulsion =    9.167668193250806

  Charge       = 0
  Multiplicity = 1
  Electrons    = 10
  Nalpha       = 5
  Nbeta        = 5

  ==> Algorithm <==

  SCF Algorithm Type is DF.
  DIIS enabled.
  MOM disabled.
  Fractional occupation disabled.
  Guess Type is CORE.
  Energy threshold   = 1.00e-08
  Density threshold  = 1.00e-08
  Integral threshold = 0.00e+00

  ==> Primary Basis <==

  Basis Set: AUG-CC-PVTZ
    Number of shells: 170
    Number of basis function: 506
    Number of Cartesian functions: 585
    Spherical Harmonics?: true
    Max angular momentum: 3

  ==> Pre-Iterations <==

   -------------------------------------------------------
    Irrep   Nso     Nmo     Nalpha   Nbeta   Ndocc  Nsocc
   -------------------------------------------------------
     A        506     506       0       0       0       0
   -------------------------------------------------------
    Total     506     506       5       5       5       0
   -------------------------------------------------------

 OEINTS: Wrapper to libmints.
   by Justin Turney

   Calculation information:
      Number of atoms:                  15
      Number of AO shells:             170
      Number of SO shells:             170
      Number of primitives:            298
      Number of atomic orbitals:       585
      Number of basis functions:       506

      Number of irreps:                  1
      Number of functions per irrep: [ 506 ]

      Overlap, kinetic, potential, dipole, and quadrupole integrals
        stored in file 35.

  ==> Integral Setup <==

  ==> DFJK: Density-Fitted J/K Matrices <==

    J tasked:                  Yes
    K tasked:                  Yes
    wK tasked:                  No
    OpenMP threads:              8
    Integrals threads:           8
    Memory (MB):              5006
    Algorithm:                Core
    Integral Cache:           LOAD
    Schwarz Cutoff:          0E+00
    Fitting Condition:       1E-12

   => Auxiliary Basis Set <=

  Basis Set: aug-cc-pvtz-jkfit
    Number of shells: 322
    Number of basis function: 1096
    Number of Cartesian functions: 1357
    Spherical Harmonics?: true
    Max angular momentum: 4

  Minimum eigenvalue in the overlap matrix is 2.9031995602E-07.
  Using Symmetric Orthogonalization.
  SCF Guess: Core (One-Electron) Hamiltonian.

  Guess energy:   -60.18661995510611

  ==> Iterations <==

                        Total Energy        Delta E     RMS |[F,P]|

   @RHF iter   1:   -61.29903294169304   -6.12990e+01   1.59599e-02 
   @RHF iter   2:   -61.08939530896252    2.09638e-01   5.60294e-03 DIIS
   @RHF iter   3:   -72.52788384645891   -1.14385e+01   6.87923e-03 DIIS
   @RHF iter   4:   -75.09524842236510   -2.56736e+00   3.24682e-03 DIIS
   @RHF iter   5:   -76.03248170556206   -9.37233e-01   4.23201e-04 DIIS
   @RHF iter   6:   -76.05941845755437   -2.69368e-02   1.03833e-04 DIIS
   @RHF iter   7:   -76.06024942231758   -8.30965e-04   1.47152e-05 DIIS
   @RHF iter   8:   -76.06026888942384   -1.94671e-05   2.26196e-06 DIIS
   @RHF iter   9:   -76.06026947036854   -5.80945e-07   3.55140e-07 DIIS
   @RHF iter  10:   -76.06026949237791   -2.20094e-08   4.55526e-08 DIIS
   @RHF iter  11:   -76.06026949286073   -4.82814e-10   1.80155e-08 DIIS
   @RHF iter  12:   -76.06026949290407   -4.33431e-11   1.96899e-09 DIIS

  ==> Post-Iterations <==

	Orbital Energies (a.u.)
	-----------------------

	Doubly Occupied:                                                      

	   1A    -20.568445     2A     -1.353097     3A     -0.712716  
	   4A     -0.587581     5A     -0.510563  

	Virtual:                                                              

	   6A      0.013341     7A      0.029110     8A      0.029963  
	   9A      0.043994    10A      0.047065    11A      0.047119  
	  12A      0.063743    13A      0.064782    14A      0.072756  
	  15A      0.086368    16A      0.090192    17A      0.090767  
	  18A      0.096655    19A      0.112277    20A      0.120561  
	  21A      0.120756    22A      0.124831    23A      0.125931  
	  24A      0.127994    25A      0.134578    26A      0.141634  
	  27A      0.152272    28A      0.155820    29A      0.156552  
	  30A      0.156899    31A      0.162575    32A      0.173805  
	  33A      0.188438    34A      0.190354    35A      0.194210  
	  36A      0.209221    37A      0.218098    38A      0.227836  
	  39A      0.230930    40A      0.232045    41A      0.234313  
	  42A      0.250199    43A      0.273254    44A      0.277899  
	  45A      0.279891    46A      0.282288    47A      0.283083  
	  48A      0.296597    49A      0.302942    50A      0.306454  
	  51A      0.318149    52A      0.324987    53A      0.332499  
	  54A      0.332823    55A      0.337253    56A      0.343184  
	  57A      0.347690    58A      0.356228    59A      0.360332  
	  60A      0.362993    61A      0.363019    62A      0.377729  
	  63A      0.389211    64A      0.392780    65A      0.398674  
	  66A      0.399037    67A      0.402328    68A      0.422958  
	  69A      0.426213    70A      0.431522    71A      0.436453  
	  72A      0.437759    73A      0.438356    74A      0.466699  
	  75A      0.467564    76A      0.471242    77A      0.473197  
	  78A      0.487939    79A      0.492576    80A      0.512169  
	  81A      0.516005    82A      0.530590    83A      0.533080  
	  84A      0.538839    85A      0.542898    86A      0.547039  
	  87A      0.567559    88A      0.577714    89A      0.582434  
	  90A      0.584250    91A      0.587817    92A      0.592608  
	  93A      0.613099    94A      0.618925    95A      0.620483  
	  96A      0.634902    97A      0.650902    98A      0.655316  
	  99A      0.665434   100A      0.666640   101A      0.670034  
	 102A      0.675553   103A      0.683610   104A      0.684068  
	 105A      0.696903   106A      0.699060   107A      0.701122  
	 108A      0.709495   109A      0.719732   110A      0.729049  
	 111A      0.730447   112A      0.734730   113A      0.743916  
	 114A      0.744433   115A      0.749004   116A      0.766844  
	 117A      0.771970   118A      0.785490   119A      0.792455  
	 120A      0.799993   121A      0.808861   122A      0.812480  
	 123A      0.818908   124A      0.834253   125A      0.863121  
	 126A      0.877865   127A      0.881956   128A      0.881987  
	 129A      0.898784   130A      0.906019   131A      0.907815  
	 132A      0.934198   133A      0.946420   134A      0.947058  
	 135A      0.965980   136A      0.987742   137A      0.999744  
	 138A      1.014967   139A      1.022136   140A      1.034029  
	 141A      1.047922   142A      1.050482   143A      1.052325  
	 144A      1.058984   145A      1.059070   146A      1.070552  
	 147A      1.072767   148A      1.088655   149A      1.093794  
	 150A      1.099144   151A      1.116752   152A      1.119246  
	 153A      1.127086   154A      1.129617   155A      1.134270  
	 156A      1.142769   157A      1.149138   158A      1.168627  
	 159A      1.170572   160A      1.177593   161A      1.183730  
	 162A      1.192210   163A      1.193858   164A      1.219819  
	 165A      1.222784   166A      1.231039   167A      1.231561  
	 168A      1.243667   169A      1.252748   170A      1.273078  
	 171A      1.274502   172A      1.277113   173A      1.289101  
	 174A      1.289292   175A      1.290528   176A      1.296448  
	 177A      1.298313   178A      1.301172   179A      1.304230  
	 180A      1.305528   181A      1.311080   182A      1.317395  
	 183A      1.343059   184A      1.360223   185A      1.370826  
	 186A      1.378296   187A      1.392536   188A      1.399151  
	 189A      1.405729   190A      1.407278   191A      1.427644  
	 192A      1.457090   193A      1.459326   194A      1.462210  
	 195A      1.492960   196A      1.494664   197A      1.512670  
	 198A      1.532176   199A      1.535351   200A      1.542861  
	 201A      1.543905   202A      1.544179   203A      1.559539  
	 204A      1.560572   205A      1.564919   206A      1.573114  
	 207A      1.579679   208A      1.592110   209A      1.594159  
	 210A      1.629294   211A      1.636696   212A      1.652248  
	 213A      1.655124   214A      1.659030   215A      1.663968  
	 216A      1.670904   217A      1.681621   218A      1.687717  
	 219A      1.694055   220A      1.747024   221A      1.755800  
	 222A      1.814443   223A      1.826265   224A      1.828792  
	 225A      1.836591   226A      1.853744   227A      1.854556  
	 228A      1.882976   229A      1.888617   230A      1.893836  
	 231A      1.898231   232A      1.955270   233A      1.962354  
	 234A      1.974755   235A      2.003548   236A      2.006787  
	 237A      2.018706   238A      2.034276   239A      2.075767  
	 240A      2.107566   241A      2.115488   242A      2.146884  
	 243A      2.153000   244A      2.154217   245A      2.157643  
	 246A      2.164539   247A      2.181329   248A      2.185752  
	 249A      2.201376   250A      2.207053   251A      2.238553  
	 252A      2.241662   253A      2.274127   254A      2.301216  
	 255A      2.303751   256A      2.314688   257A      2.316678  
	 258A      2.324288   259A      2.334860   260A      2.340630  
	 261A      2.341598   262A      2.342393   263A      2.355894  
	 264A      2.373826   265A      2.383361   266A      2.399966  
	 267A      2.418230   268A      2.424262   269A      2.468872  
	 270A      2.479632   271A      2.488781   272A      2.497226  
	 273A      2.501378   274A      2.506834   275A      2.511521  
	 276A      2.529449   277A      2.531242   278A      2.537056  
	 279A      2.543601   280A      2.571696   281A      2.573506  
	 282A      2.595892   283A      2.608554   284A      2.611333  
	 285A      2.612423   286A      2.671318   287A      2.677820  
	 288A      2.699253   289A      2.734270   290A      2.736190  
	 291A      2.758457   292A      2.804714   293A      2.813424  
	 294A      2.827638   295A      2.829427   296A      2.872200  
	 297A      2.875394   298A      2.879180   299A      2.898713  
	 300A      2.918320   301A      2.918924   302A      3.017761  
	 303A      3.034224   304A      3.073281   305A      3.088414  
	 306A      3.127311   307A      3.128372   308A      3.279118  
	 309A      3.281385   310A      3.481208   311A      3.482117  
	 312A      3.582868   313A      3.762427   314A      3.776822  
	 315A      3.808760   316A      3.815058   317A      3.859088  
	 318A      3.908432   319A      3.925998   320A      3.970652  
	 321A      3.981958   322A      3.992356   323A      3.996915  
	 324A      4.043885   325A      4.045053   326A      4.074099  
	 327A      4.083643   328A      4.097913   329A      4.103338  
	 330A      4.116944   331A      4.119848   332A      4.143404  
	 333A      4.144497   334A      4.152241   335A      4.185730  
	 336A      4.201355   337A      4.211290   338A      4.215242  
	 339A      4.234537   340A      4.246486   341A      4.253672  
	 342A      4.266389   343A      4.279316   344A      4.288306  
	 345A      4.291038   346A      4.305883   347A      4.313854  
	 348A      4.358180   349A      4.359201   350A      4.391043  
	 351A      4.404034   352A      4.416310   353A      4.419061  
	 354A      4.469163   355A      4.473820   356A      4.494801  
	 357A      4.515320   358A      4.534832   359A      4.541203  
	 360A      4.548155   361A      4.552782   362A      4.563748  
	 363A      4.564525   364A      4.574382   365A      4.583577  
	 366A      4.584649   367A      4.602165   368A      4.611830  
	 369A      4.674029   370A      4.675098   371A      4.691230  
	 372A      4.707757   373A      4.728228   374A      4.747739  
	 375A      4.796182   376A      4.821975   377A      4.834380  
	 378A      4.850635   379A      4.876908   380A      4.949207  
	 381A      4.965383   382A      4.967681   383A      4.980570  
	 384A      4.992578   385A      5.038036   386A      5.050464  
	 387A      5.054372   388A      5.096570   389A      5.097219  
	 390A      5.100916   391A      5.141126   392A      5.147694  
	 393A      5.163770   394A      5.166613   395A      5.177475  
	 396A      5.184228   397A      5.198969   398A      5.204706  
	 399A      5.210340   400A      5.242326   401A      5.266803  
	 402A      5.274404   403A      5.336287   404A      5.392404  
	 405A      5.414088   406A      5.421771   407A      5.442315  
	 408A      5.443904   409A      5.454788   410A      5.485821  
	 411A      5.488594   412A      5.494904   413A      5.517384  
	 414A      5.548074   415A      5.619171   416A      5.622611  
	 417A      5.657784   418A      5.676925   419A      5.682572  
	 420A      5.687996   421A      5.720043   422A      5.721678  
	 423A      5.726273   424A      5.737560   425A      5.778350  
	 426A      5.782771   427A      5.787856   428A      5.792474  
	 429A      5.806963   430A      5.810744   431A      5.942916  
	 432A      5.955844   433A      5.963858   434A      5.995847  
	 435A      5.997551   436A      6.123898   437A      6.124236  
	 438A      6.160063   439A      6.183093   440A      6.184029  
	 441A      6.185826   442A      6.203092   443A      6.271427  
	 444A      6.423062   445A      6.429572   446A      6.454652  
	 447A      6.468660   448A      6.512095   449A      6.559896  
	 450A      6.696589   451A      6.774470   452A      6.795293  
	 453A      6.815671   454A      6.875734   455A      6.882198  
	 456A      7.001153   457A      7.056550   458A      7.058765  
	 459A      7.084231   460A      7.128841   461A      7.135191  
	 462A      7.151151   463A      7.151856   464A      7.170441  
	 465A      7.312170   466A      7.351950   467A      7.362740  
	 468A      7.389321   469A      7.422751   470A      7.473124  
	 471A      7.482486   472A      7.554562   473A      7.561849  
	 474A      7.649576   475A      7.652789   476A      7.749962  
	 477A      7.779418   478A      7.878726   479A      7.978703  
	 480A      8.005445   481A      8.039719   482A      8.186681  
	 483A      8.190478   484A      8.200042   485A      8.319043  
	 486A      8.320441   487A      8.856791   488A      8.954513  
	 489A      8.954720   490A      9.353157   491A      9.385516  
	 492A      9.424204   493A     10.034178   494A     10.034956  
	 495A     10.973386   496A     11.026475   497A     11.327416  
	 498A     11.331335   499A     11.380477   500A     16.538274  
	 501A     49.663734   502A     49.667755   503A     52.709630  
	 504A     55.464248   505A     55.724394   506A     56.608274  

	Final Occupation by Irrep:
	          A 
	DOCC [     5 ]

  Energy converged.

  @RHF Final Energy:   -76.06026949290407

   => Energetics <=

    Nuclear Repulsion Energy =              9.1676681932508064
    One-Electron Energy =                -122.9910659368487558
    Two-Electron Energy =                  37.7631282506934269
    DFT Exchange-Correlation Energy =       0.0000000000000000
    Empirical Dispersion Energy =           0.0000000000000000
    Total Energy =                        -76.0602694929045242



Properties will be evaluated at   0.000000,   0.000000,   0.000000 Bohr
  ==> Properties <==


Properties computed using the SCF density density matrix
  Nuclear Dipole Moment: (a.u.)
     X:   -52.8315      Y:    -6.5055      Z:     0.0000

  Electronic Dipole Moment: (a.u.)
     X:    53.5269      Y:     6.1266      Z:    -0.0000

  Dipole Moment: (a.u.)
     X:     0.6954      Y:    -0.3790      Z:    -0.0000     Total:     0.7919

  Dipole Moment: (Debye)
     X:     1.7674      Y:    -0.9632      Z:    -0.0000     Total:     2.0128


  Saving occupied orbitals to File 180.

  Saving SAPT 2-MONOMER_B file.

*** tstop() called on node143.bme.utexas.edu at Sat Oct 19 14:41:55 2013
Module time:
	user time   =     356.45 seconds =       5.94 minutes
	system time =       3.23 seconds =       0.05 minutes
	total time  =         49 seconds =       0.82 minutes
Total time:
	user time   =    1547.88 seconds =      25.80 minutes
	system time =      14.48 seconds =       0.24 minutes
	total time  =        213 seconds =       3.55 minutes
  No DF_BASIS_SAPT auxiliary basis selected, defaulting to aug-cc-pvtz-ri

  //>>>>>>>>>>>>>>>>>>>>>>>>>>>>>>>>>>>//
  //               SAPT2+              //
  //<<<<<<<<<<<<<<<<<<<<<<<<<<<<<<<<<<<//


*** tstart() called on node143.bme.utexas.edu
*** at Sat Oct 19 14:41:55 2013

        SAPT2+  
    Ed Hohenstein
     6 June 2009

      Orbital Information
  --------------------------
    NSO        =       506
    NMO        =       506
    NRI        =      1110
    NOCC A     =        21
    NOCC B     =         5
    FOCC A     =         6
    FOCC B     =         1
    NVIR A     =       485
    NVIR B     =       501

    Estimated memory usage: 4885.5 MB

    Elst10,r            =    -0.004019500676 H
    Exch10 (S^2)        =     0.003100933605 H
    Exch10              =     0.003104948639 H
    Ind20,r (A<-B)      =    -0.001202282583 H
    Ind20,r (B<-A)      =    -0.000254383569 H
    Ind20,r             =    -0.001456666152 H
    Exch-Ind20,r (A<-B) =     0.000491235472 H
    Exch-Ind20,r (B<-A) =     0.000181461115 H
    Exch-Ind20,r        =     0.000672696587 H
    Disp20              =    -0.004120788351 H
    Exch-Disp20         =     0.000365238580 H
    Elst12,r            =     0.000373136991 H
    Exch11              =     0.000130382728 H
    Exch12              =     0.000217139754 H
    Ind22               =    -0.000047770004 H
    Disp21              =     0.000660748076 H
    Disp22 (SDQ)        =     0.000088988888 H

    (i =   1 of   4)       2942 seconds
    (i =   2 of   4)       5885 seconds
    (i =   3 of   4)       8826 seconds
    (i =   4 of   4)      11768 seconds

    Disp220 (T)         =    -0.000415331796 H

    (i =   1 of  15)        592 seconds
    (i =   2 of  15)       1181 seconds
    (i =   3 of  15)       1773 seconds
    (i =   4 of  15)       2363 seconds
    (i =   5 of  15)       2954 seconds
    (i =   6 of  15)       3545 seconds
    (i =   7 of  15)       4137 seconds
    (i =   8 of  15)       4729 seconds
    (i =   9 of  15)       5319 seconds
    (i =  10 of  15)       5909 seconds
    (i =  11 of  15)       6499 seconds
    (i =  12 of  15)       7091 seconds
    (i =  13 of  15)       7684 seconds
    (i =  14 of  15)       8274 seconds
    (i =  15 of  15)       8863 seconds

    Disp202 (T)         =    -0.000450560098 H

    Disp22 (T)          =    -0.000865891894 H

    SAPT Results  
  -----------------------------------------------------------------------
    Electrostatics          -3.64636368 mH      -2.28812785 kcal mol^-1
      Elst10,r              -4.01950068 mH      -2.52227486 kcal mol^-1
      Elst12,r               0.37313699 mH       0.23414701 kcal mol^-1

    Exchange                 3.45247112 mH       2.16645843 kcal mol^-1
      Exch10                 3.10494864 mH       1.94838477 kcal mol^-1
      Exch10(S^2)            3.10093360 mH       1.94586530 kcal mol^-1
      Exch11(S^2)            0.13038273 mH       0.08181640 kcal mol^-1
      Exch12(S^2)            0.21713975 mH       0.13625726 kcal mol^-1

    Induction               -1.17464516 mH      -0.73710100 kcal mol^-1
      Ind20,r               -1.45666615 mH      -0.91407185 kcal mol^-1
      Ind22                 -0.04777000 mH      -0.02997613 kcal mol^-1
      Exch-Ind20,r           0.67269659 mH       0.42212350 kcal mol^-1
      Exch-Ind22             0.02206046 mH       0.01384315 kcal mol^-1
      delta HF,r (2)        -0.36496605 mH      -0.22901966 kcal mol^-1

    Dispersion              -3.87170470 mH      -2.42953148 kcal mol^-1
      Disp20                -4.12078835 mH      -2.58583384 kcal mol^-1
      Disp21                 0.66074808 mH       0.41462569 kcal mol^-1
      Disp22 (SDQ)           0.08898889 mH       0.05584137 kcal mol^-1
      Disp22 (T)            -0.86589189 mH      -0.54335539 kcal mol^-1
      Exch-Disp20            0.36523858 mH       0.22919068 kcal mol^-1

    Total HF                -2.06348765 mH      -1.29485811 kcal mol^-1
    Total SAPT0             -5.81903742 mH      -3.65150126 kcal mol^-1
    Total SAPT2             -5.12408750 mH      -3.21541358 kcal mol^-1
    Total SAPT2+            -5.24024243 mH      -3.28830191 kcal mol^-1

*** tstop() called on node143.bme.utexas.edu at Sat Oct 19 22:13:21 2013
Module time:
	user time   =  187323.25 seconds =    3122.05 minutes
	system time =     507.32 seconds =       8.46 minutes
	total time  =      27086 seconds =     451.43 minutes
Total time:
	user time   =  188871.13 seconds =    3147.85 minutes
	system time =     521.80 seconds =       8.70 minutes
	total time  =      27299 seconds =     454.98 minutes

*** PSI4 exiting successfully. Buy a developer a beer!
