    -----------------------------------------------------------------------
          PSI4: An Open-Source Ab Initio Electronic Structure Package
                              PSI 4.0.0-beta4 Driver

    J. M. Turney, A. C. Simmonett, R. M. Parrish, E. G. Hohenstein,
    F. A. Evangelista, J. T. Fermann, B. J. Mintz, L. A. Burns, J. J. Wilke,
    M. L. Abrams, N. J. Russ, M. L. Leininger, C. L. Janssen, E. T. Seidl,
    W. D. Allen, H. F. Schaefer, R. A. King, E. F. Valeev, C. D. Sherrill,
    and T. D. Crawford, WIREs Comput. Mol. Sci., (2011) (doi: 10.1002/wcms.93)

                         Additional Contributions by
    A. E. DePrince, M. Saitow, U. Bozkaya, A. Yu. Sokolov
    -----------------------------------------------------------------------

    Process ID:  46753
    PSI4DATADIR: /home/xzhu216/psi4/psi4-install/share/psi

    Using LocalCommunicator (Number of processes = 1)

    Memory level set to 256.000 MB

  ==> Input File <==

--------------------------------------------------------------------------
#psi4
#
memory 30 gb

molecule Benzene_MeOH {
0 1
C    0.759749176   1.031275058   0.373772394
H    1.435016257   1.875664269   0.374704616
C    1.266617787  -0.267362341   0.421273076
H    2.334915967  -0.429180190   0.459432338
C    0.395320544  -1.355991164   0.424905109
H    0.788661934  -2.362492586   0.463035490
C   -0.982205637  -1.146654408   0.381270236
H   -1.657656316  -1.991140192   0.385121003
C   -1.489346115   0.151149791   0.337572337
H   -2.557947039   0.313750489   0.307719001
C   -0.618775155   1.240331207   0.333883729
H   -1.011761615   2.247106897   0.304369215
--
0 1
O    0.024684980   0.293727243   3.955803511
H    0.110785195   0.343600334   2.998609966
C   -0.871465619  -0.763886830   4.238858550
H   -0.967186313  -0.820621414   5.319794686
H   -1.863615207  -0.592189090   3.815068346
H   -0.505005301  -1.726927899   3.875947034
units angstrom
no_reorient  #important for SAPT in psi4, default
symmetry c1  #important for SAPT in psi4, default
}

set {
basis aug-cc-pVTZ
scf_type DF
guess SAD
freeze_core True
}
energy('sapt2+')
--------------------------------------------------------------------------

  Memory set to  30.000 GiB by Python script.

  //>>>>>>>>>>>>>>>>>>>>>>>>>>>>>>>>>>>//
  //              Dimer HF             //
  //<<<<<<<<<<<<<<<<<<<<<<<<<<<<<<<<<<<//


  No DF_BASIS_SCF auxiliary basis selected, defaulting to aug-cc-pvtz-jkfit


*** tstart() called on node35.bme.utexas.edu
*** at Mon Dec  2 04:06:16 2013


         ---------------------------------------------------------
                                   SCF
            by Justin Turney, Rob Parrish, and Andy Simmonett
                              RHF Reference
                        8 Threads,  30000 MiB Core
         ---------------------------------------------------------

  ==> Geometry <==

    Molecular point group: c1
    Full point group: C1

    Geometry (in Angstrom), charge = 0, multiplicity = 1:

       Center              X                  Y                   Z       
    ------------   -----------------  -----------------  -----------------
           C          0.959713332397     1.138499566988    -1.078517945787
           H          1.634980413397     1.982888777988    -1.077585723787
           C          1.466581943397    -0.160137832012    -1.031017263787
           H          2.534880123397    -0.321955681012    -0.992858001787
           C          0.595284700397    -1.248766655012    -1.027385230787
           H          0.988626090397    -2.255268077012    -0.989254849787
           C         -0.782241480603    -1.039429899012    -1.071020103787
           H         -1.457692159603    -1.883915683012    -1.067169336787
           C         -1.289381958603     0.258374299988    -1.114718002787
           H         -2.357982882603     0.420974997988    -1.144571338787
           C         -0.418810998603     1.347555715988    -1.118406610787
           H         -0.811797458603     2.354331405988    -1.147921124787
           O          0.224649136397     0.400951751988     2.503513171213
           H          0.310749351397     0.450824842988     1.546319626213
           C         -0.671501462603    -0.656662321012     2.786568210213
           H         -0.767222156603    -0.713396905012     3.867504346213
           H         -1.663651050603    -0.484964581012     2.362778006213
           H         -0.305041144603    -1.619703390012     2.423656694213

  Running in c1 symmetry.

  Nuclear repulsion =  342.866363686859415

  Charge       = 0
  Multiplicity = 1
  Electrons    = 60
  Nalpha       = 30
  Nbeta        = 30

  ==> Algorithm <==

  SCF Algorithm Type is DF.
  DIIS enabled.
  MOM disabled.
  Fractional occupation disabled.
  Guess Type is SAD.
  Energy threshold   = 1.00e-08
  Density threshold  = 1.00e-08
  Integral threshold = 0.00e+00

  ==> Primary Basis <==

  Basis Set: AUG-CC-PVTZ
    Number of shells: 202
    Number of basis function: 598
    Number of Cartesian functions: 690
    Spherical Harmonics?: true
    Max angular momentum: 3

  ==> Pre-Iterations <==

   -------------------------------------------------------
    Irrep   Nso     Nmo     Nalpha   Nbeta   Ndocc  Nsocc
   -------------------------------------------------------
     A        598     598       0       0       0       0
   -------------------------------------------------------
    Total     598     598      30      30      30       0
   -------------------------------------------------------

 OEINTS: Wrapper to libmints.
   by Justin Turney

   Calculation information:
      Number of atoms:                  18
      Number of AO shells:             202
      Number of SO shells:             202
      Number of primitives:            350
      Number of atomic orbitals:       690
      Number of basis functions:       598

      Number of irreps:                  1
      Number of functions per irrep: [ 598 ]

      Overlap, kinetic, potential, dipole, and quadrupole integrals
        stored in file 35.

  ==> Integral Setup <==

  ==> DFJK: Density-Fitted J/K Matrices <==

    J tasked:                  Yes
    K tasked:                  Yes
    wK tasked:                  No
    OpenMP threads:              8
    Integrals threads:           8
    Memory (MB):             21457
    Algorithm:                Core
    Integral Cache:           SAVE
    Schwarz Cutoff:          0E+00
    Fitting Condition:       1E-12

   => Auxiliary Basis Set <=

  Basis Set: aug-cc-pvtz-jkfit
    Number of shells: 380
    Number of basis function: 1292
    Number of Cartesian functions: 1598
    Spherical Harmonics?: true
    Max angular momentum: 4

  Minimum eigenvalue in the overlap matrix is 2.6614383420E-07.
  Using Symmetric Orthogonalization.
  SCF Guess: Superposition of Atomic Densities via on-the-fly atomic UHF.

  Guess energy:  -228.57918236464383

  ==> Iterations <==

                        Total Energy        Delta E     RMS |[F,P]|

   @RHF iter   0:  -349.91167685386762   -3.49912e+02   9.25759e-03 
   @RHF iter   1:  -345.69268274356926    4.21899e+00   7.38968e-04 
   @RHF iter   2:  -345.84786569603722   -1.55183e-01   2.52403e-04 DIIS
   @RHF iter   3:  -345.86960278031069   -2.17371e-02   1.28943e-04 DIIS
   @RHF iter   4:  -345.87429257314460   -4.68979e-03   3.92228e-05 DIIS
   @RHF iter   5:  -345.87502205830657   -7.29485e-04   1.12945e-05 DIIS
   @RHF iter   6:  -345.87509236462614   -7.03063e-05   3.04935e-06 DIIS
   @RHF iter   7:  -345.87509563785028   -3.27322e-06   9.32365e-07 DIIS
   @RHF iter   8:  -345.87509592661303   -2.88763e-07   2.11936e-07 DIIS
   @RHF iter   9:  -345.87509594600607   -1.93930e-08   8.50157e-08 DIIS
   @RHF iter  10:  -345.87509594839304   -2.38697e-09   2.43318e-08 DIIS
   @RHF iter  11:  -345.87509594863099   -2.37947e-10   8.44632e-09 DIIS

  ==> Post-Iterations <==

	Orbital Energies (a.u.)
	-----------------------

	Doubly Occupied:                                                      

	   1A    -20.543784     2A    -11.258548     3A    -11.246173  
	   4A    -11.245600     5A    -11.245587     6A    -11.244352  
	   7A    -11.244324     8A    -11.243728     9A     -1.344609  
	  10A     -1.160943    11A     -1.024978    12A     -1.024844  
	  13A     -0.912957    14A     -0.833761    15A     -0.833741  
	  16A     -0.719260    17A     -0.679288    18A     -0.653285  
	  19A     -0.628761    20A     -0.607832    21A     -0.597668  
	  22A     -0.597615    23A     -0.581178    24A     -0.513958  
	  25A     -0.504284    26A     -0.504214    27A     -0.491433  
	  28A     -0.437184    29A     -0.347863    30A     -0.347628  

	Virtual:                                                              

	  31A      0.026891    32A      0.033178    33A      0.033378  
	  34A      0.042679    35A      0.046480    36A      0.046561  
	  37A      0.060632    38A      0.062349    39A      0.063397  
	  40A      0.071217    41A      0.094548    42A      0.097028  
	  43A      0.101521    44A      0.109136    45A      0.110757  
	  46A      0.118359    47A      0.121650    48A      0.122720  
	  49A      0.124493    50A      0.125356    51A      0.125617  
	  52A      0.132680    53A      0.140197    54A      0.148584  
	  55A      0.151479    56A      0.154967    57A      0.155263  
	  58A      0.158309    59A      0.159277    60A      0.160081  
	  61A      0.160282    62A      0.168421    63A      0.169437  
	  64A      0.197784    65A      0.214787    66A      0.228368  
	  67A      0.229427    68A      0.230772    69A      0.237726  
	  70A      0.242111    71A      0.259363    72A      0.261499  
	  73A      0.262085    74A      0.276896    75A      0.281183  
	  76A      0.292918    77A      0.294194    78A      0.296378  
	  79A      0.302344    80A      0.305714    81A      0.308046  
	  82A      0.310112    83A      0.314445    84A      0.314628  
	  85A      0.323969    86A      0.325236    87A      0.331425  
	  88A      0.338063    89A      0.342510    90A      0.342886  
	  91A      0.344900    92A      0.347494    93A      0.354001  
	  94A      0.363955    95A      0.366185    96A      0.379987  
	  97A      0.381463    98A      0.387934    99A      0.398582  
	 100A      0.407147   101A      0.412002   102A      0.416937  
	 103A      0.418712   104A      0.426927   105A      0.431094  
	 106A      0.434753   107A      0.442931   108A      0.451052  
	 109A      0.456491   110A      0.464879   111A      0.471177  
	 112A      0.475760   113A      0.478737   114A      0.479477  
	 115A      0.484050   116A      0.490493   117A      0.496492  
	 118A      0.497259   119A      0.497640   120A      0.501351  
	 121A      0.506013   122A      0.507067   123A      0.520659  
	 124A      0.523354   125A      0.526793   126A      0.532002  
	 127A      0.534327   128A      0.540799   129A      0.545920  
	 130A      0.550805   131A      0.558561   132A      0.560028  
	 133A      0.571961   134A      0.575512   135A      0.577627  
	 136A      0.589063   137A      0.603164   138A      0.606715  
	 139A      0.614351   140A      0.638197   141A      0.640199  
	 142A      0.654474   143A      0.658410   144A      0.659613  
	 145A      0.666439   146A      0.676093   147A      0.680655  
	 148A      0.690934   149A      0.698493   150A      0.705451  
	 151A      0.709257   152A      0.713568   153A      0.720791  
	 154A      0.732766   155A      0.734045   156A      0.740277  
	 157A      0.742929   158A      0.750236   159A      0.774441  
	 160A      0.779901   161A      0.792594   162A      0.799800  
	 163A      0.802445   164A      0.806252   165A      0.812740  
	 166A      0.828700   167A      0.830964   168A      0.833967  
	 169A      0.837415   170A      0.844052   171A      0.864236  
	 172A      0.866702   173A      0.875514   174A      0.877082  
	 175A      0.879282   176A      0.880719   177A      0.882661  
	 178A      0.889981   179A      0.900744   180A      0.902255  
	 181A      0.905240   182A      0.911528   183A      0.915127  
	 184A      0.921823   185A      0.929732   186A      0.940689  
	 187A      0.943894   188A      0.947798   189A      0.971134  
	 190A      0.981950   191A      0.983684   192A      0.997313  
	 193A      1.007043   194A      1.008291   195A      1.018218  
	 196A      1.030372   197A      1.044537   198A      1.047805  
	 199A      1.053679   200A      1.055953   201A      1.071303  
	 202A      1.075578   203A      1.077363   204A      1.082093  
	 205A      1.092239   206A      1.095568   207A      1.096308  
	 208A      1.099216   209A      1.102535   210A      1.108414  
	 211A      1.118062   212A      1.123822   213A      1.124979  
	 214A      1.134919   215A      1.137690   216A      1.139028  
	 217A      1.144669   218A      1.145715   219A      1.150649  
	 220A      1.153589   221A      1.167741   222A      1.177711  
	 223A      1.180740   224A      1.189437   225A      1.191904  
	 226A      1.197855   227A      1.208228   228A      1.217995  
	 229A      1.223835   230A      1.225309   231A      1.240503  
	 232A      1.243052   233A      1.244379   234A      1.249363  
	 235A      1.261766   236A      1.264413   237A      1.269679  
	 238A      1.284635   239A      1.299713   240A      1.301330  
	 241A      1.310723   242A      1.313831   243A      1.336181  
	 244A      1.342017   245A      1.356911   246A      1.364154  
	 247A      1.365323   248A      1.377292   249A      1.381828  
	 250A      1.388855   251A      1.390460   252A      1.401455  
	 253A      1.407121   254A      1.420752   255A      1.424481  
	 256A      1.432284   257A      1.437695   258A      1.450208  
	 259A      1.458630   260A      1.477815   261A      1.481164  
	 262A      1.491413   263A      1.496347   264A      1.514541  
	 265A      1.526462   266A      1.531529   267A      1.543449  
	 268A      1.545309   269A      1.548866   270A      1.571669  
	 271A      1.580958   272A      1.607551   273A      1.647586  
	 274A      1.652508   275A      1.661542   276A      1.664032  
	 277A      1.679769   278A      1.695899   279A      1.697241  
	 280A      1.699034   281A      1.704123   282A      1.708871  
	 283A      1.721957   284A      1.730569   285A      1.742574  
	 286A      1.745219   287A      1.747268   288A      1.754892  
	 289A      1.756234   290A      1.777216   291A      1.788809  
	 292A      1.798054   293A      1.799012   294A      1.806181  
	 295A      1.816002   296A      1.838122   297A      1.838773  
	 298A      1.845933   299A      1.853948   300A      1.858648  
	 301A      1.879104   302A      1.886202   303A      1.890688  
	 304A      1.907896   305A      1.926404   306A      1.929101  
	 307A      1.948562   308A      1.971346   309A      1.993381  
	 310A      2.000678   311A      2.004264   312A      2.013581  
	 313A      2.016958   314A      2.021451   315A      2.033887  
	 316A      2.036867   317A      2.039734   318A      2.045265  
	 319A      2.061178   320A      2.064588   321A      2.072450  
	 322A      2.081489   323A      2.098968   324A      2.101813  
	 325A      2.117881   326A      2.118102   327A      2.126303  
	 328A      2.134116   329A      2.149523   330A      2.163586  
	 331A      2.168194   332A      2.196346   333A      2.235003  
	 334A      2.248541   335A      2.275907   336A      2.280610  
	 337A      2.295191   338A      2.333756   339A      2.336536  
	 340A      2.343781   341A      2.351462   342A      2.352675  
	 343A      2.374608   344A      2.388016   345A      2.405075  
	 346A      2.415341   347A      2.455096   348A      2.456107  
	 349A      2.474486   350A      2.518947   351A      2.519924  
	 352A      2.541199   353A      2.559574   354A      2.577087  
	 355A      2.584241   356A      2.594031   357A      2.598889  
	 358A      2.601971   359A      2.625350   360A      2.655920  
	 361A      2.686514   362A      2.737389   363A      2.745149  
	 364A      2.745520   365A      2.759714   366A      2.785985  
	 367A      2.789158   368A      2.821548   369A      2.839619  
	 370A      2.844588   371A      2.866380   372A      2.927134  
	 373A      2.962336   374A      2.973459   375A      3.024464  
	 376A      3.029824   377A      3.089028   378A      3.096205  
	 379A      3.115800   380A      3.135623   381A      3.153393  
	 382A      3.224618   383A      3.268124   384A      3.276759  
	 385A      3.289969   386A      3.308883   387A      3.317744  
	 388A      3.326329   389A      3.343772   390A      3.346797  
	 391A      3.382576   392A      3.384433   393A      3.397915  
	 394A      3.402278   395A      3.406942   396A      3.427449  
	 397A      3.442035   398A      3.454689   399A      3.458309  
	 400A      3.497788   401A      3.503893   402A      3.529595  
	 403A      3.533422   404A      3.571633   405A      3.573351  
	 406A      3.580583   407A      3.587208   408A      3.595345  
	 409A      3.599202   410A      3.625560   411A      3.635337  
	 412A      3.642467   413A      3.645000   414A      3.658535  
	 415A      3.669901   416A      3.682532   417A      3.691676  
	 418A      3.704221   419A      3.724975   420A      3.752297  
	 421A      3.785478   422A      3.801018   423A      3.805033  
	 424A      3.822075   425A      3.835717   426A      3.836788  
	 427A      3.847379   428A      3.864466   429A      3.869962  
	 430A      3.888014   431A      3.902834   432A      3.914509  
	 433A      3.917346   434A      3.930848   435A      3.935761  
	 436A      3.970276   437A      3.975007   438A      3.987092  
	 439A      3.990019   440A      4.001870   441A      4.005328  
	 442A      4.010557   443A      4.015394   444A      4.052107  
	 445A      4.055613   446A      4.060491   447A      4.061790  
	 448A      4.071067   449A      4.099288   450A      4.104433  
	 451A      4.107727   452A      4.121099   453A      4.136516  
	 454A      4.140337   455A      4.144141   456A      4.152204  
	 457A      4.165760   458A      4.169903   459A      4.199271  
	 460A      4.206529   461A      4.239828   462A      4.255101  
	 463A      4.256405   464A      4.288019   465A      4.295872  
	 466A      4.311957   467A      4.314789   468A      4.337062  
	 469A      4.350748   470A      4.354164   471A      4.370864  
	 472A      4.382705   473A      4.384954   474A      4.390040  
	 475A      4.408429   476A      4.419331   477A      4.426661  
	 478A      4.434625   479A      4.446710   480A      4.454098  
	 481A      4.468602   482A      4.478267   483A      4.488201  
	 484A      4.503967   485A      4.504540   486A      4.536765  
	 487A      4.595881   488A      4.598634   489A      4.627458  
	 490A      4.637442   491A      4.694811   492A      4.712895  
	 493A      4.716483   494A      4.728406   495A      4.730345  
	 496A      4.739193   497A      4.759238   498A      4.790331  
	 499A      4.791793   500A      4.808079   501A      4.827522  
	 502A      4.843872   503A      4.856001   504A      4.878650  
	 505A      4.880844   506A      4.924310   507A      4.934261  
	 508A      4.949426   509A      4.988461   510A      5.030171  
	 511A      5.033306   512A      5.048126   513A      5.061225  
	 514A      5.069289   515A      5.082403   516A      5.084998  
	 517A      5.114397   518A      5.126445   519A      5.127344  
	 520A      5.155711   521A      5.167558   522A      5.170081  
	 523A      5.175629   524A      5.176148   525A      5.187747  
	 526A      5.198504   527A      5.199074   528A      5.235990  
	 529A      5.238374   530A      5.259399   531A      5.299795  
	 532A      5.311722   533A      5.336709   534A      5.343636  
	 535A      5.349764   536A      5.402746   537A      5.434106  
	 538A      5.436407   539A      5.440693   540A      5.445645  
	 541A      5.488232   542A      5.513555   543A      5.544751  
	 544A      5.546010   545A      5.610223   546A      5.622568  
	 547A      5.656746   548A      5.665526   549A      5.747085  
	 550A      5.758021   551A      5.783376   552A      5.788251  
	 553A      5.796534   554A      5.851498   555A      5.877141  
	 556A      5.976320   557A      6.065888   558A      6.135593  
	 559A      6.173104   560A      6.204168   561A      6.223506  
	 562A      6.232031   563A      6.265572   564A      6.265825  
	 565A      6.268014   566A      6.379710   567A      6.384617  
	 568A      6.392281   569A      6.656090   570A      6.656637  
	 571A      6.659033   572A      6.687096   573A      6.746502  
	 574A      6.866898   575A      6.868654   576A      6.965363  
	 577A      6.987398   578A      7.020467   579A      7.110887  
	 580A      7.220089   581A      7.379109   582A      7.396449  
	 583A      7.434485   584A      7.546364   585A      7.554597  
	 586A      7.613979   587A      7.831299   588A      7.989178  
	 589A      8.234486   590A      8.575083   591A     16.057601  
	 592A     16.058253   593A     16.160183   594A     17.999175  
	 595A     19.005957   596A     19.449318   597A     19.556853  
	 598A     19.591132  

	Final Occupation by Irrep:
	          A 
	DOCC [    30 ]

  Energy converged.

  @RHF Final Energy:  -345.87509594863099

   => Energetics <=

    Nuclear Repulsion Energy =            342.8663636868594153
    One-Electron Energy =               -1148.2441630794864977
    Two-Electron Energy =                 459.5027034439963245
    DFT Exchange-Correlation Energy =       0.0000000000000000
    Empirical Dispersion Energy =           0.0000000000000000
    Total Energy =                       -345.8750959486308147



Properties will be evaluated at   0.000000,   0.000000,   0.000000 Bohr
  ==> Properties <==


Properties computed using the SCF density density matrix
  Nuclear Dipole Moment: (a.u.)
     X:    -1.7746      Y:    -1.9388      Z:     3.5565

  Electronic Dipole Moment: (a.u.)
     X:     1.4782      Y:     1.5486      Z:    -4.2070

  Dipole Moment: (a.u.)
     X:    -0.2964      Y:    -0.3902      Z:    -0.6505     Total:     0.8144

  Dipole Moment: (Debye)
     X:    -0.7534      Y:    -0.9917      Z:    -1.6534     Total:     2.0700


  Saving occupied orbitals to File 180.

  Saving SAPT 2-DIMER file.

*** tstop() called on node35.bme.utexas.edu at Mon Dec  2 04:07:11 2013
Module time:
	user time   =     342.65 seconds =       5.71 minutes
	system time =       6.30 seconds =       0.10 minutes
	total time  =         55 seconds =       0.92 minutes
Total time:
	user time   =     342.65 seconds =       5.71 minutes
	system time =       6.30 seconds =       0.10 minutes
	total time  =         55 seconds =       0.92 minutes

  //>>>>>>>>>>>>>>>>>>>>>>>>>>>>>>>>>>>//
  //            Monomer A HF           //
  //<<<<<<<<<<<<<<<<<<<<<<<<<<<<<<<<<<<//


  No DF_BASIS_SCF auxiliary basis selected, defaulting to aug-cc-pvtz-jkfit


*** tstart() called on node35.bme.utexas.edu
*** at Mon Dec  2 04:07:11 2013


         ---------------------------------------------------------
                                   SCF
            by Justin Turney, Rob Parrish, and Andy Simmonett
                              RHF Reference
                        8 Threads,  30000 MiB Core
         ---------------------------------------------------------

  ==> Geometry <==

    Molecular point group: c1
    Full point group: C1

    Geometry (in Angstrom), charge = 0, multiplicity = 1:

       Center              X                  Y                   Z       
    ------------   -----------------  -----------------  -----------------
           C          0.959713332397     1.138499566988    -1.078517945787
           H          1.634980413397     1.982888777988    -1.077585723787
           C          1.466581943397    -0.160137832012    -1.031017263787
           H          2.534880123397    -0.321955681012    -0.992858001787
           C          0.595284700397    -1.248766655012    -1.027385230787
           H          0.988626090397    -2.255268077012    -0.989254849787
           C         -0.782241480603    -1.039429899012    -1.071020103787
           H         -1.457692159603    -1.883915683012    -1.067169336787
           C         -1.289381958603     0.258374299988    -1.114718002787
           H         -2.357982882603     0.420974997988    -1.144571338787
           C         -0.418810998603     1.347555715988    -1.118406610787
           H         -0.811797458603     2.354331405988    -1.147921124787
           O(Gh)      0.224649136397     0.400951751988     2.503513171213
           H(Gh)      0.310749351397     0.450824842988     1.546319626213
           C(Gh)     -0.671501462603    -0.656662321012     2.786568210213
           H(Gh)     -0.767222156603    -0.713396905012     3.867504346213
           H(Gh)     -1.663651050603    -0.484964581012     2.362778006213
           H(Gh)     -0.305041144603    -1.619703390012     2.423656694213

  Running in c1 symmetry.

  Nuclear repulsion =  203.621439855162350

  Charge       = 0
  Multiplicity = 1
  Electrons    = 42
  Nalpha       = 21
  Nbeta        = 21

  ==> Algorithm <==

  SCF Algorithm Type is DF.
  DIIS enabled.
  MOM disabled.
  Fractional occupation disabled.
  Guess Type is SAD.
  Energy threshold   = 1.00e-08
  Density threshold  = 1.00e-08
  Integral threshold = 0.00e+00

  ==> Primary Basis <==

  Basis Set: AUG-CC-PVTZ
    Number of shells: 202
    Number of basis function: 598
    Number of Cartesian functions: 690
    Spherical Harmonics?: true
    Max angular momentum: 3

  ==> Pre-Iterations <==

   -------------------------------------------------------
    Irrep   Nso     Nmo     Nalpha   Nbeta   Ndocc  Nsocc
   -------------------------------------------------------
     A        598     598       0       0       0       0
   -------------------------------------------------------
    Total     598     598      21      21      21       0
   -------------------------------------------------------

 OEINTS: Wrapper to libmints.
   by Justin Turney

   Calculation information:
      Number of atoms:                  18
      Number of AO shells:             202
      Number of SO shells:             202
      Number of primitives:            350
      Number of atomic orbitals:       690
      Number of basis functions:       598

      Number of irreps:                  1
      Number of functions per irrep: [ 598 ]

      Overlap, kinetic, potential, dipole, and quadrupole integrals
        stored in file 35.

  ==> Integral Setup <==

  ==> DFJK: Density-Fitted J/K Matrices <==

    J tasked:                  Yes
    K tasked:                  Yes
    wK tasked:                  No
    OpenMP threads:              8
    Integrals threads:           8
    Memory (MB):             21457
    Algorithm:                Core
    Integral Cache:           LOAD
    Schwarz Cutoff:          0E+00
    Fitting Condition:       1E-12

   => Auxiliary Basis Set <=

  Basis Set: aug-cc-pvtz-jkfit
    Number of shells: 380
    Number of basis function: 1292
    Number of Cartesian functions: 1598
    Spherical Harmonics?: true
    Max angular momentum: 4

  Minimum eigenvalue in the overlap matrix is 2.6614383414E-07.
  Using Symmetric Orthogonalization.
  SCF Guess: Superposition of Atomic Densities via on-the-fly atomic UHF.

  Guess energy:  -150.12319721874655

  ==> Iterations <==

                        Total Energy        Delta E     RMS |[F,P]|

   @RHF iter   0:  -232.83228413414179   -2.32832e+02   7.57828e-03 
   @RHF iter   1:  -230.62866992235803    2.20361e+00   7.37239e-04 
   @RHF iter   2:  -230.76425832402344   -1.35588e-01   2.37707e-04 DIIS
   @RHF iter   3:  -230.77852601904470   -1.42677e-02   1.02142e-04 DIIS
   @RHF iter   4:  -230.78118798499594   -2.66197e-03   1.83763e-05 DIIS
   @RHF iter   5:  -230.78133787343944   -1.49888e-04   5.46965e-06 DIIS
   @RHF iter   6:  -230.78135640117040   -1.85277e-05   1.85130e-06 DIIS
   @RHF iter   7:  -230.78135767825063   -1.27708e-06   5.25631e-07 DIIS
   @RHF iter   8:  -230.78135781402148   -1.35771e-07   8.90638e-08 DIIS
   @RHF iter   9:  -230.78135781837358   -4.35210e-09   2.56801e-08 DIIS
   @RHF iter  10:  -230.78135781858418   -2.10605e-10   1.10391e-08 DIIS
   @RHF iter  11:  -230.78135781861607   -3.18892e-11   1.87118e-09 DIIS

  ==> Post-Iterations <==

	Orbital Energies (a.u.)
	-----------------------

	Doubly Occupied:                                                      

	   1A    -11.236433     2A    -11.235855     3A    -11.235849  
	   4A    -11.234620     5A    -11.234605     6A    -11.234001  
	   7A     -1.150013     8A     -1.014652     9A     -1.014625  
	  10A     -0.824114    11A     -0.824097    12A     -0.709583  
	  13A     -0.644412    14A     -0.618897    15A     -0.588100  
	  16A     -0.588079    17A     -0.502128    18A     -0.494969  
	  19A     -0.494943    20A     -0.336688    21A     -0.336674  

	Virtual:                                                              

	  22A      0.025476    23A      0.034175    24A      0.034279  
	  25A      0.037535    26A      0.047709    27A      0.047875  
	  28A      0.059708    29A      0.060146    30A      0.062998  
	  31A      0.064489    32A      0.096427    33A      0.100435  
	  34A      0.102023    35A      0.110520    36A      0.111670  
	  37A      0.113080    38A      0.120847    39A      0.124558  
	  40A      0.125014    41A      0.127435    42A      0.127589  
	  43A      0.129195    44A      0.134102    45A      0.135090  
	  46A      0.148580    47A      0.154116    48A      0.157470  
	  49A      0.157603    50A      0.160399    51A      0.161177  
	  52A      0.161308    53A      0.164380    54A      0.167280  
	  55A      0.188175    56A      0.200798    57A      0.213735  
	  58A      0.224118    59A      0.231064    60A      0.240090  
	  61A      0.241742    62A      0.255883    63A      0.261654  
	  64A      0.263657    65A      0.274085    66A      0.276933  
	  67A      0.287250    68A      0.299315    69A      0.299978  
	  70A      0.301438    71A      0.307043    72A      0.315534  
	  73A      0.315771    74A      0.317894    75A      0.317942  
	  76A      0.321017    77A      0.327934    78A      0.329981  
	  79A      0.333144    80A      0.341482    81A      0.345743  
	  82A      0.347456    83A      0.349339    84A      0.349769  
	  85A      0.360160    86A      0.364260    87A      0.374143  
	  88A      0.381509    89A      0.386759    90A      0.396622  
	  91A      0.403833    92A      0.416443    93A      0.416754  
	  94A      0.421855    95A      0.425880    96A      0.431678  
	  97A      0.441936    98A      0.452057    99A      0.455329  
	 100A      0.457545   101A      0.474123   102A      0.477149  
	 103A      0.480842   104A      0.481939   105A      0.485051  
	 106A      0.490264   107A      0.491197   108A      0.495818  
	 109A      0.500771   110A      0.503877   111A      0.504092  
	 112A      0.511282   113A      0.522356   114A      0.527822  
	 115A      0.528342   116A      0.534980   117A      0.537609  
	 118A      0.540210   119A      0.541269   120A      0.552259  
	 121A      0.555750   122A      0.561723   123A      0.563843  
	 124A      0.571440   125A      0.579698   126A      0.582010  
	 127A      0.596436   128A      0.613145   129A      0.620897  
	 130A      0.621197   131A      0.635635   132A      0.641795  
	 133A      0.654425   134A      0.663362   135A      0.664148  
	 136A      0.668345   137A      0.678344   138A      0.679802  
	 139A      0.681866   140A      0.695318   141A      0.695563  
	 142A      0.703219   143A      0.706042   144A      0.714485  
	 145A      0.727439   146A      0.732101   147A      0.754130  
	 148A      0.754278   149A      0.765032   150A      0.778218  
	 151A      0.782507   152A      0.799951   153A      0.805933  
	 154A      0.806860   155A      0.813344   156A      0.836811  
	 157A      0.837194   158A      0.848555   159A      0.858271  
	 160A      0.861776   161A      0.866236   162A      0.876819  
	 163A      0.878834   164A      0.885168   165A      0.886497  
	 166A      0.888464   167A      0.898687   168A      0.901973  
	 169A      0.910447   170A      0.914717   171A      0.922210  
	 172A      0.924964   173A      0.932555   174A      0.935839  
	 175A      0.944009   176A      0.961163   177A      0.966870  
	 178A      0.976291   179A      0.986519   180A      0.992075  
	 181A      0.993124   182A      1.013815   183A      1.015974  
	 184A      1.027392   185A      1.027946   186A      1.035322  
	 187A      1.039530   188A      1.057924   189A      1.060084  
	 190A      1.067086   191A      1.074148   192A      1.074849  
	 193A      1.087889   194A      1.090923   195A      1.099816  
	 196A      1.100439   197A      1.100734   198A      1.114409  
	 199A      1.116817   200A      1.124029   201A      1.124627  
	 202A      1.131635   203A      1.131786   204A      1.140294  
	 205A      1.147147   206A      1.152334   207A      1.154297  
	 208A      1.161285   209A      1.162351   210A      1.165496  
	 211A      1.174641   212A      1.179942   213A      1.195195  
	 214A      1.198027   215A      1.202349   216A      1.203132  
	 217A      1.215761   218A      1.225132   219A      1.227394  
	 220A      1.238634   221A      1.242872   222A      1.246480  
	 223A      1.253125   224A      1.259087   225A      1.262367  
	 226A      1.271554   227A      1.272853   228A      1.279670  
	 229A      1.288450   230A      1.289131   231A      1.309687  
	 232A      1.312513   233A      1.328210   234A      1.335857  
	 235A      1.353972   236A      1.369982   237A      1.372751  
	 238A      1.387104   239A      1.389695   240A      1.400395  
	 241A      1.403915   242A      1.411366   243A      1.413438  
	 244A      1.414773   245A      1.425112   246A      1.440750  
	 247A      1.447886   248A      1.452382   249A      1.461168  
	 250A      1.470784   251A      1.472359   252A      1.488134  
	 253A      1.506038   254A      1.513992   255A      1.526439  
	 256A      1.537355   257A      1.539320   258A      1.553288  
	 259A      1.556896   260A      1.563493   261A      1.566784  
	 262A      1.569313   263A      1.590689   264A      1.625922  
	 265A      1.638897   266A      1.674081   267A      1.703115  
	 268A      1.704208   269A      1.712459   270A      1.714497  
	 271A      1.716260   272A      1.737322   273A      1.739900  
	 274A      1.746001   275A      1.747111   276A      1.768711  
	 277A      1.771743   278A      1.776421   279A      1.798312  
	 280A      1.804656   281A      1.814921   282A      1.818265  
	 283A      1.826667   284A      1.847546   285A      1.852053  
	 286A      1.860076   287A      1.863904   288A      1.870839  
	 289A      1.880914   290A      1.896070   291A      1.900384  
	 292A      1.921697   293A      1.923273   294A      1.925066  
	 295A      1.926655   296A      1.950777   297A      1.960805  
	 298A      1.971648   299A      2.008769   300A      2.012788  
	 301A      2.018032   302A      2.023529   303A      2.026798  
	 304A      2.042063   305A      2.044003   306A      2.048860  
	 307A      2.049713   308A      2.065204   309A      2.066326  
	 310A      2.081448   311A      2.090775   312A      2.095539  
	 313A      2.099737   314A      2.110336   315A      2.128633  
	 316A      2.131032   317A      2.146146   318A      2.155983  
	 319A      2.183622   320A      2.200339   321A      2.216042  
	 322A      2.231985   323A      2.275571   324A      2.282316  
	 325A      2.283545   326A      2.287293   327A      2.321770  
	 328A      2.325910   329A      2.341029   330A      2.351197  
	 331A      2.352857   332A      2.354281   333A      2.370856  
	 334A      2.383479   335A      2.401844   336A      2.417931  
	 337A      2.448679   338A      2.457108   339A      2.469867  
	 340A      2.501343   341A      2.506459   342A      2.530951  
	 343A      2.536188   344A      2.538521   345A      2.577239  
	 346A      2.585407   347A      2.591845   348A      2.607681  
	 349A      2.613547   350A      2.648487   351A      2.690964  
	 352A      2.726147   353A      2.752066   354A      2.756167  
	 355A      2.767926   356A      2.777926   357A      2.794585  
	 358A      2.796305   359A      2.811793   360A      2.814556  
	 361A      2.851742   362A      2.851965   363A      2.935581  
	 364A      2.960231   365A      2.991650   366A      3.013894  
	 367A      3.087437   368A      3.098267   369A      3.128788  
	 370A      3.140715   371A      3.167430   372A      3.237858  
	 373A      3.239824   374A      3.292686   375A      3.300251  
	 376A      3.313748   377A      3.325004   378A      3.335945  
	 379A      3.343010   380A      3.349535   381A      3.359535  
	 382A      3.369739   383A      3.399050   384A      3.403381  
	 385A      3.417269   386A      3.419781   387A      3.430767  
	 388A      3.465644   389A      3.472864   390A      3.499429  
	 391A      3.502030   392A      3.533659   393A      3.542708  
	 394A      3.545653   395A      3.549947   396A      3.559818  
	 397A      3.606881   398A      3.610079   399A      3.632088  
	 400A      3.637250   401A      3.652576   402A      3.658470  
	 403A      3.659282   404A      3.683177   405A      3.694178  
	 406A      3.713042   407A      3.730186   408A      3.765012  
	 409A      3.791912   410A      3.796561   411A      3.830760  
	 412A      3.832251   413A      3.843258   414A      3.845429  
	 415A      3.847212   416A      3.871414   417A      3.876511  
	 418A      3.886303   419A      3.925603   420A      3.926282  
	 421A      3.962201   422A      3.965731   423A      3.988550  
	 424A      3.991178   425A      4.003536   426A      4.006691  
	 427A      4.013523   428A      4.050041   429A      4.063941  
	 430A      4.069032   431A      4.070472   432A      4.075763  
	 433A      4.096660   434A      4.108362   435A      4.115899  
	 436A      4.124319   437A      4.136521   438A      4.141080  
	 439A      4.142984   440A      4.173724   441A      4.180298  
	 442A      4.180938   443A      4.187006   444A      4.194429  
	 445A      4.214048   446A      4.224009   447A      4.254663  
	 448A      4.292310   449A      4.307670   450A      4.308716  
	 451A      4.347924   452A      4.362660   453A      4.368026  
	 454A      4.391868   455A      4.392476   456A      4.406671  
	 457A      4.428572   458A      4.437086   459A      4.439609  
	 460A      4.451347   461A      4.456052   462A      4.464551  
	 463A      4.477467   464A      4.482287   465A      4.486969  
	 466A      4.500269   467A      4.513040   468A      4.513556  
	 469A      4.548933   470A      4.551297   471A      4.576986  
	 472A      4.606166   473A      4.627873   474A      4.665843  
	 475A      4.675978   476A      4.703516   477A      4.710669  
	 478A      4.729041   479A      4.733175   480A      4.739877  
	 481A      4.750393   482A      4.792818   483A      4.794635  
	 484A      4.801343   485A      4.817696   486A      4.840392  
	 487A      4.876310   488A      4.888905   489A      4.895898  
	 490A      4.925643   491A      4.935998   492A      4.957788  
	 493A      4.978755   494A      5.017017   495A      5.037440  
	 496A      5.041086   497A      5.057576   498A      5.077887  
	 499A      5.087837   500A      5.095959   501A      5.105811  
	 502A      5.121317   503A      5.138374   504A      5.141734  
	 505A      5.176888   506A      5.180707   507A      5.181865  
	 508A      5.184150   509A      5.185614   510A      5.199385  
	 511A      5.206946   512A      5.245844   513A      5.246147  
	 514A      5.256587   515A      5.342681   516A      5.346529  
	 517A      5.347438   518A      5.348495   519A      5.358258  
	 520A      5.360628   521A      5.412502   522A      5.415797  
	 523A      5.439646   524A      5.443603   525A      5.448748  
	 526A      5.451708   527A      5.455943   528A      5.504305  
	 529A      5.514616   530A      5.541787   531A      5.551952  
	 532A      5.569213   533A      5.722709   534A      5.748914  
	 535A      5.767831   536A      5.782604   537A      5.797238  
	 538A      5.798032   539A      5.835620   540A      5.859167  
	 541A      5.868197   542A      5.887063   543A      5.985659  
	 544A      6.075589   545A      6.133088   546A      6.194695  
	 547A      6.221073   548A      6.238255   549A      6.242570  
	 550A      6.270949   551A      6.274973   552A      6.280322  
	 553A      6.389780   554A      6.389886   555A      6.393060  
	 556A      6.404484   557A      6.545085   558A      6.665700  
	 559A      6.670745   560A      6.832359   561A      6.858878  
	 562A      6.877342   563A      6.888178   564A      7.030208  
	 565A      7.133403   566A      7.229890   567A      7.317471  
	 568A      7.443901   569A      7.735407   570A      7.763863  
	 571A      7.851573   572A      7.896195   573A      7.927725  
	 574A      8.091234   575A      8.156579   576A      8.205605  
	 577A      8.297294   578A      8.359211   579A      8.643469  
	 580A      8.950431   581A      9.889624   582A     10.070084  
	 583A     10.397739   584A     10.405640   585A     10.667489  
	 586A     11.041134   587A     11.881848   588A     12.220159  
	 589A     13.206042   590A     14.261596   591A     16.067793  
	 592A     16.071776   593A     18.909868   594A     19.459662  
	 595A     19.566798   596A     19.598757   597A     53.205125  
	 598A     66.261961  

	Final Occupation by Irrep:
	          A 
	DOCC [    21 ]

  Energy converged.

  @RHF Final Energy:  -230.78135781861607

   => Energetics <=

    Nuclear Repulsion Energy =            203.6214398551623503
    One-Electron Energy =                -713.6989223877842505
    Two-Electron Energy =                 279.2961247140060550
    DFT Exchange-Correlation Energy =       0.0000000000000000
    Empirical Dispersion Energy =           0.0000000000000000
    Total Energy =                       -230.7813578186158452



Properties will be evaluated at   0.000000,   0.000000,   0.000000 Bohr
  ==> Properties <==


Properties computed using the SCF density density matrix
  Nuclear Dipole Moment: (a.u.)
     X:     7.0258      Y:     3.9186      Z:   -85.1619

  Electronic Dipole Moment: (a.u.)
     X:    -7.0258      Y:    -3.9182      Z:    85.1679

  Dipole Moment: (a.u.)
     X:     0.0000      Y:     0.0004      Z:     0.0060     Total:     0.0060

  Dipole Moment: (Debye)
     X:     0.0001      Y:     0.0009      Z:     0.0152     Total:     0.0152


  Saving occupied orbitals to File 180.

  Saving SAPT 2-MONOMER_A file.

*** tstop() called on node35.bme.utexas.edu at Mon Dec  2 04:07:48 2013
Module time:
	user time   =     226.55 seconds =       3.78 minutes
	system time =       3.63 seconds =       0.06 minutes
	total time  =         37 seconds =       0.62 minutes
Total time:
	user time   =     569.24 seconds =       9.49 minutes
	system time =       9.93 seconds =       0.17 minutes
	total time  =         92 seconds =       1.53 minutes

  //>>>>>>>>>>>>>>>>>>>>>>>>>>>>>>>>>>>//
  //            Monomer B HF           //
  //<<<<<<<<<<<<<<<<<<<<<<<<<<<<<<<<<<<//


  No DF_BASIS_SCF auxiliary basis selected, defaulting to aug-cc-pvtz-jkfit


*** tstart() called on node35.bme.utexas.edu
*** at Mon Dec  2 04:07:48 2013


         ---------------------------------------------------------
                                   SCF
            by Justin Turney, Rob Parrish, and Andy Simmonett
                              RHF Reference
                        8 Threads,  30000 MiB Core
         ---------------------------------------------------------

  ==> Geometry <==

    Molecular point group: c1
    Full point group: C1

    Geometry (in Angstrom), charge = 0, multiplicity = 1:

       Center              X                  Y                   Z       
    ------------   -----------------  -----------------  -----------------
           C(Gh)      0.959713332397     1.138499566988    -1.078517945787
           H(Gh)      1.634980413397     1.982888777988    -1.077585723787
           C(Gh)      1.466581943397    -0.160137832012    -1.031017263787
           H(Gh)      2.534880123397    -0.321955681012    -0.992858001787
           C(Gh)      0.595284700397    -1.248766655012    -1.027385230787
           H(Gh)      0.988626090397    -2.255268077012    -0.989254849787
           C(Gh)     -0.782241480603    -1.039429899012    -1.071020103787
           H(Gh)     -1.457692159603    -1.883915683012    -1.067169336787
           C(Gh)     -1.289381958603     0.258374299988    -1.114718002787
           H(Gh)     -2.357982882603     0.420974997988    -1.144571338787
           C(Gh)     -0.418810998603     1.347555715988    -1.118406610787
           H(Gh)     -0.811797458603     2.354331405988    -1.147921124787
           O          0.224649136397     0.400951751988     2.503513171213
           H          0.310749351397     0.450824842988     1.546319626213
           C         -0.671501462603    -0.656662321012     2.786568210213
           H         -0.767222156603    -0.713396905012     3.867504346213
           H         -1.663651050603    -0.484964581012     2.362778006213
           H         -0.305041144603    -1.619703390012     2.423656694213

  Running in c1 symmetry.

  Nuclear repulsion =   40.415222434888413

  Charge       = 0
  Multiplicity = 1
  Electrons    = 18
  Nalpha       = 9
  Nbeta        = 9

  ==> Algorithm <==

  SCF Algorithm Type is DF.
  DIIS enabled.
  MOM disabled.
  Fractional occupation disabled.
  Guess Type is SAD.
  Energy threshold   = 1.00e-08
  Density threshold  = 1.00e-08
  Integral threshold = 0.00e+00

  ==> Primary Basis <==

  Basis Set: AUG-CC-PVTZ
    Number of shells: 202
    Number of basis function: 598
    Number of Cartesian functions: 690
    Spherical Harmonics?: true
    Max angular momentum: 3

  ==> Pre-Iterations <==

   -------------------------------------------------------
    Irrep   Nso     Nmo     Nalpha   Nbeta   Ndocc  Nsocc
   -------------------------------------------------------
     A        598     598       0       0       0       0
   -------------------------------------------------------
    Total     598     598       9       9       9       0
   -------------------------------------------------------

 OEINTS: Wrapper to libmints.
   by Justin Turney

   Calculation information:
      Number of atoms:                  18
      Number of AO shells:             202
      Number of SO shells:             202
      Number of primitives:            350
      Number of atomic orbitals:       690
      Number of basis functions:       598

      Number of irreps:                  1
      Number of functions per irrep: [ 598 ]

      Overlap, kinetic, potential, dipole, and quadrupole integrals
        stored in file 35.

  ==> Integral Setup <==

  ==> DFJK: Density-Fitted J/K Matrices <==

    J tasked:                  Yes
    K tasked:                  Yes
    wK tasked:                  No
    OpenMP threads:              8
    Integrals threads:           8
    Memory (MB):             21457
    Algorithm:                Core
    Integral Cache:           LOAD
    Schwarz Cutoff:          0E+00
    Fitting Condition:       1E-12

   => Auxiliary Basis Set <=

  Basis Set: aug-cc-pvtz-jkfit
    Number of shells: 380
    Number of basis function: 1292
    Number of Cartesian functions: 1598
    Spherical Harmonics?: true
    Max angular momentum: 4

  Minimum eigenvalue in the overlap matrix is 2.6614383384E-07.
  Using Symmetric Orthogonalization.
  SCF Guess: Superposition of Atomic Densities via on-the-fly atomic UHF.

  Guess energy:   -77.06806799657633

  ==> Iterations <==

                        Total Energy        Delta E     RMS |[F,P]|

   @RHF iter   0:  -115.41950835744206   -1.15420e+02   4.27974e-03 
   @RHF iter   1:  -115.04760706239310    3.71901e-01   4.39783e-04 
   @RHF iter   2:  -115.08615652030545   -3.85495e-02   1.55097e-04 DIIS
   @RHF iter   3:  -115.09074921848739   -4.59270e-03   7.19193e-05 DIIS
   @RHF iter   4:  -115.09192537495824   -1.17616e-03   2.01883e-05 DIIS
   @RHF iter   5:  -115.09207994912796   -1.54574e-04   5.43755e-06 DIIS
   @RHF iter   6:  -115.09209689397827   -1.69449e-05   1.18024e-06 DIIS
   @RHF iter   7:  -115.09209777596811   -8.81990e-07   2.88542e-07 DIIS
   @RHF iter   8:  -115.09209782495796   -4.89898e-08   7.89523e-08 DIIS
   @RHF iter   9:  -115.09209782774533   -2.78737e-09   2.35902e-08 DIIS
   @RHF iter  10:  -115.09209782797666   -2.31324e-10   6.30224e-09 DIIS

  ==> Post-Iterations <==

	Orbital Energies (a.u.)
	-----------------------

	Doubly Occupied:                                                      

	   1A    -20.560316     2A    -11.270446     3A     -1.360209  
	   4A     -0.925483     5A     -0.692736     6A     -0.620845  
	   7A     -0.594723     8A     -0.505077     9A     -0.451367  

	Virtual:                                                              

	  10A      0.016124    11A      0.029892    12A      0.030212  
	  13A      0.039154    14A      0.047164    15A      0.047195  
	  16A      0.058974    17A      0.059013    18A      0.061521  
	  19A      0.064953    20A      0.070670    21A      0.091274  
	  22A      0.091822    23A      0.097492    24A      0.108209  
	  25A      0.108599    26A      0.118216    27A      0.119772  
	  28A      0.120459    29A      0.121528    30A      0.128363  
	  31A      0.140709    32A      0.142728    33A      0.146686  
	  34A      0.150536    35A      0.152292    36A      0.156212  
	  37A      0.159417    38A      0.160797    39A      0.162001  
	  40A      0.164888    41A      0.172059    42A      0.189485  
	  43A      0.190626    44A      0.201846    45A      0.216306  
	  46A      0.223404    47A      0.227116    48A      0.232326  
	  49A      0.236698    50A      0.239750    51A      0.246086  
	  52A      0.262753    53A      0.262999    54A      0.278438  
	  55A      0.282235    56A      0.283661    57A      0.293407  
	  58A      0.302186    59A      0.308022    60A      0.309032  
	  61A      0.309600    62A      0.317239    63A      0.320979  
	  64A      0.325313    65A      0.326433    66A      0.336807  
	  67A      0.341732    68A      0.350545    69A      0.350942  
	  70A      0.357291    71A      0.359459    72A      0.360253  
	  73A      0.361079    74A      0.376379    75A      0.380541  
	  76A      0.387874    77A      0.390387    78A      0.394149  
	  79A      0.409520    80A      0.411099    81A      0.417216  
	  82A      0.418919    83A      0.423658    84A      0.426169  
	  85A      0.430593    86A      0.438077    87A      0.442526  
	  88A      0.444130    89A      0.455879    90A      0.460249  
	  91A      0.466464    92A      0.468984    93A      0.478646  
	  94A      0.484251    95A      0.489680    96A      0.495801  
	  97A      0.505029    98A      0.511720    99A      0.516503  
	 100A      0.520599   101A      0.526002   102A      0.530822  
	 103A      0.537866   104A      0.544931   105A      0.555109  
	 106A      0.556307   107A      0.566542   108A      0.570558  
	 109A      0.583844   110A      0.588462   111A      0.590533  
	 112A      0.597644   113A      0.602140   114A      0.606145  
	 115A      0.617312   116A      0.622107   117A      0.634424  
	 118A      0.645182   119A      0.651176   120A      0.652719  
	 121A      0.666938   122A      0.671010   123A      0.672386  
	 124A      0.680055   125A      0.680676   126A      0.696652  
	 127A      0.697654   128A      0.706948   129A      0.709132  
	 130A      0.710035   131A      0.717243   132A      0.720920  
	 133A      0.731563   134A      0.736120   135A      0.742949  
	 136A      0.750764   137A      0.756066   138A      0.759915  
	 139A      0.764863   140A      0.774362   141A      0.782676  
	 142A      0.788535   143A      0.796291   144A      0.800581  
	 145A      0.809315   146A      0.817997   147A      0.833557  
	 148A      0.833818   149A      0.839632   150A      0.862583  
	 151A      0.866591   152A      0.872930   153A      0.890645  
	 154A      0.898036   155A      0.901455   156A      0.909021  
	 157A      0.913359   158A      0.921275   159A      0.937412  
	 160A      0.939582   161A      0.954744   162A      0.957934  
	 163A      0.982293   164A      0.991910   165A      0.997536  
	 166A      1.011745   167A      1.015698   168A      1.030045  
	 169A      1.038668   170A      1.048176   171A      1.055882  
	 172A      1.061944   173A      1.064675   174A      1.067234  
	 175A      1.071523   176A      1.084067   177A      1.090551  
	 178A      1.092166   179A      1.100070   180A      1.101927  
	 181A      1.114244   182A      1.126102   183A      1.129374  
	 184A      1.135847   185A      1.143850   186A      1.149141  
	 187A      1.157602   188A      1.165695   189A      1.167583  
	 190A      1.170943   191A      1.177405   192A      1.180483  
	 193A      1.182479   194A      1.196875   195A      1.208788  
	 196A      1.212254   197A      1.215055   198A      1.222282  
	 199A      1.224594   200A      1.233329   201A      1.244396  
	 202A      1.250673   203A      1.261585   204A      1.263283  
	 205A      1.267420   206A      1.280159   207A      1.281497  
	 208A      1.286882   209A      1.287620   210A      1.295753  
	 211A      1.300176   212A      1.303699   213A      1.305508  
	 214A      1.307014   215A      1.312589   216A      1.317688  
	 217A      1.324834   218A      1.331740   219A      1.344822  
	 220A      1.366227   221A      1.371083   222A      1.384925  
	 223A      1.392443   224A      1.401105   225A      1.404447  
	 226A      1.421930   227A      1.429965   228A      1.441169  
	 229A      1.441995   230A      1.453974   231A      1.460731  
	 232A      1.466927   233A      1.476091   234A      1.487545  
	 235A      1.498148   236A      1.519895   237A      1.531904  
	 238A      1.539311   239A      1.541214   240A      1.549164  
	 241A      1.550333   242A      1.561335   243A      1.561935  
	 244A      1.574963   245A      1.577919   246A      1.597444  
	 247A      1.601319   248A      1.605793   249A      1.612955  
	 250A      1.630625   251A      1.637512   252A      1.640281  
	 253A      1.656045   254A      1.658628   255A      1.666152  
	 256A      1.667349   257A      1.675264   258A      1.678299  
	 259A      1.688289   260A      1.693926   261A      1.708455  
	 262A      1.714586   263A      1.721354   264A      1.724491  
	 265A      1.740180   266A      1.756908   267A      1.777842  
	 268A      1.787980   269A      1.800013   270A      1.826596  
	 271A      1.829493   272A      1.851392   273A      1.853517  
	 274A      1.876569   275A      1.880803   276A      1.888238  
	 277A      1.897927   278A      1.899499   279A      1.901685  
	 280A      1.902963   281A      1.950855   282A      1.971998  
	 283A      1.981627   284A      1.983524   285A      2.009628  
	 286A      2.019156   287A      2.032180   288A      2.034922  
	 289A      2.052906   290A      2.066100   291A      2.089718  
	 292A      2.100348   293A      2.121269   294A      2.125245  
	 295A      2.152155   296A      2.165547   297A      2.167800  
	 298A      2.182604   299A      2.182755   300A      2.184421  
	 301A      2.186596   302A      2.194035   303A      2.218302  
	 304A      2.238859   305A      2.238979   306A      2.240220  
	 307A      2.264929   308A      2.268573   309A      2.305332  
	 310A      2.321236   311A      2.329524   312A      2.340566  
	 313A      2.343710   314A      2.345320   315A      2.346838  
	 316A      2.375954   317A      2.384715   318A      2.387253  
	 319A      2.389232   320A      2.422967   321A      2.435222  
	 322A      2.451148   323A      2.458792   324A      2.498588  
	 325A      2.501765   326A      2.506911   327A      2.509287  
	 328A      2.513341   329A      2.523846   330A      2.540948  
	 331A      2.541473   332A      2.548654   333A      2.553326  
	 334A      2.571018   335A      2.601231   336A      2.614302  
	 337A      2.615582   338A      2.625042   339A      2.634742  
	 340A      2.673757   341A      2.674843   342A      2.700271  
	 343A      2.748720   344A      2.757055   345A      2.774579  
	 346A      2.806358   347A      2.814336   348A      2.821118  
	 349A      2.829773   350A      2.835592   351A      2.870252  
	 352A      2.876834   353A      2.881114   354A      2.886358  
	 355A      2.922320   356A      2.955154   357A      2.960665  
	 358A      3.020011   359A      3.034923   360A      3.091143  
	 361A      3.112132   362A      3.117616   363A      3.142669  
	 364A      3.146500   365A      3.191420   366A      3.282054  
	 367A      3.282512   368A      3.322284   369A      3.395951  
	 370A      3.406466   371A      3.489187   372A      3.490880  
	 373A      3.585579   374A      3.589207   375A      3.596554  
	 376A      3.608686   377A      3.676953   378A      3.742066  
	 379A      3.778331   380A      3.785694   381A      3.828470  
	 382A      3.838825   383A      3.869537   384A      3.875160  
	 385A      3.906511   386A      3.930514   387A      3.937941  
	 388A      3.965411   389A      3.971023   390A      3.995430  
	 391A      4.014047   392A      4.018045   393A      4.028751  
	 394A      4.069092   395A      4.072653   396A      4.096192  
	 397A      4.096584   398A      4.106089   399A      4.110662  
	 400A      4.121423   401A      4.128060   402A      4.134182  
	 403A      4.137837   404A      4.146294   405A      4.168689  
	 406A      4.171648   407A      4.200447   408A      4.206360  
	 409A      4.209622   410A      4.218702   411A      4.249402  
	 412A      4.255727   413A      4.256913   414A      4.261470  
	 415A      4.262703   416A      4.282364   417A      4.292980  
	 418A      4.294160   419A      4.313678   420A      4.319744  
	 421A      4.368936   422A      4.372631   423A      4.402561  
	 424A      4.440635   425A      4.444760   426A      4.472564  
	 427A      4.481045   428A      4.497588   429A      4.538076  
	 430A      4.542891   431A      4.553746   432A      4.555660  
	 433A      4.559291   434A      4.569290   435A      4.571402  
	 436A      4.579581   437A      4.582264   438A      4.585899  
	 439A      4.603647   440A      4.604229   441A      4.622351  
	 442A      4.623209   443A      4.643368   444A      4.661060  
	 445A      4.710727   446A      4.718357   447A      4.720781  
	 448A      4.731797   449A      4.753611   450A      4.794269  
	 451A      4.796911   452A      4.824703   453A      4.843722  
	 454A      4.851096   455A      4.859350   456A      4.862015  
	 457A      4.885398   458A      4.952474   459A      4.978084  
	 460A      4.982463   461A      4.988281   462A      4.992203  
	 463A      4.997290   464A      5.039337   465A      5.045033  
	 466A      5.055545   467A      5.071832   468A      5.075579  
	 469A      5.102106   470A      5.103499   471A      5.108576  
	 472A      5.139997   473A      5.150030   474A      5.159344  
	 475A      5.168759   476A      5.170090   477A      5.189920  
	 478A      5.205235   479A      5.207487   480A      5.212979  
	 481A      5.261154   482A      5.271281   483A      5.281412  
	 484A      5.284908   485A      5.315182   486A      5.400161  
	 487A      5.421142   488A      5.429882   489A      5.445405  
	 490A      5.448160   491A      5.496480   492A      5.497967  
	 493A      5.498785   494A      5.505329   495A      5.505982  
	 496A      5.519013   497A      5.581508   498A      5.608103  
	 499A      5.626042   500A      5.627775   501A      5.642644  
	 502A      5.649100   503A      5.662365   504A      5.687567  
	 505A      5.696497   506A      5.714119   507A      5.729185  
	 508A      5.731955   509A      5.734822   510A      5.778921  
	 511A      5.791420   512A      5.793524   513A      5.795415  
	 514A      5.798063   515A      5.838482   516A      5.869114  
	 517A      5.957003   518A      5.961173   519A      5.967279  
	 520A      5.999682   521A      6.002329   522A      6.124237  
	 523A      6.129520   524A      6.131713   525A      6.161989  
	 526A      6.163240   527A      6.186477   528A      6.187049  
	 529A      6.190309   530A      6.205896   531A      6.221739  
	 532A      6.252423   533A      6.429314   534A      6.431267  
	 535A      6.458465   536A      6.500017   537A      6.515163  
	 538A      6.638388   539A      6.674717   540A      6.698673  
	 541A      6.734812   542A      6.795651   543A      6.812485  
	 544A      6.886499   545A      6.890040   546A      6.942658  
	 547A      6.964780   548A      7.065561   549A      7.068084  
	 550A      7.095936   551A      7.126872   552A      7.137250  
	 553A      7.144485   554A      7.159833   555A      7.176213  
	 556A      7.358863   557A      7.382521   558A      7.394697  
	 559A      7.482011   560A      7.500338   561A      7.541057  
	 562A      7.544130   563A      7.569585   564A      7.601334  
	 565A      7.656086   566A      7.657847   567A      7.783409  
	 568A      7.818869   569A      7.882882   570A      7.955124  
	 571A      8.048377   572A      8.185257   573A      8.189671  
	 574A      8.201481   575A      8.224876   576A      8.321600  
	 577A      8.326377   578A      8.558856   579A      8.961303  
	 580A      8.962104   581A      9.355633   582A      9.400421  
	 583A      9.453640   584A     10.038538   585A     10.039584  
	 586A     10.973843   587A     11.028179   588A     11.339617  
	 589A     11.367626   590A     11.443024   591A     16.189997  
	 592A     18.050166   593A     49.682755   594A     49.688436  
	 595A     53.801442   596A     55.547029   597A     55.836414  
	 598A     56.612036  

	Final Occupation by Irrep:
	          A 
	DOCC [     9 ]

  Energy converged.

  @RHF Final Energy:  -115.09209782797666

   => Energetics <=

    Nuclear Repulsion Energy =             40.4152224348884133
    One-Electron Energy =                -237.0522391409158729
    Two-Electron Energy =                  81.5449188780504244
    DFT Exchange-Correlation Energy =       0.0000000000000000
    Empirical Dispersion Energy =           0.0000000000000000
    Total Energy =                       -115.0920978279770281



Properties will be evaluated at   0.000000,   0.000000,   0.000000 Bohr
  ==> Properties <==


Properties computed using the SCF density density matrix
  Nuclear Dipole Moment: (a.u.)
     X:    -8.8004      Y:    -5.8574      Z:    88.7184

  Electronic Dipole Moment: (a.u.)
     X:     8.4736      Y:     5.4395      Z:   -89.1926

  Dipole Moment: (a.u.)
     X:    -0.3268      Y:    -0.4179      Z:    -0.4742     Total:     0.7115

  Dipole Moment: (Debye)
     X:    -0.8306      Y:    -1.0622      Z:    -1.2052     Total:     1.8085


  Saving occupied orbitals to File 180.

  Saving SAPT 2-MONOMER_B file.

*** tstop() called on node35.bme.utexas.edu at Mon Dec  2 04:08:23 2013
Module time:
	user time   =     206.77 seconds =       3.45 minutes
	system time =       3.23 seconds =       0.05 minutes
	total time  =         35 seconds =       0.58 minutes
Total time:
	user time   =     776.02 seconds =      12.93 minutes
	system time =      13.17 seconds =       0.22 minutes
	total time  =        127 seconds =       2.12 minutes
  No DF_BASIS_SAPT auxiliary basis selected, defaulting to aug-cc-pvtz-ri

  //>>>>>>>>>>>>>>>>>>>>>>>>>>>>>>>>>>>//
  //               SAPT2+              //
  //<<<<<<<<<<<<<<<<<<<<<<<<<<<<<<<<<<<//


*** tstart() called on node35.bme.utexas.edu
*** at Mon Dec  2 04:08:23 2013

        SAPT2+  
    Ed Hohenstein
     6 June 2009

      Orbital Information
  --------------------------
    NSO        =       598
    NMO        =       598
    NRI        =      1308
    NOCC A     =        21
    NOCC B     =         9
    FOCC A     =         6
    FOCC B     =         2
    NVIR A     =       577
    NVIR B     =       589

    Estimated memory usage: 7302.0 MB

    Elst10,r            =    -0.003866273187 H
    Exch10 (S^2)        =     0.003325952789 H
    Exch10              =     0.003328675746 H
    Ind20,r (A<-B)      =    -0.001194996506 H
    Ind20,r (B<-A)      =    -0.000263117561 H
    Ind20,r             =    -0.001458114068 H
    Exch-Ind20,r (A<-B) =     0.000584565251 H
    Exch-Ind20,r (B<-A) =     0.000159572103 H
    Exch-Ind20,r        =     0.000744137353 H
    Disp20              =    -0.005776309774 H
    Exch-Disp20         =     0.000446509339 H
    Elst12,r            =     0.000304682718 H
    Exch11              =     0.000122951046 H
    Exch12              =     0.000159405676 H
    Ind22               =    -0.000048286017 H
    Disp21              =     0.000973005919 H
    Disp22 (SDQ)        =     0.000241318021 H

    (i =   1 of   7)       7282 seconds
    (i =   2 of   7)      15124 seconds
    (i =   3 of   7)      22939 seconds
    (i =   4 of   7)      29718 seconds
    (i =   5 of   7)      35243 seconds
    (i =   6 of   7)      40059 seconds
    (i =   7 of   7)      45072 seconds

    Disp220 (T)         =    -0.000597875902 H

    (i =   1 of  15)       2077 seconds
    (i =   2 of  15)       4281 seconds
    (i =   3 of  15)       6365 seconds
    (i =   4 of  15)       8540 seconds
    (i =   5 of  15)      11138 seconds
    (i =   6 of  15)      13432 seconds
    (i =   7 of  15)      16277 seconds
    (i =   8 of  15)      19058 seconds
    (i =   9 of  15)      21867 seconds
    (i =  10 of  15)      24480 seconds
    (i =  11 of  15)      27606 seconds
    (i =  12 of  15)      30606 seconds
    (i =  13 of  15)      33536 seconds
    (i =  14 of  15)      35623 seconds
    (i =  15 of  15)      37843 seconds

    Disp202 (T)         =    -0.000571428154 H

    Disp22 (T)          =    -0.001169304056 H

    SAPT Results  
  -----------------------------------------------------------------------
    Electrostatics          -3.56159047 mH      -2.23493185 kcal mol^-1
      Elst10,r              -3.86627319 mH      -2.42612315 kcal mol^-1
      Elst12,r               0.30468272 mH       0.19119130 kcal mol^-1

    Exchange                 3.61103247 mH       2.26595718 kcal mol^-1
      Exch10                 3.32867575 mH       2.08877565 kcal mol^-1
      Exch10(S^2)            3.32595279 mH       2.08706697 kcal mol^-1
      Exch11(S^2)            0.12295105 mH       0.07715295 kcal mol^-1
      Exch12(S^2)            0.15940568 mH       0.10002858 kcal mol^-1

    Induction               -1.12634822 mH      -0.70679421 kcal mol^-1
      Ind20,r               -1.45811407 mH      -0.91498043 kcal mol^-1
      Ind22                 -0.04828602 mH      -0.03029993 kcal mol^-1
      Exch-Ind20,r           0.74413735 mH       0.46695326 kcal mol^-1
      Exch-Ind22             0.02464240 mH       0.01546334 kcal mol^-1
      delta HF,r (2)        -0.38872788 mH      -0.24393044 kcal mol^-1

    Dispersion              -5.28478055 mH      -3.31625000 kcal mol^-1
      Disp20                -5.77630977 mH      -3.62468926 kcal mol^-1
      Disp21                 0.97300592 mH       0.61057046 kcal mol^-1
      Disp22 (SDQ)           0.24131802 mH       0.15142935 kcal mol^-1
      Disp22 (T)            -1.16930406 mH      -0.73374940 kcal mol^-1
      Exch-Disp20            0.44650934 mH       0.28018885 kcal mol^-1

    Total HF                -1.64030204 mH      -1.02930511 kcal mol^-1
    Total SAPT0             -6.97010247 mH      -4.37380552 kcal mol^-1
    Total SAPT2             -6.40670665 mH      -4.02026929 kcal mol^-1
    Total SAPT2+            -6.36168677 mH      -3.99201888 kcal mol^-1

*** tstop() called on node35.bme.utexas.edu at Tue Dec  3 09:45:12 2013
Module time:
	user time   =  634183.23 seconds =   10569.72 minutes
	system time =    6950.18 seconds =     115.84 minutes
	total time  =     106609 seconds =    1776.82 minutes
Total time:
	user time   =  634959.25 seconds =   10582.65 minutes
	system time =    6963.35 seconds =     116.06 minutes
	total time  =     106736 seconds =    1778.93 minutes

*** PSI4 exiting successfully. Buy a developer a beer!
