    -----------------------------------------------------------------------
          PSI4: An Open-Source Ab Initio Electronic Structure Package
                              PSI 4.0.0-beta4 Driver

    J. M. Turney, A. C. Simmonett, R. M. Parrish, E. G. Hohenstein,
    F. A. Evangelista, J. T. Fermann, B. J. Mintz, L. A. Burns, J. J. Wilke,
    M. L. Abrams, N. J. Russ, M. L. Leininger, C. L. Janssen, E. T. Seidl,
    W. D. Allen, H. F. Schaefer, R. A. King, E. F. Valeev, C. D. Sherrill,
    and T. D. Crawford, WIREs Comput. Mol. Sci., (2011) (doi: 10.1002/wcms.93)

                         Additional Contributions by
    A. E. DePrince, M. Saitow, U. Bozkaya, A. Yu. Sokolov
    -----------------------------------------------------------------------

    Process ID:  32602
    PSI4DATADIR: /home/xzhu216/psi4/psi4-install/share/psi

    Using LocalCommunicator (Number of processes = 1)

    Memory level set to 256.000 MB

  ==> Input File <==

--------------------------------------------------------------------------
#psi4
#
memory 20 gb

molecule Benzene_MeNH2 {
0 1
C    0.692315234   1.088292040   0.324841241
H    1.281948804   1.991946780   0.252515784
C    1.318187219  -0.156870079   0.286896073
H    2.393143372  -0.219476358   0.188406812
C    0.558018413  -1.321950449   0.381399863
H    1.043919224  -2.287573802   0.357615421
C   -0.827552361  -1.241421869   0.511685015
H   -1.416700950  -2.145251521   0.585339272
C   -1.453411383   0.003671449   0.548381072
H   -2.528232546   0.065702716   0.649842537
C   -0.693460943   1.168401084   0.456229070
H   -1.178735338   2.134409890   0.485726845
--
0 1
N    0.259919487  -0.236733091   4.013166485
H    0.394537844  -0.192692589   3.010095128
H    0.401412058   0.708413645   4.345638762
C   -1.116179988  -0.643116500   4.290602277
H   -1.274056554  -0.671663507   5.367157813
H   -1.887482175  -0.002735711   3.850483279
H   -1.270871969  -1.652684302   3.914980577
units angstrom
no_reorient  #important for SAPT in psi4, default
symmetry c1  #important for SAPT in psi4, default
}

set {
basis aug-cc-pVTZ
scf_type DF
freeze_core True
}
energy('sapt2+')
--------------------------------------------------------------------------

  Memory set to  20.000 GiB by Python script.

  //>>>>>>>>>>>>>>>>>>>>>>>>>>>>>>>>>>>//
  //              Dimer HF             //
  //<<<<<<<<<<<<<<<<<<<<<<<<<<<<<<<<<<<//


  No DF_BASIS_SCF auxiliary basis selected, defaulting to aug-cc-pvtz-jkfit


*** tstart() called on node33.bme.utexas.edu
*** at Fri Oct 25 09:13:09 2013


         ---------------------------------------------------------
                                   SCF
            by Justin Turney, Rob Parrish, and Andy Simmonett
                              RHF Reference
                        6 Threads,  20000 MiB Core
         ---------------------------------------------------------

  ==> Geometry <==

    Molecular point group: c1
    Full point group: C1

    Geometry (in Angstrom), charge = 0, multiplicity = 1:

       Center              X                  Y                   Z       
    ------------   -----------------  -----------------  -----------------
           C          0.863717010585     1.260997603575    -1.150877678648
           H          1.453350580585     2.164652343575    -1.223203135648
           C          1.489588995585     0.015835484575    -1.188822846648
           H          2.564545148585    -0.046770794425    -1.287312107648
           C          0.729420189585    -1.149244885425    -1.094319056648
           H          1.215321000585    -2.114868238425    -1.118103498648
           C         -0.656150584415    -1.068716305425    -0.964033904648
           H         -1.245299173415    -1.972545957425    -0.890379647648
           C         -1.282009606415     0.176377012575    -0.927337847648
           H         -2.356830769415     0.238408279575    -0.825876382648
           C         -0.522059166415     1.341106647575    -1.019489849648
           H         -1.007333561415     2.307115453575    -0.989992074648
           N          0.431321263585    -0.064027527425     2.537447565352
           H          0.565939620585    -0.019987025425     1.534376208352
           H          0.572813834585     0.881119208575     2.869919842352
           C         -0.944778211415    -0.470410936425     2.814883357352
           H         -1.102654777415    -0.498957943425     3.891438893352
           H         -1.716080398415     0.169969852575     2.374764359352
           H         -1.099470192415    -1.479978738425     2.439261657352

  Running in c1 symmetry.

  Nuclear repulsion =  343.704942408727788

  Charge       = 0
  Multiplicity = 1
  Electrons    = 60
  Nalpha       = 30
  Nbeta        = 30

  ==> Algorithm <==

  SCF Algorithm Type is DF.
  DIIS enabled.
  MOM disabled.
  Fractional occupation disabled.
  Guess Type is CORE.
  Energy threshold   = 1.00e-08
  Density threshold  = 1.00e-08
  Integral threshold = 0.00e+00

  ==> Primary Basis <==

  Basis Set: AUG-CC-PVTZ
    Number of shells: 211
    Number of basis function: 621
    Number of Cartesian functions: 715
    Spherical Harmonics?: true
    Max angular momentum: 3

  ==> Pre-Iterations <==

   -------------------------------------------------------
    Irrep   Nso     Nmo     Nalpha   Nbeta   Ndocc  Nsocc
   -------------------------------------------------------
     A        621     621       0       0       0       0
   -------------------------------------------------------
    Total     621     621      30      30      30       0
   -------------------------------------------------------

 OEINTS: Wrapper to libmints.
   by Justin Turney

   Calculation information:
      Number of atoms:                  19
      Number of AO shells:             211
      Number of SO shells:             211
      Number of primitives:            361
      Number of atomic orbitals:       715
      Number of basis functions:       621

      Number of irreps:                  1
      Number of functions per irrep: [ 621 ]

      Overlap, kinetic, potential, dipole, and quadrupole integrals
        stored in file 35.

  ==> Integral Setup <==

  ==> DFJK: Density-Fitted J/K Matrices <==

    J tasked:                  Yes
    K tasked:                  Yes
    wK tasked:                  No
    OpenMP threads:              6
    Integrals threads:           6
    Memory (MB):             14305
    Algorithm:                Core
    Integral Cache:           SAVE
    Schwarz Cutoff:          0E+00
    Fitting Condition:       1E-12

   => Auxiliary Basis Set <=

  Basis Set: aug-cc-pvtz-jkfit
    Number of shells: 394
    Number of basis function: 1338
    Number of Cartesian functions: 1653
    Spherical Harmonics?: true
    Max angular momentum: 4

  Minimum eigenvalue in the overlap matrix is 2.6218933748E-07.
  Using Symmetric Orthogonalization.
  SCF Guess: Core (One-Electron) Hamiltonian.

  Guess energy:  -268.17353757956789

  ==> Iterations <==

                        Total Energy        Delta E     RMS |[F,P]|

   @RHF iter   1:  -200.53657127109739   -2.00537e+02   2.20897e-02 
   @RHF iter   2:   -82.57397269594014    1.17963e+02   2.47701e-02 DIIS
   @RHF iter   3:  -251.12188313875140   -1.68548e+02   1.12323e-02 DIIS
   @RHF iter   4:  -173.46121532143070    7.76607e+01   1.91397e-02 DIIS
   @RHF iter   5:  -236.98951477407820   -6.35283e+01   1.36137e-02 DIIS
   @RHF iter   6:  -307.11015942967060   -7.01206e+01   7.14621e-03 DIIS
   @RHF iter   7:  -325.23813761956683   -1.81280e+01   1.90003e-03 DIIS
   @RHF iter   8:  -325.93338243344726   -6.95245e-01   7.47791e-04 DIIS
   @RHF iter   9:  -326.02933439178503   -9.59520e-02   1.43326e-04 DIIS
   @RHF iter  10:  -326.03533454258161   -6.00015e-03   4.98990e-05 DIIS
   @RHF iter  11:  -326.03611949952767   -7.84957e-04   2.24769e-05 DIIS
   @RHF iter  12:  -326.03631199254130   -1.92493e-04   8.44148e-06 DIIS
   @RHF iter  13:  -326.03634994423271   -3.79517e-05   3.00867e-06 DIIS
   @RHF iter  14:  -326.03635683427285   -6.89004e-06   1.14508e-06 DIIS
   @RHF iter  15:  -326.03635802266979   -1.18840e-06   4.91377e-07 DIIS
   @RHF iter  16:  -326.03635827680569   -2.54136e-07   2.44226e-07 DIIS
   @RHF iter  17:  -326.03635834930287   -7.24972e-08   1.00166e-07 DIIS
   @RHF iter  18:  -326.03635836189130   -1.25884e-08   3.29388e-08 DIIS
   @RHF iter  19:  -326.03635836256024   -6.68933e-10   9.96272e-09 DIIS

  ==> Post-Iterations <==

	Orbital Energies (a.u.)
	-----------------------

	Doubly Occupied:                                                      

	   1A    -15.526184     2A    -11.242226     3A    -11.241561  
	   4A    -11.241459     5A    -11.240391     6A    -11.240224  
	   7A    -11.239586     8A    -11.230466     9A     -1.160310  
	  10A     -1.155737    11A     -1.020991    12A     -1.020903  
	  13A     -0.885213    14A     -0.829966    15A     -0.829906  
	  16A     -0.715512    17A     -0.650329    18A     -0.649604  
	  19A     -0.624927    20A     -0.594995    21A     -0.593865  
	  22A     -0.593248    23A     -0.544445    24A     -0.511317  
	  25A     -0.502195    26A     -0.500507    27A     -0.500458  
	  28A     -0.382051    29A     -0.343600    30A     -0.343390  

	Virtual:                                                              

	  31A      0.026945    32A      0.033010    33A      0.034247  
	  34A      0.041735    35A      0.046955    36A      0.047007  
	  37A      0.055858    38A      0.061567    39A      0.063702  
	  40A      0.065089    41A      0.087642    42A      0.095678  
	  43A      0.101481    44A      0.103964    45A      0.111381  
	  46A      0.112129    47A      0.116110    48A      0.121835  
	  49A      0.123586    50A      0.125669    51A      0.126064  
	  52A      0.128847    53A      0.130972    54A      0.146362  
	  55A      0.149405    56A      0.152328    57A      0.154618  
	  58A      0.155344    59A      0.157133    60A      0.160320  
	  61A      0.160865    62A      0.168913    63A      0.169948  
	  64A      0.173942    65A      0.182261    66A      0.201696  
	  67A      0.205116    68A      0.222267    69A      0.229767  
	  70A      0.238467    71A      0.241246    72A      0.247850  
	  73A      0.257281    74A      0.258391    75A      0.269992  
	  76A      0.275218    77A      0.285800    78A      0.289682  
	  79A      0.290360    80A      0.299292    81A      0.300481  
	  82A      0.302466    83A      0.307059    84A      0.309511  
	  85A      0.317230    86A      0.319638    87A      0.321299  
	  88A      0.331866    89A      0.341680    90A      0.343509  
	  91A      0.345388    92A      0.346058    93A      0.347360  
	  94A      0.356229    95A      0.359097    96A      0.363576  
	  97A      0.374399    98A      0.376189    99A      0.381052  
	 100A      0.390418   101A      0.395580   102A      0.400747  
	 103A      0.407897   104A      0.408439   105A      0.422058  
	 106A      0.423494   107A      0.426334   108A      0.432373  
	 109A      0.444453   110A      0.445006   111A      0.449841  
	 112A      0.455417   113A      0.459795   114A      0.465451  
	 115A      0.466179   116A      0.478177   117A      0.480744  
	 118A      0.483787   119A      0.486225   120A      0.493166  
	 121A      0.495919   122A      0.497733   123A      0.498931  
	 124A      0.504297   125A      0.508882   126A      0.516838  
	 127A      0.522606   128A      0.525848   129A      0.528640  
	 130A      0.535266   131A      0.536790   132A      0.540747  
	 133A      0.546992   134A      0.550615   135A      0.559032  
	 136A      0.563572   137A      0.564826   138A      0.570821  
	 139A      0.579479   140A      0.583966   141A      0.599837  
	 142A      0.614762   143A      0.619256   144A      0.622060  
	 145A      0.630431   146A      0.636147   147A      0.642647  
	 148A      0.660861   149A      0.662403   150A      0.666081  
	 151A      0.669149   152A      0.674689   153A      0.680866  
	 154A      0.690964   155A      0.692798   156A      0.700832  
	 157A      0.702961   158A      0.713761   159A      0.717097  
	 160A      0.720747   161A      0.736326   162A      0.747816  
	 163A      0.749981   164A      0.764978   165A      0.772341  
	 166A      0.782605   167A      0.794301   168A      0.800027  
	 169A      0.802332   170A      0.807630   171A      0.816699  
	 172A      0.819537   173A      0.823232   174A      0.834773  
	 175A      0.841371   176A      0.848187   177A      0.853397  
	 178A      0.866051   179A      0.872663   180A      0.875776  
	 181A      0.878697   182A      0.888251   183A      0.890292  
	 184A      0.896805   185A      0.897811   186A      0.906894  
	 187A      0.911787   188A      0.916011   189A      0.917126  
	 190A      0.921533   191A      0.926274   192A      0.931307  
	 193A      0.951150   194A      0.962653   195A      0.965275  
	 196A      0.969515   197A      0.983486   198A      0.987972  
	 199A      0.993336   200A      1.002265   201A      1.005632  
	 202A      1.019184   203A      1.028116   204A      1.028866  
	 205A      1.039051   206A      1.047013   207A      1.053556  
	 208A      1.057271   209A      1.059501   210A      1.074372  
	 211A      1.077690   212A      1.083893   213A      1.094071  
	 214A      1.094637   215A      1.102070   216A      1.107767  
	 217A      1.113819   218A      1.118255   219A      1.121208  
	 220A      1.124276   221A      1.126663   222A      1.128559  
	 223A      1.135365   224A      1.138202   225A      1.146335  
	 226A      1.148391   227A      1.154167   228A      1.161249  
	 229A      1.170185   230A      1.177310   231A      1.188965  
	 232A      1.194050   233A      1.197041   234A      1.203756  
	 235A      1.207987   236A      1.216362   237A      1.224413  
	 238A      1.226236   239A      1.237620   240A      1.241514  
	 241A      1.246443   242A      1.257043   243A      1.259813  
	 244A      1.268274   245A      1.271500   246A      1.276380  
	 247A      1.283931   248A      1.293691   249A      1.302848  
	 250A      1.308814   251A      1.313540   252A      1.323172  
	 253A      1.328735   254A      1.345748   255A      1.356346  
	 256A      1.358427   257A      1.366830   258A      1.372581  
	 259A      1.381860   260A      1.388552   261A      1.392317  
	 262A      1.398092   263A      1.409145   264A      1.412035  
	 265A      1.422505   266A      1.440949   267A      1.445690  
	 268A      1.458520   269A      1.467380   270A      1.475069  
	 271A      1.479636   272A      1.489537   273A      1.494307  
	 274A      1.504519   275A      1.512539   276A      1.514695  
	 277A      1.526430   278A      1.540984   279A      1.546915  
	 280A      1.553783   281A      1.562598   282A      1.567900  
	 283A      1.584787   284A      1.593290   285A      1.604498  
	 286A      1.608676   287A      1.624975   288A      1.660424  
	 289A      1.682420   290A      1.692373   291A      1.699514  
	 292A      1.704668   293A      1.713615   294A      1.717177  
	 295A      1.722467   296A      1.730381   297A      1.747468  
	 298A      1.751334   299A      1.755769   300A      1.763334  
	 301A      1.770120   302A      1.773280   303A      1.776814  
	 304A      1.790793   305A      1.806691   306A      1.819715  
	 307A      1.821249   308A      1.823234   309A      1.840893  
	 310A      1.855259   311A      1.859992   312A      1.868749  
	 313A      1.875128   314A      1.887276   315A      1.905899  
	 316A      1.906989   317A      1.919076   318A      1.924508  
	 319A      1.937429   320A      1.966854   321A      1.978709  
	 322A      1.992658   323A      2.004499   324A      2.011828  
	 325A      2.016328   326A      2.025256   327A      2.038013  
	 328A      2.040022   329A      2.050439   330A      2.055368  
	 331A      2.057440   332A      2.060288   333A      2.074868  
	 334A      2.075098   335A      2.079383   336A      2.094173  
	 337A      2.110183   338A      2.112091   339A      2.120527  
	 340A      2.127293   341A      2.139038   342A      2.146183  
	 343A      2.153480   344A      2.161084   345A      2.170261  
	 346A      2.186360   347A      2.214839   348A      2.243444  
	 349A      2.258167   350A      2.280813   351A      2.282053  
	 352A      2.284179   353A      2.295887   354A      2.315910  
	 355A      2.329172   356A      2.339308   357A      2.348626  
	 358A      2.356565   359A      2.367213   360A      2.379554  
	 361A      2.393430   362A      2.400510   363A      2.414999  
	 364A      2.435364   365A      2.439682   366A      2.464654  
	 367A      2.468877   368A      2.484381   369A      2.518344  
	 370A      2.523892   371A      2.528050   372A      2.533998  
	 373A      2.563303   374A      2.579620   375A      2.582066  
	 376A      2.590659   377A      2.601345   378A      2.607855  
	 379A      2.659586   380A      2.698247   381A      2.708295  
	 382A      2.730954   383A      2.751466   384A      2.753912  
	 385A      2.767051   386A      2.785728   387A      2.805012  
	 388A      2.845055   389A      2.850096   390A      2.929624  
	 391A      2.987129   392A      3.010882   393A      3.060044  
	 394A      3.130804   395A      3.140548   396A      3.196518  
	 397A      3.257547   398A      3.276601   399A      3.294028  
	 400A      3.314163   401A      3.320648   402A      3.328333  
	 403A      3.341983   404A      3.349016   405A      3.386761  
	 406A      3.399037   407A      3.404173   408A      3.413397  
	 409A      3.424371   410A      3.434918   411A      3.447183  
	 412A      3.452544   413A      3.476551   414A      3.481163  
	 415A      3.509160   416A      3.520700   417A      3.538028  
	 418A      3.544470   419A      3.569494   420A      3.581055  
	 421A      3.600628   422A      3.611984   423A      3.623679  
	 424A      3.628203   425A      3.638831   426A      3.644384  
	 427A      3.654096   428A      3.661299   429A      3.680163  
	 430A      3.691067   431A      3.703224   432A      3.708911  
	 433A      3.714123   434A      3.758710   435A      3.762596  
	 436A      3.775403   437A      3.799117   438A      3.815491  
	 439A      3.826405   440A      3.831681   441A      3.841319  
	 442A      3.843238   443A      3.848121   444A      3.881066  
	 445A      3.886079   446A      3.889398   447A      3.921068  
	 448A      3.925254   449A      3.937400   450A      3.952060  
	 451A      3.963156   452A      3.975333   453A      3.984063  
	 454A      3.988628   455A      3.994172   456A      4.000232  
	 457A      4.007421   458A      4.021352   459A      4.027090  
	 460A      4.042538   461A      4.056724   462A      4.061766  
	 463A      4.074352   464A      4.081789   465A      4.087176  
	 466A      4.114394   467A      4.121308   468A      4.136042  
	 469A      4.140139   470A      4.144174   471A      4.145865  
	 472A      4.159466   473A      4.171960   474A      4.188568  
	 475A      4.196182   476A      4.201007   477A      4.210397  
	 478A      4.237692   479A      4.256848   480A      4.272060  
	 481A      4.287014   482A      4.301399   483A      4.322393  
	 484A      4.325060   485A      4.345085   486A      4.350187  
	 487A      4.361065   488A      4.362215   489A      4.383030  
	 490A      4.385688   491A      4.398679   492A      4.406505  
	 493A      4.418723   494A      4.425087   495A      4.438099  
	 496A      4.440010   497A      4.449705   498A      4.457519  
	 499A      4.466649   500A      4.478642   501A      4.488835  
	 502A      4.499748   503A      4.508761   504A      4.510274  
	 505A      4.522308   506A      4.563086   507A      4.601964  
	 508A      4.615750   509A      4.650355   510A      4.680105  
	 511A      4.699087   512A      4.703209   513A      4.723273  
	 514A      4.730861   515A      4.732067   516A      4.739594  
	 517A      4.761548   518A      4.788070   519A      4.793361  
	 520A      4.799415   521A      4.809742   522A      4.849464  
	 523A      4.854248   524A      4.882924   525A      4.885809  
	 526A      4.904874   527A      4.927732   528A      4.931560  
	 529A      4.946007   530A      4.958941   531A      4.986157  
	 532A      5.034940   533A      5.037721   534A      5.049478  
	 535A      5.070664   536A      5.076076   537A      5.086791  
	 538A      5.093968   539A      5.116748   540A      5.125704  
	 541A      5.139387   542A      5.144934   543A      5.153321  
	 544A      5.171677   545A      5.175696   546A      5.180570  
	 547A      5.183777   548A      5.190970   549A      5.204347  
	 550A      5.217382   551A      5.233688   552A      5.242362  
	 553A      5.244117   554A      5.249290   555A      5.282169  
	 556A      5.317484   557A      5.340956   558A      5.342995  
	 559A      5.354053   560A      5.357697   561A      5.400811  
	 562A      5.434987   563A      5.440383   564A      5.446572  
	 565A      5.451517   566A      5.464773   567A      5.528513  
	 568A      5.546087   569A      5.571153   570A      5.577753  
	 571A      5.608382   572A      5.621667   573A      5.754451  
	 574A      5.759196   575A      5.792150   576A      5.793711  
	 577A      5.844619   578A      5.857483   579A      5.876208  
	 580A      5.882931   581A      5.948101   582A      5.983065  
	 583A      6.011160   584A      6.077287   585A      6.098609  
	 586A      6.119969   587A      6.148937   588A      6.183858  
	 589A      6.219000   590A      6.228405   591A      6.235616  
	 592A      6.269965   593A      6.271400   594A      6.307483  
	 595A      6.390655   596A      6.393873   597A      6.396924  
	 598A      6.469160   599A      6.591330   600A      6.660749  
	 601A      6.671281   602A      6.707552   603A      6.757426  
	 604A      6.843656   605A      6.875789   606A      6.888668  
	 607A      6.905990   608A      7.028642   609A      7.097917  
	 610A      7.182369   611A      7.227613   612A      7.439861  
	 613A      7.854391   614A     16.071690   615A     16.092857  
	 616A     17.473882   617A     18.312481   618A     19.283852  
	 619A     19.544208   620A     19.570789   621A     19.578225  

	Final Occupation by Irrep:
	          A 
	DOCC [    30 ]

  Energy converged.

  @RHF Final Energy:  -326.03635836256024

   => Energetics <=

    Nuclear Repulsion Energy =            343.7049424087277885
    One-Electron Energy =               -1121.1714706308807763
    Two-Electron Energy =                 451.4301698595920698
    DFT Exchange-Correlation Energy =       0.0000000000000000
    Empirical Dispersion Energy =           0.0000000000000000
    Total Energy =                       -326.0363583625609181



Properties will be evaluated at   0.000000,   0.000000,   0.000000 Bohr
  ==> Properties <==


Properties computed using the SCF density density matrix
  Nuclear Dipole Moment: (a.u.)
     X:    -2.0222      Y:    -0.3484      Z:     6.3439

  Electronic Dipole Moment: (a.u.)
     X:     1.6957      Y:     0.7062      Z:    -6.7315

  Dipole Moment: (a.u.)
     X:    -0.3265      Y:     0.3578      Z:    -0.3876     Total:     0.6203

  Dipole Moment: (Debye)
     X:    -0.8298      Y:     0.9094      Z:    -0.9852     Total:     1.5767


  Saving occupied orbitals to File 180.

  Saving SAPT 2-DIMER file.

*** tstop() called on node33.bme.utexas.edu at Fri Oct 25 09:16:28 2013
Module time:
	user time   =    1050.97 seconds =      17.52 minutes
	system time =      12.63 seconds =       0.21 minutes
	total time  =        199 seconds =       3.32 minutes
Total time:
	user time   =    1050.97 seconds =      17.52 minutes
	system time =      12.63 seconds =       0.21 minutes
	total time  =        199 seconds =       3.32 minutes

  //>>>>>>>>>>>>>>>>>>>>>>>>>>>>>>>>>>>//
  //            Monomer A HF           //
  //<<<<<<<<<<<<<<<<<<<<<<<<<<<<<<<<<<<//


  No DF_BASIS_SCF auxiliary basis selected, defaulting to aug-cc-pvtz-jkfit


*** tstart() called on node33.bme.utexas.edu
*** at Fri Oct 25 09:16:28 2013


         ---------------------------------------------------------
                                   SCF
            by Justin Turney, Rob Parrish, and Andy Simmonett
                              RHF Reference
                        6 Threads,  20000 MiB Core
         ---------------------------------------------------------

  ==> Geometry <==

    Molecular point group: c1
    Full point group: C1

    Geometry (in Angstrom), charge = 0, multiplicity = 1:

       Center              X                  Y                   Z       
    ------------   -----------------  -----------------  -----------------
           C          0.863717010585     1.260997603575    -1.150877678648
           H          1.453350580585     2.164652343575    -1.223203135648
           C          1.489588995585     0.015835484575    -1.188822846648
           H          2.564545148585    -0.046770794425    -1.287312107648
           C          0.729420189585    -1.149244885425    -1.094319056648
           H          1.215321000585    -2.114868238425    -1.118103498648
           C         -0.656150584415    -1.068716305425    -0.964033904648
           H         -1.245299173415    -1.972545957425    -0.890379647648
           C         -1.282009606415     0.176377012575    -0.927337847648
           H         -2.356830769415     0.238408279575    -0.825876382648
           C         -0.522059166415     1.341106647575    -1.019489849648
           H         -1.007333561415     2.307115453575    -0.989992074648
           N(Gh)      0.431321263585    -0.064027527425     2.537447565352
           H(Gh)      0.565939620585    -0.019987025425     1.534376208352
           H(Gh)      0.572813834585     0.881119208575     2.869919842352
           C(Gh)     -0.944778211415    -0.470410936425     2.814883357352
           H(Gh)     -1.102654777415    -0.498957943425     3.891438893352
           H(Gh)     -1.716080398415     0.169969852575     2.374764359352
           H(Gh)     -1.099470192415    -1.479978738425     2.439261657352

  Running in c1 symmetry.

  Nuclear repulsion =  203.658594639332165

  Charge       = 0
  Multiplicity = 1
  Electrons    = 42
  Nalpha       = 21
  Nbeta        = 21

  ==> Algorithm <==

  SCF Algorithm Type is DF.
  DIIS enabled.
  MOM disabled.
  Fractional occupation disabled.
  Guess Type is CORE.
  Energy threshold   = 1.00e-08
  Density threshold  = 1.00e-08
  Integral threshold = 0.00e+00

  ==> Primary Basis <==

  Basis Set: AUG-CC-PVTZ
    Number of shells: 211
    Number of basis function: 621
    Number of Cartesian functions: 715
    Spherical Harmonics?: true
    Max angular momentum: 3

  ==> Pre-Iterations <==

   -------------------------------------------------------
    Irrep   Nso     Nmo     Nalpha   Nbeta   Ndocc  Nsocc
   -------------------------------------------------------
     A        621     621       0       0       0       0
   -------------------------------------------------------
    Total     621     621      21      21      21       0
   -------------------------------------------------------

 OEINTS: Wrapper to libmints.
   by Justin Turney

   Calculation information:
      Number of atoms:                  19
      Number of AO shells:             211
      Number of SO shells:             211
      Number of primitives:            361
      Number of atomic orbitals:       715
      Number of basis functions:       621

      Number of irreps:                  1
      Number of functions per irrep: [ 621 ]

      Overlap, kinetic, potential, dipole, and quadrupole integrals
        stored in file 35.

  ==> Integral Setup <==

  ==> DFJK: Density-Fitted J/K Matrices <==

    J tasked:                  Yes
    K tasked:                  Yes
    wK tasked:                  No
    OpenMP threads:              6
    Integrals threads:           6
    Memory (MB):             14305
    Algorithm:                Core
    Integral Cache:           LOAD
    Schwarz Cutoff:          0E+00
    Fitting Condition:       1E-12

   => Auxiliary Basis Set <=

  Basis Set: aug-cc-pvtz-jkfit
    Number of shells: 394
    Number of basis function: 1338
    Number of Cartesian functions: 1653
    Spherical Harmonics?: true
    Max angular momentum: 4

  Minimum eigenvalue in the overlap matrix is 2.6218933752E-07.
  Using Symmetric Orthogonalization.
  SCF Guess: Core (One-Electron) Hamiltonian.

  Guess energy:  -182.18423074565365

  ==> Iterations <==

                        Total Energy        Delta E     RMS |[F,P]|

   @RHF iter   1:  -182.85409037580033   -1.82854e+02   1.57753e-02 
   @RHF iter   2:  -170.03190087320328    1.28222e+01   7.94570e-03 DIIS
   @RHF iter   3:  -220.47552796387632   -5.04436e+01   6.61867e-03 DIIS
   @RHF iter   4:  -228.74920682350623   -8.27368e+00   2.93946e-03 DIIS
   @RHF iter   5:  -230.15820855740063   -1.40900e+00   1.65775e-03 DIIS
   @RHF iter   6:  -230.67084440984641   -5.12636e-01   6.72643e-04 DIIS
   @RHF iter   7:  -230.77670555169485   -1.05861e-01   1.18619e-04 DIIS
   @RHF iter   8:  -230.78113766124235   -4.43211e-03   2.93489e-05 DIIS
   @RHF iter   9:  -230.78138363802273   -2.45977e-04   9.22756e-06 DIIS
   @RHF iter  10:  -230.78141143893023   -2.78009e-05   2.34852e-06 DIIS
   @RHF iter  11:  -230.78141418840514   -2.74947e-06   1.28364e-06 DIIS
   @RHF iter  12:  -230.78141497632154   -7.87916e-07   5.62331e-07 DIIS
   @RHF iter  13:  -230.78141531422435   -3.37903e-07   2.23527e-07 DIIS
   @RHF iter  14:  -230.78141537602679   -6.18024e-08   9.38702e-08 DIIS
   @RHF iter  15:  -230.78141538406069   -8.03391e-09   2.03297e-08 DIIS
   @RHF iter  16:  -230.78141538430631   -2.45620e-10   6.56422e-09 DIIS

  ==> Post-Iterations <==

	Orbital Energies (a.u.)
	-----------------------

	Doubly Occupied:                                                      

	   1A    -11.236334     2A    -11.235759     3A    -11.235753  
	   4A    -11.234517     5A    -11.234509     6A    -11.233905  
	   7A     -1.150204     8A     -1.014761     9A     -1.014684  
	  10A     -0.824126    11A     -0.824117    12A     -0.709633  
	  13A     -0.644266    14A     -0.619023    15A     -0.588139  
	  16A     -0.588034    17A     -0.502268    18A     -0.494962  
	  19A     -0.494879    20A     -0.336768    21A     -0.336715  

	Virtual:                                                              

	  22A      0.024928    23A      0.033434    24A      0.034179  
	  25A      0.037740    26A      0.047621    27A      0.047836  
	  28A      0.055049    29A      0.058106    30A      0.062962  
	  31A      0.064472    32A      0.082291    33A      0.095449  
	  34A      0.099354    35A      0.107311    36A      0.110172  
	  37A      0.110981    38A      0.113282    39A      0.118984  
	  40A      0.123373    41A      0.125906    42A      0.126411  
	  43A      0.128384    44A      0.129993    45A      0.133051  
	  46A      0.143342    47A      0.149071    48A      0.154154  
	  49A      0.155886    50A      0.156993    51A      0.157629  
	  52A      0.159824    53A      0.161134    54A      0.166799  
	  55A      0.169269    56A      0.172366    57A      0.197797  
	  58A      0.202139    59A      0.209094    60A      0.224413  
	  61A      0.230866    62A      0.242576    63A      0.247829  
	  64A      0.257255    65A      0.260315    66A      0.265953  
	  67A      0.276598    68A      0.284280    69A      0.296296  
	  70A      0.299599    71A      0.300199    72A      0.303011  
	  73A      0.306200    74A      0.308924    75A      0.312940  
	  76A      0.313579    77A      0.316836    78A      0.320668  
	  79A      0.325529    80A      0.330332    81A      0.336621  
	  82A      0.344357    83A      0.348051    84A      0.348615  
	  85A      0.350184    86A      0.354194    87A      0.360372  
	  88A      0.365134    89A      0.369747    90A      0.379689  
	  91A      0.383501    92A      0.393080    93A      0.396947  
	  94A      0.403348    95A      0.405253    96A      0.411056  
	  97A      0.423849    98A      0.429705    99A      0.432307  
	 100A      0.440675   101A      0.449118   102A      0.456067  
	 103A      0.459445   104A      0.466437   105A      0.470766  
	 106A      0.475411   107A      0.480337   108A      0.485018  
	 109A      0.487495   110A      0.490364   111A      0.493047  
	 112A      0.496572   113A      0.501388   114A      0.507219  
	 115A      0.512231   116A      0.516839   117A      0.522527  
	 118A      0.524092   119A      0.529075   120A      0.533345  
	 121A      0.538720   122A      0.543742   123A      0.546732  
	 124A      0.548493   125A      0.562184   126A      0.566541  
	 127A      0.568486   128A      0.575720   129A      0.585191  
	 130A      0.592056   131A      0.600354   132A      0.610925  
	 133A      0.616356   134A      0.624992   135A      0.633126  
	 136A      0.645303   137A      0.651138   138A      0.657623  
	 139A      0.658506   140A      0.661852   141A      0.665484  
	 142A      0.674047   143A      0.677590   144A      0.681461  
	 145A      0.688714   146A      0.696609   147A      0.703815  
	 148A      0.707934   149A      0.713487   150A      0.725890  
	 151A      0.733359   152A      0.736366   153A      0.744378  
	 154A      0.753344   155A      0.754480   156A      0.776397  
	 157A      0.779541   158A      0.796462   159A      0.803004  
	 160A      0.810272   161A      0.812977   162A      0.817309  
	 163A      0.825769   164A      0.836551   165A      0.839799  
	 166A      0.847134   167A      0.849785   168A      0.850898  
	 169A      0.870249   170A      0.875210   171A      0.877883  
	 172A      0.883164   173A      0.885877   174A      0.894265  
	 175A      0.896248   176A      0.900118   177A      0.907008  
	 178A      0.910117   179A      0.915390   180A      0.929608  
	 181A      0.931300   182A      0.941865   183A      0.962690  
	 184A      0.968291   185A      0.974704   186A      0.989877  
	 187A      0.990361   188A      1.003146   189A      1.006326  
	 190A      1.016704   191A      1.019159   192A      1.029282  
	 193A      1.034892   194A      1.046535   195A      1.048747  
	 196A      1.065894   197A      1.072926   198A      1.077067  
	 199A      1.084703   200A      1.088681   201A      1.097851  
	 202A      1.100332   203A      1.103969   204A      1.111007  
	 205A      1.116139   206A      1.121398   207A      1.122077  
	 208A      1.127139   209A      1.134452   210A      1.135898  
	 211A      1.140102   212A      1.144454   213A      1.152088  
	 214A      1.155197   215A      1.158804   216A      1.166550  
	 217A      1.172220   218A      1.181821   219A      1.189547  
	 220A      1.197668   221A      1.200904   222A      1.203913  
	 223A      1.207129   224A      1.213017   225A      1.217027  
	 226A      1.223986   227A      1.228393   228A      1.231711  
	 229A      1.240525   230A      1.254767   231A      1.259963  
	 232A      1.266848   233A      1.270816   234A      1.279161  
	 235A      1.281351   236A      1.285205   237A      1.297163  
	 238A      1.306950   239A      1.316020   240A      1.324643  
	 241A      1.331484   242A      1.334344   243A      1.346750  
	 244A      1.356500   245A      1.366911   246A      1.377760  
	 247A      1.381686   248A      1.385406   249A      1.393116  
	 250A      1.395670   251A      1.401630   252A      1.412959  
	 253A      1.425130   254A      1.426236   255A      1.431205  
	 256A      1.435290   257A      1.447754   258A      1.455249  
	 259A      1.469000   260A      1.470765   261A      1.477567  
	 262A      1.490950   263A      1.506418   264A      1.515365  
	 265A      1.521629   266A      1.528993   267A      1.531475  
	 268A      1.539303   269A      1.554253   270A      1.556412  
	 271A      1.562552   272A      1.568456   273A      1.588977  
	 274A      1.602534   275A      1.612927   276A      1.617413  
	 277A      1.643832   278A      1.665198   279A      1.687569  
	 280A      1.698381   281A      1.705500   282A      1.706454  
	 283A      1.714513   284A      1.726848   285A      1.731783  
	 286A      1.736043   287A      1.744168   288A      1.752027  
	 289A      1.759418   290A      1.768477   291A      1.771793  
	 292A      1.776341   293A      1.783156   294A      1.798135  
	 295A      1.808099   296A      1.815163   297A      1.828489  
	 298A      1.859780   299A      1.864055   300A      1.870559  
	 301A      1.875295   302A      1.880016   303A      1.886111  
	 304A      1.892164   305A      1.903726   306A      1.922511  
	 307A      1.924486   308A      1.927550   309A      1.951595  
	 310A      1.968968   311A      1.987540   312A      1.997083  
	 313A      2.002344   314A      2.017382   315A      2.021435  
	 316A      2.026524   317A      2.041862   318A      2.045636  
	 319A      2.052855   320A      2.057299   321A      2.063967  
	 322A      2.072553   323A      2.078505   324A      2.093943  
	 325A      2.105334   326A      2.112265   327A      2.123838  
	 328A      2.136063   329A      2.143063   330A      2.144456  
	 331A      2.159361   332A      2.171717   333A      2.180117  
	 334A      2.196573   335A      2.212876   336A      2.216262  
	 337A      2.253406   338A      2.284812   339A      2.285630  
	 340A      2.287785   341A      2.298205   342A      2.310161  
	 343A      2.316566   344A      2.327957   345A      2.348415  
	 346A      2.354281   347A      2.358065   348A      2.379394  
	 349A      2.385614   350A      2.393881   351A      2.412982  
	 352A      2.417356   353A      2.434730   354A      2.448665  
	 355A      2.465494   356A      2.471399   357A      2.490068  
	 358A      2.494458   359A      2.509035   360A      2.532240  
	 361A      2.540745   362A      2.562877   363A      2.578895  
	 364A      2.588492   365A      2.594446   366A      2.599334  
	 367A      2.617999   368A      2.619621   369A      2.660079  
	 370A      2.749351   371A      2.758252   372A      2.759869  
	 373A      2.774322   374A      2.790446   375A      2.800357  
	 376A      2.821365   377A      2.848256   378A      2.852306  
	 379A      2.873406   380A      2.915254   381A      2.949679  
	 382A      2.974476   383A      3.006859   384A      3.024075  
	 385A      3.040190   386A      3.083922   387A      3.129776  
	 388A      3.137082   389A      3.155060   390A      3.159982  
	 391A      3.270206   392A      3.280759   393A      3.289174  
	 394A      3.309961   395A      3.323292   396A      3.329370  
	 397A      3.346878   398A      3.359786   399A      3.367715  
	 400A      3.381764   401A      3.405579   402A      3.415139  
	 403A      3.417979   404A      3.423948   405A      3.439258  
	 406A      3.466771   407A      3.481485   408A      3.487754  
	 409A      3.530257   410A      3.540228   411A      3.544996  
	 412A      3.551915   413A      3.607337   414A      3.619758  
	 415A      3.633472   416A      3.638394   417A      3.649081  
	 418A      3.663153   419A      3.667082   420A      3.679546  
	 421A      3.695339   422A      3.708372   423A      3.739240  
	 424A      3.767096   425A      3.775076   426A      3.806820  
	 427A      3.820749   428A      3.844947   429A      3.846834  
	 430A      3.864761   431A      3.882577   432A      3.887924  
	 433A      3.916853   434A      3.938109   435A      3.947813  
	 436A      3.962630   437A      3.986143   438A      3.987196  
	 439A      3.992594   440A      4.007627   441A      4.011036  
	 442A      4.016496   443A      4.025178   444A      4.062600  
	 445A      4.070348   446A      4.073107   447A      4.082827  
	 448A      4.107452   449A      4.115361   450A      4.132518  
	 451A      4.141590   452A      4.144675   453A      4.153111  
	 454A      4.168979   455A      4.177969   456A      4.191390  
	 457A      4.192692   458A      4.209613   459A      4.217573  
	 460A      4.232707   461A      4.248846   462A      4.291373  
	 463A      4.300857   464A      4.312281   465A      4.349370  
	 466A      4.353748   467A      4.363675   468A      4.374783  
	 469A      4.393643   470A      4.397067   471A      4.411656  
	 472A      4.430478   473A      4.436688   474A      4.439843  
	 475A      4.450280   476A      4.455578   477A      4.471307  
	 478A      4.476608   479A      4.484666   480A      4.494330  
	 481A      4.499439   482A      4.511551   483A      4.514140  
	 484A      4.518579   485A      4.531077   486A      4.576664  
	 487A      4.605230   488A      4.610005   489A      4.626697  
	 490A      4.667767   491A      4.704192   492A      4.711048  
	 493A      4.727615   494A      4.731707   495A      4.739202  
	 496A      4.747767   497A      4.776708   498A      4.781618  
	 499A      4.792604   500A      4.802510   501A      4.806354  
	 502A      4.813198   503A      4.834964   504A      4.875154  
	 505A      4.888223   506A      4.891293   507A      4.916498  
	 508A      4.935428   509A      4.941905   510A      4.956412  
	 511A      4.978154   512A      5.023896   513A      5.037641  
	 514A      5.041237   515A      5.053475   516A      5.072406  
	 517A      5.085651   518A      5.093334   519A      5.099587  
	 520A      5.120242   521A      5.124546   522A      5.147238  
	 523A      5.149505   524A      5.160593   525A      5.180388  
	 526A      5.184322   527A      5.185067   528A      5.189976  
	 529A      5.205744   530A      5.223204   531A      5.239640  
	 532A      5.246771   533A      5.251261   534A      5.253157  
	 535A      5.329567   536A      5.347899   537A      5.354954  
	 538A      5.357698   539A      5.367296   540A      5.378978  
	 541A      5.396238   542A      5.406736   543A      5.424963  
	 544A      5.443923   545A      5.445475   546A      5.452475  
	 547A      5.455963   548A      5.484981   549A      5.513132  
	 550A      5.529026   551A      5.535724   552A      5.545182  
	 553A      5.553405   554A      5.569920   555A      5.674661  
	 556A      5.744939   557A      5.764328   558A      5.771772  
	 559A      5.798131   560A      5.799312   561A      5.852685  
	 562A      5.863204   563A      5.868895   564A      5.883909  
	 565A      5.890744   566A      5.987858   567A      5.990832  
	 568A      6.023997   569A      6.059340   570A      6.125801  
	 571A      6.174512   572A      6.213862   573A      6.233746  
	 574A      6.239531   575A      6.275424   576A      6.277070  
	 577A      6.346118   578A      6.393338   579A      6.398837  
	 580A      6.402638   581A      6.486921   582A      6.547648  
	 583A      6.672654   584A      6.676877   585A      6.687931  
	 586A      6.796793   587A      6.884891   588A      6.892017  
	 589A      6.967708   590A      7.016009   591A      7.034481  
	 592A      7.178903   593A      7.227083   594A      7.240964  
	 595A      7.268243   596A      7.445514   597A      7.567691  
	 598A      7.653927   599A      7.770234   600A      7.827283  
	 601A      7.896752   602A      7.930458   603A      8.092519  
	 604A      8.213947   605A      8.239455   606A      8.334674  
	 607A      8.745678   608A      9.397731   609A      9.866648  
	 610A     10.550316   611A     11.125116   612A     11.319204  
	 613A     12.275548   614A     16.077962   615A     16.099803  
	 616A     19.091732   617A     19.543373   618A     19.574561  
	 619A     19.584020   620A     53.405168   621A     60.535961  

	Final Occupation by Irrep:
	          A 
	DOCC [    21 ]

  Energy converged.

  @RHF Final Energy:  -230.78141538430631

   => Energetics <=

    Nuclear Repulsion Energy =            203.6585946393321649
    One-Electron Energy =                -713.7733122512281625
    Two-Electron Energy =                 279.3333022275884332
    DFT Exchange-Correlation Energy =       0.0000000000000000
    Empirical Dispersion Energy =           0.0000000000000000
    Total Energy =                       -230.7814153843075928



Properties will be evaluated at   0.000000,   0.000000,   0.000000 Bohr
  ==> Properties <==


Properties computed using the SCF density density matrix
  Nuclear Dipole Moment: (a.u.)
     X:     8.2369      Y:     7.6234      Z:   -83.9117

  Electronic Dipole Moment: (a.u.)
     X:    -8.2365      Y:    -7.6235      Z:    83.9143

  Dipole Moment: (a.u.)
     X:     0.0004      Y:    -0.0001      Z:     0.0027     Total:     0.0027

  Dipole Moment: (Debye)
     X:     0.0010      Y:    -0.0002      Z:     0.0067     Total:     0.0068


  Saving occupied orbitals to File 180.

  Saving SAPT 2-MONOMER_A file.

*** tstop() called on node33.bme.utexas.edu at Fri Oct 25 09:18:40 2013
Module time:
	user time   =     726.93 seconds =      12.12 minutes
	system time =       6.11 seconds =       0.10 minutes
	total time  =        132 seconds =       2.20 minutes
Total time:
	user time   =    1777.92 seconds =      29.63 minutes
	system time =      18.74 seconds =       0.31 minutes
	total time  =        331 seconds =       5.52 minutes

  //>>>>>>>>>>>>>>>>>>>>>>>>>>>>>>>>>>>//
  //            Monomer B HF           //
  //<<<<<<<<<<<<<<<<<<<<<<<<<<<<<<<<<<<//


  No DF_BASIS_SCF auxiliary basis selected, defaulting to aug-cc-pvtz-jkfit


*** tstart() called on node33.bme.utexas.edu
*** at Fri Oct 25 09:18:40 2013


         ---------------------------------------------------------
                                   SCF
            by Justin Turney, Rob Parrish, and Andy Simmonett
                              RHF Reference
                        6 Threads,  20000 MiB Core
         ---------------------------------------------------------

  ==> Geometry <==

    Molecular point group: c1
    Full point group: C1

    Geometry (in Angstrom), charge = 0, multiplicity = 1:

       Center              X                  Y                   Z       
    ------------   -----------------  -----------------  -----------------
           C(Gh)      0.863717010585     1.260997603575    -1.150877678648
           H(Gh)      1.453350580585     2.164652343575    -1.223203135648
           C(Gh)      1.489588995585     0.015835484575    -1.188822846648
           H(Gh)      2.564545148585    -0.046770794425    -1.287312107648
           C(Gh)      0.729420189585    -1.149244885425    -1.094319056648
           H(Gh)      1.215321000585    -2.114868238425    -1.118103498648
           C(Gh)     -0.656150584415    -1.068716305425    -0.964033904648
           H(Gh)     -1.245299173415    -1.972545957425    -0.890379647648
           C(Gh)     -1.282009606415     0.176377012575    -0.927337847648
           H(Gh)     -2.356830769415     0.238408279575    -0.825876382648
           C(Gh)     -0.522059166415     1.341106647575    -1.019489849648
           H(Gh)     -1.007333561415     2.307115453575    -0.989992074648
           N          0.431321263585    -0.064027527425     2.537447565352
           H          0.565939620585    -0.019987025425     1.534376208352
           H          0.572813834585     0.881119208575     2.869919842352
           C         -0.944778211415    -0.470410936425     2.814883357352
           H         -1.102654777415    -0.498957943425     3.891438893352
           H         -1.716080398415     0.169969852575     2.374764359352
           H         -1.099470192415    -1.479978738425     2.439261657352

  Running in c1 symmetry.

  Nuclear repulsion =   42.107253189955330

  Charge       = 0
  Multiplicity = 1
  Electrons    = 18
  Nalpha       = 9
  Nbeta        = 9

  ==> Algorithm <==

  SCF Algorithm Type is DF.
  DIIS enabled.
  MOM disabled.
  Fractional occupation disabled.
  Guess Type is CORE.
  Energy threshold   = 1.00e-08
  Density threshold  = 1.00e-08
  Integral threshold = 0.00e+00

  ==> Primary Basis <==

  Basis Set: AUG-CC-PVTZ
    Number of shells: 211
    Number of basis function: 621
    Number of Cartesian functions: 715
    Spherical Harmonics?: true
    Max angular momentum: 3

  ==> Pre-Iterations <==

   -------------------------------------------------------
    Irrep   Nso     Nmo     Nalpha   Nbeta   Ndocc  Nsocc
   -------------------------------------------------------
     A        621     621       0       0       0       0
   -------------------------------------------------------
    Total     621     621       9       9       9       0
   -------------------------------------------------------

 OEINTS: Wrapper to libmints.
   by Justin Turney

   Calculation information:
      Number of atoms:                  19
      Number of AO shells:             211
      Number of SO shells:             211
      Number of primitives:            361
      Number of atomic orbitals:       715
      Number of basis functions:       621

      Number of irreps:                  1
      Number of functions per irrep: [ 621 ]

      Overlap, kinetic, potential, dipole, and quadrupole integrals
        stored in file 35.

  ==> Integral Setup <==

  ==> DFJK: Density-Fitted J/K Matrices <==

    J tasked:                  Yes
    K tasked:                  Yes
    wK tasked:                  No
    OpenMP threads:              6
    Integrals threads:           6
    Memory (MB):             14305
    Algorithm:                Core
    Integral Cache:           LOAD
    Schwarz Cutoff:          0E+00
    Fitting Condition:       1E-12

   => Auxiliary Basis Set <=

  Basis Set: aug-cc-pvtz-jkfit
    Number of shells: 394
    Number of basis function: 1338
    Number of Cartesian functions: 1653
    Spherical Harmonics?: true
    Max angular momentum: 4

  Minimum eigenvalue in the overlap matrix is 2.6218933752E-07.
  Using Symmetric Orthogonalization.
  SCF Guess: Core (One-Electron) Hamiltonian.

  Guess energy:   -76.56829939296395

  ==> Iterations <==

                        Total Energy        Delta E     RMS |[F,P]|

   @RHF iter   1:   -69.64927318395529   -6.96493e+01   1.40960e-02 
   @RHF iter   2:   -71.16863975742473   -1.51937e+00   5.03665e-03 DIIS
   @RHF iter   3:   -87.33586482280519   -1.61672e+01   6.78335e-03 DIIS
   @RHF iter   4:   -92.48131458332431   -5.14545e+00   3.91671e-03 DIIS
   @RHF iter   5:   -94.59211108469968   -2.11080e+00   1.82205e-03 DIIS
   @RHF iter   6:   -95.22864149746401   -6.36530e-01   3.23658e-04 DIIS
   @RHF iter   7:   -95.25270924979047   -2.40678e-02   1.04439e-04 DIIS
   @RHF iter   8:   -95.25531162763455   -2.60238e-03   1.55769e-05 DIIS
   @RHF iter   9:   -95.25538253221511   -7.09046e-05   4.00605e-06 DIIS
   @RHF iter  10:   -95.25539020046280   -7.66825e-06   8.73977e-07 DIIS
   @RHF iter  11:   -95.25539060508568   -4.04623e-07   1.69409e-07 DIIS
   @RHF iter  12:   -95.25539062291615   -1.78305e-08   3.01713e-08 DIIS
   @RHF iter  13:   -95.25539062352671   -6.10555e-10   8.50223e-09 DIIS

  ==> Post-Iterations <==

	Orbital Energies (a.u.)
	-----------------------

	Doubly Occupied:                                                      

	   1A    -15.540552     2A    -11.240363     3A     -1.172280  
	   4A     -0.895833     5A     -0.662084     6A     -0.604810  
	   7A     -0.555410     8A     -0.516185     9A     -0.394513  

	Virtual:                                                              

	  10A      0.017581    11A      0.030229    12A      0.031145  
	  13A      0.038094    14A      0.047582    15A      0.047682  
	  16A      0.053251    17A      0.059775    18A      0.060912  
	  19A      0.065329    20A      0.069162    21A      0.087696  
	  22A      0.093112    23A      0.093459    24A      0.098450  
	  25A      0.105660    26A      0.109725    27A      0.118103  
	  28A      0.121645    29A      0.121857    30A      0.125508  
	  31A      0.138422    32A      0.142553    33A      0.144291  
	  34A      0.149228    35A      0.151999    36A      0.153176  
	  37A      0.156423    38A      0.157730    39A      0.159055  
	  40A      0.164653    41A      0.170216    42A      0.171012  
	  43A      0.180155    44A      0.191296    45A      0.192546  
	  46A      0.202999    47A      0.204855    48A      0.227378  
	  49A      0.232639    50A      0.234403    51A      0.236008  
	  52A      0.239610    53A      0.252940    54A      0.262338  
	  55A      0.271310    56A      0.273012    57A      0.284022  
	  58A      0.288985    59A      0.291452    60A      0.297916  
	  61A      0.302745    62A      0.305790    63A      0.315890  
	  64A      0.318877    65A      0.321050    66A      0.327774  
	  67A      0.338499    68A      0.340238    69A      0.347786  
	  70A      0.354624    71A      0.361020    72A      0.361341  
	  73A      0.363122    74A      0.366079    75A      0.368186  
	  76A      0.374207    77A      0.375868    78A      0.387887  
	  79A      0.393128    80A      0.396401    81A      0.400533  
	  82A      0.404776    83A      0.412026    84A      0.415294  
	  85A      0.419660    86A      0.428003    87A      0.431493  
	  88A      0.433030    89A      0.441095    90A      0.441859  
	  91A      0.446859    92A      0.453942    93A      0.459792  
	  94A      0.463027    95A      0.465453    96A      0.474519  
	  97A      0.482281    98A      0.485413    99A      0.489566  
	 100A      0.494527   101A      0.502859   102A      0.516080  
	 103A      0.518166   104A      0.522354   105A      0.525604  
	 106A      0.531860   107A      0.536944   108A      0.544000  
	 109A      0.553452   110A      0.560786   111A      0.568625  
	 112A      0.571759   113A      0.575061   114A      0.587034  
	 115A      0.590108   116A      0.602010   117A      0.604528  
	 118A      0.609865   119A      0.614341   120A      0.621636  
	 121A      0.632806   122A      0.636972   123A      0.639468  
	 124A      0.649899   125A      0.653890   126A      0.663349  
	 127A      0.669287   128A      0.675404   129A      0.675771  
	 130A      0.681349   131A      0.682619   132A      0.685942  
	 133A      0.699648   134A      0.706993   135A      0.707662  
	 136A      0.714716   137A      0.717564   138A      0.730358  
	 139A      0.732690   140A      0.735857   141A      0.742431  
	 142A      0.748721   143A      0.760616   144A      0.763199  
	 145A      0.769288   146A      0.780037   147A      0.783017  
	 148A      0.788863   149A      0.793934   150A      0.803776  
	 151A      0.807395   152A      0.818869   153A      0.832888  
	 154A      0.839978   155A      0.840540   156A      0.865065  
	 157A      0.865939   158A      0.880094   159A      0.888790  
	 160A      0.892067   161A      0.895763   162A      0.899642  
	 163A      0.911454   164A      0.912878   165A      0.918805  
	 166A      0.938650   167A      0.940021   168A      0.961766  
	 169A      0.974479   170A      0.980451   171A      1.000276  
	 172A      1.009241   173A      1.011342   174A      1.019867  
	 175A      1.023762   176A      1.026500   177A      1.032877  
	 178A      1.043660   179A      1.050296   180A      1.055399  
	 181A      1.062179   182A      1.068526   183A      1.079790  
	 184A      1.086611   185A      1.088531   186A      1.094146  
	 187A      1.102352   188A      1.107489   189A      1.108902  
	 190A      1.117805   191A      1.126502   192A      1.135129  
	 193A      1.143480   194A      1.145618   195A      1.157799  
	 196A      1.169001   197A      1.171178   198A      1.176789  
	 199A      1.178655   200A      1.181506   201A      1.194294  
	 202A      1.198346   203A      1.207663   204A      1.210375  
	 205A      1.220912   206A      1.226714   207A      1.230334  
	 208A      1.231565   209A      1.245312   210A      1.254351  
	 211A      1.264004   212A      1.268323   213A      1.272805  
	 214A      1.279160   215A      1.281558   216A      1.285559  
	 217A      1.290199   218A      1.294845   219A      1.298556  
	 220A      1.301429   221A      1.307790   222A      1.309040  
	 223A      1.312294   224A      1.314894   225A      1.321856  
	 226A      1.325798   227A      1.330474   228A      1.354975  
	 229A      1.359309   230A      1.365987   231A      1.372799  
	 232A      1.376979   233A      1.379808   234A      1.394701  
	 235A      1.400949   236A      1.416656   237A      1.417666  
	 238A      1.425159   239A      1.433326   240A      1.439030  
	 241A      1.454590   242A      1.458467   243A      1.473348  
	 244A      1.482218   245A      1.490491   246A      1.504253  
	 247A      1.513038   248A      1.520868   249A      1.530776  
	 250A      1.546415   251A      1.548026   252A      1.554384  
	 253A      1.560076   254A      1.564664   255A      1.573482  
	 256A      1.581554   257A      1.588704   258A      1.591015  
	 259A      1.611837   260A      1.612296   261A      1.622796  
	 262A      1.634637   263A      1.638760   264A      1.649716  
	 265A      1.655466   266A      1.660674   267A      1.670729  
	 268A      1.674459   269A      1.682804   270A      1.686147  
	 271A      1.692337   272A      1.699060   273A      1.709718  
	 274A      1.714072   275A      1.727412   276A      1.731798  
	 277A      1.746827   278A      1.763003   279A      1.767705  
	 280A      1.784889   281A      1.793598   282A      1.814324  
	 283A      1.834326   284A      1.837842   285A      1.862032  
	 286A      1.865169   287A      1.884229   288A      1.889395  
	 289A      1.896083   290A      1.901518   291A      1.906078  
	 292A      1.909286   293A      1.940575   294A      1.952761  
	 295A      1.978955   296A      1.985931   297A      2.001720  
	 298A      2.008873   299A      2.014544   300A      2.037981  
	 301A      2.045214   302A      2.061039   303A      2.076220  
	 304A      2.091751   305A      2.098040   306A      2.101589  
	 307A      2.124224   308A      2.130910   309A      2.153460  
	 310A      2.160254   311A      2.167550   312A      2.177179  
	 313A      2.179307   314A      2.190826   315A      2.196900  
	 316A      2.209653   317A      2.210865   318A      2.239304  
	 319A      2.247716   320A      2.249435   321A      2.252218  
	 322A      2.256789   323A      2.272887   324A      2.280959  
	 325A      2.303892   326A      2.323973   327A      2.332613  
	 328A      2.339733   329A      2.347754   330A      2.351718  
	 331A      2.358524   332A      2.360446   333A      2.365134  
	 334A      2.381814   335A      2.391732   336A      2.392398  
	 337A      2.409977   338A      2.414222   339A      2.433699  
	 340A      2.465204   341A      2.475505   342A      2.494618  
	 343A      2.499350   344A      2.502716   345A      2.507651  
	 346A      2.511468   347A      2.526755   348A      2.530195  
	 349A      2.534946   350A      2.542791   351A      2.546301  
	 352A      2.559446   353A      2.565443   354A      2.575125  
	 355A      2.595731   356A      2.612089   357A      2.621325  
	 358A      2.634034   359A      2.659242   360A      2.681228  
	 361A      2.737821   362A      2.753257   363A      2.771343  
	 364A      2.775899   365A      2.796186   366A      2.809185  
	 367A      2.830848   368A      2.836752   369A      2.850914  
	 370A      2.885118   371A      2.891677   372A      2.897338  
	 373A      2.927095   374A      2.946372   375A      3.026548  
	 376A      3.039807   377A      3.100425   378A      3.135689  
	 379A      3.139552   380A      3.229829   381A      3.288532  
	 382A      3.290151   383A      3.416867   384A      3.437470  
	 385A      3.476742   386A      3.496287   387A      3.499701  
	 388A      3.597848   389A      3.644359   390A      3.661272  
	 391A      3.668179   392A      3.680349   393A      3.736568  
	 394A      3.761656   395A      3.781876   396A      3.784612  
	 397A      3.849663   398A      3.860308   399A      3.895749  
	 400A      3.903130   401A      3.927429   402A      3.940139  
	 403A      3.941595   404A      3.969219   405A      3.986031  
	 406A      3.995843   407A      4.009884   408A      4.029118  
	 409A      4.038910   410A      4.068142   411A      4.074319  
	 412A      4.088809   413A      4.104950   414A      4.111724  
	 415A      4.120887   416A      4.127842   417A      4.142920  
	 418A      4.146066   419A      4.153123   420A      4.163209  
	 421A      4.170006   422A      4.179191   423A      4.196441  
	 424A      4.199964   425A      4.205287   426A      4.212863  
	 427A      4.243204   428A      4.252992   429A      4.264404  
	 430A      4.266276   431A      4.273336   432A      4.292465  
	 433A      4.297622   434A      4.298465   435A      4.312023  
	 436A      4.328663   437A      4.333920   438A      4.345314  
	 439A      4.365355   440A      4.401142   441A      4.416502  
	 442A      4.432693   443A      4.449898   444A      4.451931  
	 445A      4.474800   446A      4.480066   447A      4.491304  
	 448A      4.538823   449A      4.545967   450A      4.556222  
	 451A      4.561256   452A      4.570950   453A      4.571843  
	 454A      4.576288   455A      4.579976   456A      4.588744  
	 457A      4.597335   458A      4.604253   459A      4.616071  
	 460A      4.624661   461A      4.625718   462A      4.644456  
	 463A      4.662213   464A      4.695001   465A      4.707314  
	 466A      4.712074   467A      4.728941   468A      4.739183  
	 469A      4.760884   470A      4.768764   471A      4.802278  
	 472A      4.811689   473A      4.830960   474A      4.852920  
	 475A      4.869223   476A      4.886887   477A      4.898965  
	 478A      4.924848   479A      4.931693   480A      4.950289  
	 481A      4.986472   482A      4.994175   483A      4.998167  
	 484A      5.003349   485A      5.009201   486A      5.044797  
	 487A      5.058052   488A      5.065538   489A      5.075829  
	 490A      5.077987   491A      5.105691   492A      5.109976  
	 493A      5.113119   494A      5.131434   495A      5.139204  
	 496A      5.157445   497A      5.167963   498A      5.177689  
	 499A      5.181488   500A      5.202200   501A      5.208298  
	 502A      5.216261   503A      5.220134   504A      5.224928  
	 505A      5.250522   506A      5.261060   507A      5.282308  
	 508A      5.296079   509A      5.302902   510A      5.351037  
	 511A      5.405910   512A      5.424250   513A      5.432664  
	 514A      5.453807   515A      5.458567   516A      5.460630  
	 517A      5.500423   518A      5.510128   519A      5.518931  
	 520A      5.524439   521A      5.557804   522A      5.566957  
	 523A      5.595789   524A      5.610442   525A      5.632620  
	 526A      5.636322   527A      5.667269   528A      5.691548  
	 529A      5.705597   530A      5.713621   531A      5.736674  
	 532A      5.737334   533A      5.747869   534A      5.796937  
	 535A      5.798566   536A      5.801460   537A      5.805839  
	 538A      5.816520   539A      5.825463   540A      5.869301  
	 541A      5.899282   542A      5.937188   543A      5.960851  
	 544A      5.971176   545A      5.975767   546A      6.004276  
	 547A      6.007241   548A      6.029321   549A      6.072660  
	 550A      6.096705   551A      6.133293   552A      6.138515  
	 553A      6.142715   554A      6.169460   555A      6.171303  
	 556A      6.194224   557A      6.195328   558A      6.199816  
	 559A      6.208874   560A      6.212693   561A      6.296406  
	 562A      6.431423   563A      6.434420   564A      6.447633  
	 565A      6.467888   566A      6.520029   567A      6.531660  
	 568A      6.580741   569A      6.670587   570A      6.706190  
	 571A      6.745656   572A      6.811829   573A      6.824007  
	 574A      6.837847   575A      6.882840   576A      6.898939  
	 577A      6.904526   578A      7.068860   579A      7.075026  
	 580A      7.083419   581A      7.145826   582A      7.154372  
	 583A      7.157630   584A      7.188940   585A      7.194791  
	 586A      7.211860   587A      7.393599   588A      7.497196  
	 589A      7.506131   590A      7.579608   591A      7.665927  
	 592A      7.669148   593A      7.786236   594A      7.842137  
	 595A      7.891405   596A      8.037528   597A      8.196565  
	 598A      8.197267   599A      8.208534   600A      8.328706  
	 601A      8.333328   602A      8.968338   603A      8.972810  
	 604A      9.363606   605A      9.433061   606A      9.443431  
	 607A     10.047194   608A     10.052736   609A     10.982157  
	 610A     11.037378   611A     11.363093   612A     11.374567  
	 613A     11.477818   614A     17.512532   615A     18.449769  
	 616A     49.707174   617A     49.747314   618A     54.247086  
	 619A     55.704753   620A     55.779592   621A     56.650275  

	Final Occupation by Irrep:
	          A 
	DOCC [     9 ]

  Energy converged.

  @RHF Final Energy:   -95.25539062352671

   => Energetics <=

    Nuclear Repulsion Energy =             42.1072531899553297
    One-Electron Energy =                -211.5612376091959845
    Two-Electron Energy =                  74.1985937957143875
    DFT Exchange-Correlation Energy =       0.0000000000000000
    Empirical Dispersion Energy =           0.0000000000000000
    Total Energy =                        -95.2553906235262815



Properties will be evaluated at   0.000000,   0.000000,   0.000000 Bohr
  ==> Properties <==


Properties computed using the SCF density density matrix
  Nuclear Dipole Moment: (a.u.)
     X:   -10.2591      Y:    -7.9718      Z:    90.2556

  Electronic Dipole Moment: (a.u.)
     X:     9.9030      Y:     8.3463      Z:   -90.5080

  Dipole Moment: (a.u.)
     X:    -0.3561      Y:     0.3745      Z:    -0.2525     Total:     0.5751

  Dipole Moment: (Debye)
     X:    -0.9050      Y:     0.9520      Z:    -0.6417     Total:     1.4619


  Saving occupied orbitals to File 180.

  Saving SAPT 2-MONOMER_B file.

*** tstop() called on node33.bme.utexas.edu at Fri Oct 25 09:20:23 2013
Module time:
	user time   =     547.68 seconds =       9.13 minutes
	system time =       6.01 seconds =       0.10 minutes
	total time  =        103 seconds =       1.72 minutes
Total time:
	user time   =    2325.63 seconds =      38.76 minutes
	system time =      24.75 seconds =       0.41 minutes
	total time  =        434 seconds =       7.23 minutes
  No DF_BASIS_SAPT auxiliary basis selected, defaulting to aug-cc-pvtz-ri

  //>>>>>>>>>>>>>>>>>>>>>>>>>>>>>>>>>>>//
  //               SAPT2+              //
  //<<<<<<<<<<<<<<<<<<<<<<<<<<<<<<<<<<<//


*** tstart() called on node33.bme.utexas.edu
*** at Fri Oct 25 09:20:23 2013

        SAPT2+  
    Ed Hohenstein
     6 June 2009

      Orbital Information
  --------------------------
    NSO        =       621
    NMO        =       621
    NRI        =      1354
    NOCC A     =        21
    NOCC B     =         9
    FOCC A     =         6
    FOCC B     =         2
    NVIR A     =       600
    NVIR B     =       612

    Estimated memory usage: 8021.2 MB

    Elst10,r            =    -0.003033514124 H
    Exch10 (S^2)        =     0.004274401311 H
    Exch10              =     0.004279750039 H
    Ind20,r (A<-B)      =    -0.000893347618 H
    Ind20,r (B<-A)      =    -0.000485911736 H
    Ind20,r             =    -0.001379259353 H
    Exch-Ind20,r (A<-B) =     0.000620197410 H
    Exch-Ind20,r (B<-A) =     0.000366248368 H
    Exch-Ind20,r        =     0.000986445778 H
    Disp20              =    -0.007077566807 H
    Exch-Disp20         =     0.000645036224 H
    Elst12,r            =     0.000063886775 H
    Exch11              =     0.000165988245 H
    Exch12              =     0.000166818988 H
    Ind22               =    -0.000102403658 H
    Disp21              =     0.001243812950 H
    Disp22 (SDQ)        =     0.000386200510 H

    (i =   1 of   7)       6478 seconds
    (i =   2 of   7)      12912 seconds
    (i =   3 of   7)      19343 seconds
    (i =   4 of   7)      25809 seconds
    (i =   5 of   7)      32264 seconds
    (i =   6 of   7)      38713 seconds
    (i =   7 of   7)      45161 seconds

    Disp220 (T)         =    -0.000744126853 H

    (i =   1 of  15)       2254 seconds
    (i =   2 of  15)       4503 seconds
    (i =   3 of  15)       6768 seconds
    (i =   4 of  15)       9019 seconds
    (i =   5 of  15)      11283 seconds
    (i =   6 of  15)      13541 seconds
    (i =   7 of  15)      15787 seconds
    (i =   8 of  15)      18047 seconds
    (i =   9 of  15)      20296 seconds
    (i =  10 of  15)      22548 seconds
    (i =  11 of  15)      24805 seconds
    (i =  12 of  15)      27068 seconds
    (i =  13 of  15)      29324 seconds
    (i =  14 of  15)      31576 seconds
    (i =  15 of  15)      33823 seconds

    Disp202 (T)         =    -0.000626173045 H

    Disp22 (T)          =    -0.001370299898 H

    SAPT Results  
  -----------------------------------------------------------------------
    Electrostatics          -2.96962735 mH      -1.86346937 kcal mol^-1
      Elst10,r              -3.03351412 mH      -1.90355893 kcal mol^-1
      Elst12,r               0.06388677 mH       0.04008956 kcal mol^-1

    Exchange                 4.61255727 mH       2.89442351 kcal mol^-1
      Exch10                 4.27975004 mH       2.68558381 kcal mol^-1
      Exch10(S^2)            4.27440131 mH       2.68222743 kcal mol^-1
      Exch11(S^2)            0.16598824 mH       0.10415920 kcal mol^-1
      Exch12(S^2)            0.16681899 mH       0.10468050 kcal mol^-1

    Induction               -0.82775524 mH      -0.51942428 kcal mol^-1
      Ind20,r               -1.37925935 mH      -0.86549835 kcal mol^-1
      Ind22                 -0.10240366 mH      -0.06425927 kcal mol^-1
      Exch-Ind20,r           0.98644578 mH       0.61900410 kcal mol^-1
      Exch-Ind22             0.07323906 mH       0.04595820 kcal mol^-1
      delta HF,r (2)        -0.40577707 mH      -0.25462896 kcal mol^-1

    Dispersion              -6.17281702 mH      -3.87350132 kcal mol^-1
      Disp20                -7.07756681 mH      -4.44124041 kcal mol^-1
      Disp21                 1.24381295 mH       0.78050444 kcal mol^-1
      Disp22 (SDQ)           0.38620051 mH       0.24234449 kcal mol^-1
      Disp22 (T)            -1.37029990 mH      -0.85987620 kcal mol^-1
      Exch-Disp20            0.64503622 mH       0.40476636 kcal mol^-1

    Total HF                 0.44764527 mH       0.28090166 kcal mol^-1
    Total SAPT0             -5.98488531 mH      -3.75557239 kcal mol^-1
    Total SAPT2             -5.61735590 mH      -3.52494419 kcal mol^-1
    Total SAPT2+            -5.35764234 mH      -3.36197147 kcal mol^-1

*** tstop() called on node33.bme.utexas.edu at Sat Oct 26 12:28:34 2013
Module time:
	user time   =  502578.03 seconds =    8376.30 minutes
	system time =    1362.92 seconds =      22.72 minutes
	total time  =      97691 seconds =    1628.18 minutes
Total time:
	user time   =  504903.66 seconds =    8415.06 minutes
	system time =    1387.67 seconds =      23.13 minutes
	total time  =      98125 seconds =    1635.42 minutes

*** PSI4 exiting successfully. Buy a developer a beer!
