    -----------------------------------------------------------------------
          PSI4: An Open-Source Ab Initio Electronic Structure Package
                              PSI 4.0.0-beta4 Driver

    J. M. Turney, A. C. Simmonett, R. M. Parrish, E. G. Hohenstein,
    F. A. Evangelista, J. T. Fermann, B. J. Mintz, L. A. Burns, J. J. Wilke,
    M. L. Abrams, N. J. Russ, M. L. Leininger, C. L. Janssen, E. T. Seidl,
    W. D. Allen, H. F. Schaefer, R. A. King, E. F. Valeev, C. D. Sherrill,
    and T. D. Crawford, WIREs Comput. Mol. Sci., (2011) (doi: 10.1002/wcms.93)

                         Additional Contributions by
    A. E. DePrince, M. Saitow, U. Bozkaya, A. Yu. Sokolov
    -----------------------------------------------------------------------

    Process ID:  86216
    PSI4DATADIR: /home/xzhu216/psi4/psi4-install/share/psi

    Using LocalCommunicator (Number of processes = 1)

    Memory level set to 256.000 MB

  ==> Input File <==

--------------------------------------------------------------------------
#psi4
#
memory 30 gb

molecule Pyridine_Pyridine {
0 1
N   -0.941211241   0.790041357   0.011718907
C   -0.922755241  -0.552378143   0.035378753
H    0.057240512  -1.015588001   0.051354911
C   -2.076519070  -1.333018128   0.039290353
H   -1.996528949  -2.410585726   0.058877202
C   -3.316312937  -0.703339547   0.017599046
H   -4.231574887  -1.279084289   0.019793768
C   -3.348895280   0.687018806  -0.007085956
H   -4.285444142   1.226104547  -0.024658994
C   -2.143103821   1.382633563  -0.008890049
H   -2.138099744   2.465652585  -0.027782973
--
0 1
N    2.886738406  -0.940640964   0.042042987
C    4.088517222  -1.533817200   0.044122827
H    4.083293370  -2.616779653   0.066011993
C    5.294453459  -0.838858642   0.020121447
H    6.230891785  -1.378393820   0.023215455
C    5.262135851   0.551445815  -0.007625263
H    6.177510788   1.126696866  -0.026806773
C    4.022455520   1.181731946  -0.010102369
H    3.942682789   2.259290524  -0.031190933
C    2.868541949   0.401722325   0.015091299
H    1.888631549   0.865384907   0.013428454
units angstrom
no_reorient  #important for SAPT in psi4, default
symmetry c1  #important for SAPT in psi4, default
}

set {
basis aug-cc-pVTZ
scf_type DF
freeze_core True
}
energy('sapt2+')
--------------------------------------------------------------------------

  Memory set to  30.000 GiB by Python script.

  //>>>>>>>>>>>>>>>>>>>>>>>>>>>>>>>>>>>//
  //              Dimer HF             //
  //<<<<<<<<<<<<<<<<<<<<<<<<<<<<<<<<<<<//


  No DF_BASIS_SCF auxiliary basis selected, defaulting to aug-cc-pvtz-jkfit


*** tstart() called on node35.bme.utexas.edu
*** at Thu Jan  9 02:26:46 2014


         ---------------------------------------------------------
                                   SCF
            by Justin Turney, Rob Parrish, and Andy Simmonett
                              RHF Reference
                        4 Threads,  30000 MiB Core
         ---------------------------------------------------------

  ==> Geometry <==

    Molecular point group: c1
    Full point group: C1

    Geometry (in Angstrom), charge = 0, multiplicity = 1:

       Center              X                  Y                   Z       
    ------------   -----------------  -----------------  -----------------
           N         -1.914047928366     0.865661696522    -0.004290462182
           C         -1.895591928366    -0.476757803478     0.019369383818
           H         -0.915596175366    -0.939967661478     0.035345541818
           C         -3.049355757366    -1.257397788478     0.023280983818
           H         -2.969365636366    -2.334965386478     0.042867832818
           C         -4.289149624366    -0.627719207478     0.001589676818
           H         -5.204411574366    -1.203463949478     0.003784398818
           C         -4.321731967366     0.762639145522    -0.023095325182
           H         -5.258280829366     1.301724886522    -0.040668363182
           C         -3.115940508366     1.458253902522    -0.024899418182
           H         -3.110936431366     2.541272924522    -0.043792342182
           N          1.913901718634    -0.865020624478     0.026033617818
           C          3.115680534634    -1.458196860478     0.028113457818
           H          3.110456682634    -2.541159313478     0.050002623818
           C          4.321616771634    -0.763238302478     0.004112077818
           H          5.258055097634    -1.302773480478     0.007206085818
           C          4.289299163634     0.627066154522    -0.023634632182
           H          5.204674100634     1.202317205522    -0.042816142182
           C          3.049618832634     1.257352285522    -0.026111738182
           H          2.969846101634     2.334910863522    -0.047200302182
           C          1.895705261634     0.477342664522    -0.000918070182
           H          0.915794861634     0.941005246522    -0.002580915182

  Running in c1 symmetry.

  Nuclear repulsion =  567.162673549038459

  Charge       = 0
  Multiplicity = 1
  Electrons    = 84
  Nalpha       = 42
  Nbeta        = 42

  ==> Algorithm <==

  SCF Algorithm Type is DF.
  DIIS enabled.
  MOM disabled.
  Fractional occupation disabled.
  Guess Type is CORE.
  Energy threshold   = 1.00e-08
  Density threshold  = 1.00e-08
  Integral threshold = 0.00e+00

  ==> Primary Basis <==

  Basis Set: AUG-CC-PVTZ
    Number of shells: 258
    Number of basis function: 782
    Number of Cartesian functions: 910
    Spherical Harmonics?: true
    Max angular momentum: 3

  ==> Pre-Iterations <==

   -------------------------------------------------------
    Irrep   Nso     Nmo     Nalpha   Nbeta   Ndocc  Nsocc
   -------------------------------------------------------
     A        782     782       0       0       0       0
   -------------------------------------------------------
    Total     782     782      42      42      42       0
   -------------------------------------------------------

 OEINTS: Wrapper to libmints.
   by Justin Turney

   Calculation information:
      Number of atoms:                  22
      Number of AO shells:             258
      Number of SO shells:             258
      Number of primitives:            470
      Number of atomic orbitals:       910
      Number of basis functions:       782

      Number of irreps:                  1
      Number of functions per irrep: [ 782 ]

      Overlap, kinetic, potential, dipole, and quadrupole integrals
        stored in file 35.

  ==> Integral Setup <==

  ==> DFJK: Density-Fitted J/K Matrices <==

    J tasked:                  Yes
    K tasked:                  Yes
    wK tasked:                  No
    OpenMP threads:              4
    Integrals threads:           4
    Memory (MB):             21457
    Algorithm:                Core
    Integral Cache:           SAVE
    Schwarz Cutoff:          0E+00
    Fitting Condition:       1E-12

   => Auxiliary Basis Set <=

  Basis Set: aug-cc-pvtz-jkfit
    Number of shells: 500
    Number of basis function: 1708
    Number of Cartesian functions: 2122
    Spherical Harmonics?: true
    Max angular momentum: 4

  Minimum eigenvalue in the overlap matrix is 1.7704663947E-06.
  Using Symmetric Orthogonalization.
  SCF Guess: Core (One-Electron) Hamiltonian.

  Guess energy:  -396.80430011694727

  ==> Iterations <==

                        Total Energy        Delta E     RMS |[F,P]|

   @RHF iter   1:  -365.79923040547010   -3.65799e+02   2.18317e-02 
   @RHF iter   2:  -326.21822102788553    3.95810e+01   1.44693e-02 DIIS
   @RHF iter   3:  -380.93679597823837   -5.47186e+01   1.35434e-02 DIIS
   @RHF iter   4:  -346.09745153308074    3.48393e+01   1.41086e-02 DIIS
   @RHF iter   5:  -271.86478197639417    7.42327e+01   1.42292e-02 DIIS
   @RHF iter   6:  -457.59150220783260   -1.85727e+02   6.57056e-03 DIIS
   @RHF iter   7:  -422.46821733096760    3.51233e+01   8.80776e-03 DIIS
   @RHF iter   8:  -491.51112731235764   -6.90429e+01   1.66658e-03 DIIS
   @RHF iter   9:  -493.10230630717695   -1.59118e+00   1.12321e-03 DIIS
   @RHF iter  10:  -493.52416994159069   -4.21864e-01   2.67746e-04 DIIS
   @RHF iter  11:  -493.54760484851306   -2.34349e-02   1.51839e-04 DIIS
   @RHF iter  12:  -493.55650616194873   -8.90131e-03   7.46325e-05 DIIS
   @RHF iter  13:  -493.55940475699629   -2.89860e-03   2.51577e-05 DIIS
   @RHF iter  14:  -493.55983891351309   -4.34157e-04   6.38013e-06 DIIS
   @RHF iter  15:  -493.55988003249252   -4.11190e-05   2.62268e-06 DIIS
   @RHF iter  16:  -493.55988880595180   -8.77346e-06   1.36166e-06 DIIS
   @RHF iter  17:  -493.55989109138579   -2.28543e-06   6.42331e-07 DIIS
   @RHF iter  18:  -493.55989168139070   -5.90005e-07   2.57181e-07 DIIS
   @RHF iter  19:  -493.55989177346157   -9.20709e-08   7.92994e-08 DIIS
   @RHF iter  20:  -493.55989178016910   -6.70752e-09   2.88286e-08 DIIS
   @RHF iter  21:  -493.55989178082848   -6.59384e-10   1.02571e-08 DIIS
   @RHF iter  22:  -493.55989178091897   -9.04947e-11   4.35611e-09 DIIS

  ==> Post-Iterations <==

	Orbital Energies (a.u.)
	-----------------------

	Doubly Occupied:                                                      

	   1A    -15.563243     2A    -15.563238     3A    -11.271745  
	   4A    -11.271740     5A    -11.268048     6A    -11.268043  
	   7A    -11.256227     8A    -11.256222     9A    -11.238063  
	  10A    -11.238060    11A    -11.236521    12A    -11.236516  
	  13A     -1.251975    14A     -1.251402    15A     -1.085451  
	  16A     -1.085298    17A     -1.029156    18A     -1.028428  
	  19A     -0.855009    20A     -0.854242    21A     -0.852288  
	  22A     -0.849928    23A     -0.719873    24A     -0.714439  
	  25A     -0.655975    26A     -0.655887    27A     -0.649042  
	  28A     -0.648941    29A     -0.594750    30A     -0.592345  
	  31A     -0.575811    32A     -0.570052    33A     -0.537020  
	  34A     -0.536153    35A     -0.515257    36A     -0.514435  
	  37A     -0.421157    38A     -0.410935    39A     -0.380519  
	  40A     -0.379661    41A     -0.343122    42A     -0.342413  

	Virtual:                                                              

	  43A      0.026557    44A      0.027820    45A      0.032399  
	  46A      0.038438    47A      0.039111    48A      0.051076  
	  49A      0.052653    50A      0.063089    51A      0.066948  
	  52A      0.072273    53A      0.086928    54A      0.087437  
	  55A      0.092738    56A      0.094660    57A      0.099731  
	  58A      0.102748    59A      0.103410    60A      0.104402  
	  61A      0.106769    62A      0.113372    63A      0.113395  
	  64A      0.115356    65A      0.119603    66A      0.121015  
	  67A      0.122935    68A      0.123339    69A      0.128520  
	  70A      0.134992    71A      0.137198    72A      0.139547  
	  73A      0.143241    74A      0.143990    75A      0.149310  
	  76A      0.151832    77A      0.154533    78A      0.160395  
	  79A      0.163033    80A      0.164673    81A      0.171835  
	  82A      0.174006    83A      0.180483    84A      0.183192  
	  85A      0.192863    86A      0.198199    87A      0.202393  
	  88A      0.225005    89A      0.225070    90A      0.234763  
	  91A      0.246756    92A      0.247418    93A      0.248936  
	  94A      0.251234    95A      0.257607    96A      0.262658  
	  97A      0.274529    98A      0.275489    99A      0.275779  
	 100A      0.276298   101A      0.276738   102A      0.278662  
	 103A      0.283993   104A      0.285350   105A      0.301901  
	 106A      0.303264   107A      0.309225   108A      0.312534  
	 109A      0.313599   110A      0.315316   111A      0.316841  
	 112A      0.320287   113A      0.320681   114A      0.323559  
	 115A      0.329322   116A      0.330519   117A      0.338401  
	 118A      0.340437   119A      0.343081   120A      0.350235  
	 121A      0.353684   122A      0.360534   123A      0.362192  
	 124A      0.365018   125A      0.369472   126A      0.378651  
	 127A      0.381828   128A      0.384097   129A      0.390447  
	 130A      0.399931   131A      0.407719   132A      0.410091  
	 133A      0.415711   134A      0.418895   135A      0.419794  
	 136A      0.430132   137A      0.433995   138A      0.435360  
	 139A      0.436969   140A      0.437455   141A      0.442531  
	 142A      0.445312   143A      0.446030   144A      0.447230  
	 145A      0.456550   146A      0.459004   147A      0.469097  
	 148A      0.471087   149A      0.471306   150A      0.472597  
	 151A      0.479282   152A      0.482852   153A      0.490208  
	 154A      0.491402   155A      0.492554   156A      0.501052  
	 157A      0.501584   158A      0.502764   159A      0.506907  
	 160A      0.509949   161A      0.514767   162A      0.521044  
	 163A      0.521956   164A      0.528271   165A      0.529734  
	 166A      0.530912   167A      0.531726   168A      0.536032  
	 169A      0.548310   170A      0.550700   171A      0.556035  
	 172A      0.557197   173A      0.557787   174A      0.564402  
	 175A      0.568302   176A      0.571004   177A      0.579812  
	 178A      0.589177   179A      0.591666   180A      0.594325  
	 181A      0.620426   182A      0.622572   183A      0.627304  
	 184A      0.631163   185A      0.632102   186A      0.641525  
	 187A      0.641733   188A      0.645913   189A      0.648419  
	 190A      0.654443   191A      0.661710   192A      0.667968  
	 193A      0.672433   194A      0.679396   195A      0.682921  
	 196A      0.697882   197A      0.699968   198A      0.703286  
	 199A      0.711789   200A      0.715731   201A      0.718345  
	 202A      0.731326   203A      0.740151   204A      0.743985  
	 205A      0.745998   206A      0.748404   207A      0.754428  
	 208A      0.764464   209A      0.766263   210A      0.780762  
	 211A      0.784542   212A      0.791803   213A      0.792249  
	 214A      0.795276   215A      0.801033   216A      0.803066  
	 217A      0.807074   218A      0.807326   219A      0.823532  
	 220A      0.824671   221A      0.831927   222A      0.834421  
	 223A      0.841420   224A      0.846842   225A      0.857793  
	 226A      0.861928   227A      0.862706   228A      0.870159  
	 229A      0.878705   230A      0.891556   231A      0.893557  
	 232A      0.893682   233A      0.896058   234A      0.903953  
	 235A      0.905100   236A      0.910649   237A      0.912457  
	 238A      0.913427   239A      0.921566   240A      0.925103  
	 241A      0.937068   242A      0.941934   243A      0.945579  
	 244A      0.951014   245A      0.955031   246A      0.957692  
	 247A      0.960813   248A      0.963354   249A      0.971203  
	 250A      0.972077   251A      0.974605   252A      0.975556  
	 253A      0.986019   254A      1.002055   255A      1.004221  
	 256A      1.004765   257A      1.011647   258A      1.014865  
	 259A      1.014958   260A      1.019259   261A      1.019649  
	 262A      1.022562   263A      1.025129   264A      1.028420  
	 265A      1.048231   266A      1.050190   267A      1.050410  
	 268A      1.061200   269A      1.061950   270A      1.067885  
	 271A      1.071183   272A      1.082043   273A      1.086529  
	 274A      1.087610   275A      1.091484   276A      1.097065  
	 277A      1.099847   278A      1.100921   279A      1.102752  
	 280A      1.106285   281A      1.109038   282A      1.113938  
	 283A      1.114859   284A      1.132662   285A      1.138223  
	 286A      1.143450   287A      1.145732   288A      1.148926  
	 289A      1.156281   290A      1.159976   291A      1.173243  
	 292A      1.173883   293A      1.181414   294A      1.187649  
	 295A      1.191454   296A      1.193874   297A      1.196013  
	 298A      1.196166   299A      1.196486   300A      1.201097  
	 301A      1.201390   302A      1.209200   303A      1.211171  
	 304A      1.213361   305A      1.213663   306A      1.223069  
	 307A      1.228671   308A      1.228781   309A      1.229682  
	 310A      1.242454   311A      1.251177   312A      1.259562  
	 313A      1.261937   314A      1.276354   315A      1.280403  
	 316A      1.286829   317A      1.289074   318A      1.298183  
	 319A      1.301160   320A      1.307274   321A      1.309900  
	 322A      1.316360   323A      1.318895   324A      1.326596  
	 325A      1.341219   326A      1.360524   327A      1.371788  
	 328A      1.374233   329A      1.381500   330A      1.395686  
	 331A      1.398223   332A      1.416320   333A      1.424828  
	 334A      1.429043   335A      1.431456   336A      1.431715  
	 337A      1.432356   338A      1.439970   339A      1.446255  
	 340A      1.484611   341A      1.491252   342A      1.497286  
	 343A      1.499340   344A      1.510371   345A      1.517687  
	 346A      1.531325   347A      1.536971   348A      1.537245  
	 349A      1.538919   350A      1.545904   351A      1.547612  
	 352A      1.568087   353A      1.572183   354A      1.572422  
	 355A      1.580478   356A      1.582076   357A      1.591344  
	 358A      1.627548   359A      1.633027   360A      1.633459  
	 361A      1.643950   362A      1.656533   363A      1.661947  
	 364A      1.672604   365A      1.677476   366A      1.686187  
	 367A      1.694336   368A      1.708193   369A      1.710434  
	 370A      1.722442   371A      1.722561   372A      1.728903  
	 373A      1.741020   374A      1.748211   375A      1.750402  
	 376A      1.751767   377A      1.762695   378A      1.766362  
	 379A      1.785678   380A      1.789441   381A      1.792847  
	 382A      1.798719   383A      1.811107   384A      1.812435  
	 385A      1.823636   386A      1.826693   387A      1.844674  
	 388A      1.857206   389A      1.858683   390A      1.865430  
	 391A      1.870207   392A      1.875994   393A      1.890982  
	 394A      1.893755   395A      1.894166   396A      1.896654  
	 397A      1.928643   398A      1.930979   399A      1.941886  
	 400A      1.953953   401A      1.964949   402A      1.966694  
	 403A      1.971956   404A      1.975049   405A      1.997590  
	 406A      2.003185   407A      2.004903   408A      2.012817  
	 409A      2.019878   410A      2.028902   411A      2.037339  
	 412A      2.039703   413A      2.043431   414A      2.044108  
	 415A      2.045872   416A      2.057261   417A      2.057965  
	 418A      2.061758   419A      2.075377   420A      2.087504  
	 421A      2.090164   422A      2.092448   423A      2.100844  
	 424A      2.107721   425A      2.114879   426A      2.120371  
	 427A      2.128999   428A      2.143355   429A      2.149990  
	 430A      2.163597   431A      2.169683   432A      2.173563  
	 433A      2.175240   434A      2.178471   435A      2.196108  
	 436A      2.202540   437A      2.228062   438A      2.230923  
	 439A      2.235795   440A      2.243397   441A      2.246755  
	 442A      2.259974   443A      2.276931   444A      2.283709  
	 445A      2.286886   446A      2.291834   447A      2.309341  
	 448A      2.325978   449A      2.346230   450A      2.364990  
	 451A      2.368267   452A      2.369247   453A      2.394697  
	 454A      2.407151   455A      2.413021   456A      2.419491  
	 457A      2.442102   458A      2.442568   459A      2.444663  
	 460A      2.446951   461A      2.471222   462A      2.477453  
	 463A      2.488546   464A      2.526319   465A      2.534489  
	 466A      2.534700   467A      2.563026   468A      2.572052  
	 469A      2.573132   470A      2.577541   471A      2.602644  
	 472A      2.612184   473A      2.635688   474A      2.649965  
	 475A      2.674486   476A      2.685073   477A      2.700220  
	 478A      2.706027   479A      2.725731   480A      2.738431  
	 481A      2.771647   482A      2.775988   483A      2.833173  
	 484A      2.838784   485A      2.839912   486A      2.844780  
	 487A      2.876181   488A      2.882930   489A      2.931964  
	 490A      2.947454   491A      2.950542   492A      2.951455  
	 493A      2.992888   494A      3.020286   495A      3.037707  
	 496A      3.067057   497A      3.077296   498A      3.083802  
	 499A      3.100044   500A      3.138562   501A      3.170386  
	 502A      3.172545   503A      3.172583   504A      3.175248  
	 505A      3.213234   506A      3.214624   507A      3.258159  
	 508A      3.259453   509A      3.300781   510A      3.310655  
	 511A      3.313633   512A      3.318350   513A      3.332197  
	 514A      3.336853   515A      3.353146   516A      3.357997  
	 517A      3.393845   518A      3.398532   519A      3.405089  
	 520A      3.413536   521A      3.414579   522A      3.436502  
	 523A      3.438289   524A      3.438352   525A      3.441835  
	 526A      3.453444   527A      3.461691   528A      3.462417  
	 529A      3.468977   530A      3.474167   531A      3.483689  
	 532A      3.498206   533A      3.508830   534A      3.516029  
	 535A      3.524221   536A      3.539044   537A      3.545350  
	 538A      3.548320   539A      3.565440   540A      3.569983  
	 541A      3.582130   542A      3.585276   543A      3.589332  
	 544A      3.590687   545A      3.591754   546A      3.593706  
	 547A      3.610521   548A      3.615056   549A      3.648148  
	 550A      3.666759   551A      3.691277   552A      3.693552  
	 553A      3.709270   554A      3.717203   555A      3.726989  
	 556A      3.729663   557A      3.764933   558A      3.767654  
	 559A      3.774152   560A      3.784386   561A      3.786040  
	 562A      3.790678   563A      3.793242   564A      3.800841  
	 565A      3.829279   566A      3.846205   567A      3.860316  
	 568A      3.861194   569A      3.868683   570A      3.877632  
	 571A      3.879986   572A      3.900690   573A      3.907579  
	 574A      3.911724   575A      3.913914   576A      3.914269  
	 577A      3.922509   578A      3.939608   579A      3.944539  
	 580A      3.948976   581A      3.969286   582A      3.981347  
	 583A      3.988995   584A      3.996129   585A      3.997766  
	 586A      4.006376   587A      4.013882   588A      4.017652  
	 589A      4.025060   590A      4.029981   591A      4.047293  
	 592A      4.062389   593A      4.076838   594A      4.083548  
	 595A      4.111970   596A      4.117263   597A      4.121921  
	 598A      4.134376   599A      4.136194   600A      4.137192  
	 601A      4.145503   602A      4.158869   603A      4.164227  
	 604A      4.175612   605A      4.179079   606A      4.186099  
	 607A      4.199241   608A      4.216556   609A      4.220517  
	 610A      4.225908   611A      4.240025   612A      4.242348  
	 613A      4.244905   614A      4.252828   615A      4.262394  
	 616A      4.266852   617A      4.276399   618A      4.281795  
	 619A      4.283913   620A      4.286917   621A      4.310014  
	 622A      4.321006   623A      4.352335   624A      4.378776  
	 625A      4.382221   626A      4.384063   627A      4.398912  
	 628A      4.419703   629A      4.427408   630A      4.435517  
	 631A      4.447752   632A      4.454320   633A      4.458035  
	 634A      4.470180   635A      4.474969   636A      4.486569  
	 637A      4.490678   638A      4.523588   639A      4.526228  
	 640A      4.526691   641A      4.539888   642A      4.544746  
	 643A      4.563336   644A      4.574986   645A      4.588255  
	 646A      4.614181   647A      4.671070   648A      4.691735  
	 649A      4.696280   650A      4.701475   651A      4.709806  
	 652A      4.729747   653A      4.762075   654A      4.766582  
	 655A      4.786926   656A      4.806537   657A      4.821767  
	 658A      4.848626   659A      4.851113   660A      4.854298  
	 661A      4.890862   662A      4.891424   663A      4.904808  
	 664A      4.912435   665A      4.919418   666A      4.924291  
	 667A      4.952597   668A      4.965194   669A      4.975847  
	 670A      4.984533   671A      4.996800   672A      5.010825  
	 673A      5.042182   674A      5.042809   675A      5.055382  
	 676A      5.059801   677A      5.069561   678A      5.070529  
	 679A      5.077372   680A      5.079809   681A      5.104645  
	 682A      5.105265   683A      5.109111   684A      5.123664  
	 685A      5.133689   686A      5.155497   687A      5.158465  
	 688A      5.166612   689A      5.177499   690A      5.202388  
	 691A      5.203427   692A      5.213009   693A      5.229061  
	 694A      5.230068   695A      5.251715   696A      5.255455  
	 697A      5.266624   698A      5.315070   699A      5.370224  
	 700A      5.381811   701A      5.393309   702A      5.404480  
	 703A      5.435999   704A      5.441859   705A      5.445328  
	 706A      5.449550   707A      5.450840   708A      5.457639  
	 709A      5.480009   710A      5.500969   711A      5.513937  
	 712A      5.517820   713A      5.540037   714A      5.572277  
	 715A      5.574151   716A      5.600984   717A      5.603296  
	 718A      5.608417   719A      5.663487   720A      5.672572  
	 721A      5.675997   722A      5.690832   723A      5.797431  
	 724A      5.801611   725A      5.818172   726A      5.820091  
	 727A      5.855978   728A      5.860134   729A      5.876867  
	 730A      5.878374   731A      5.879246   732A      5.888411  
	 733A      5.930088   734A      5.933815   735A      5.936625  
	 736A      5.946404   737A      6.002207   738A      6.027358  
	 739A      6.085209   740A      6.098254   741A      6.166723  
	 742A      6.182994   743A      6.236454   744A      6.243978  
	 745A      6.270447   746A      6.307217   747A      6.333945  
	 748A      6.340578   749A      6.460456   750A      6.468941  
	 751A      6.530286   752A      6.548769   753A      6.677849  
	 754A      6.679340   755A      6.707684   756A      6.708570  
	 757A      6.728128   758A      6.749068   759A      6.763405  
	 760A      6.781976   761A      6.862805   762A      6.886452  
	 763A      6.919049   764A      6.923288   765A      7.103051  
	 766A      7.105206   767A      7.127105   768A      7.146682  
	 769A      7.495560   770A      7.497749   771A     15.653599  
	 772A     15.701413   773A     16.414727   774A     16.428301  
	 775A     18.481185   776A     18.661686   777A     19.014995  
	 778A     19.081441   779A     19.323527   780A     19.371832  
	 781A     19.755210   782A     19.911183  

	Final Occupation by Irrep:
	          A 
	DOCC [    42 ]

  Energy converged.

  @RHF Final Energy:  -493.55989178091897

   => Energetics <=

    Nuclear Repulsion Energy =            567.1626735490384590
    One-Electron Energy =               -1792.3078682475029382
    Two-Electron Energy =                 731.5853029175432312
    DFT Exchange-Correlation Energy =       0.0000000000000000
    Empirical Dispersion Energy =           0.0000000000000000
    Total Energy =                       -493.5598917809211343



Properties will be evaluated at   0.000000,   0.000000,   0.000000 Bohr
  ==> Properties <==


Properties computed using the SCF density density matrix
  Nuclear Dipole Moment: (a.u.)
     X:     0.0002      Y:    -0.0010      Z:    -0.0355

  Electronic Dipole Moment: (a.u.)
     X:    -0.0000      Y:     0.0006      Z:     0.0215

  Dipole Moment: (a.u.)
     X:     0.0002      Y:    -0.0004      Z:    -0.0140     Total:     0.0140

  Dipole Moment: (Debye)
     X:     0.0005      Y:    -0.0011      Z:    -0.0357     Total:     0.0357


  Saving occupied orbitals to File 180.

  Saving SAPT 2-DIMER file.

*** tstop() called on node35.bme.utexas.edu at Thu Jan  9 02:34:01 2014
Module time:
	user time   =    1446.84 seconds =      24.11 minutes
	system time =      17.21 seconds =       0.29 minutes
	total time  =        435 seconds =       7.25 minutes
Total time:
	user time   =    1446.84 seconds =      24.11 minutes
	system time =      17.21 seconds =       0.29 minutes
	total time  =        435 seconds =       7.25 minutes

  //>>>>>>>>>>>>>>>>>>>>>>>>>>>>>>>>>>>//
  //            Monomer A HF           //
  //<<<<<<<<<<<<<<<<<<<<<<<<<<<<<<<<<<<//


  No DF_BASIS_SCF auxiliary basis selected, defaulting to aug-cc-pvtz-jkfit


*** tstart() called on node35.bme.utexas.edu
*** at Thu Jan  9 02:34:08 2014


         ---------------------------------------------------------
                                   SCF
            by Justin Turney, Rob Parrish, and Andy Simmonett
                              RHF Reference
                        4 Threads,  30000 MiB Core
         ---------------------------------------------------------

  ==> Geometry <==

    Molecular point group: c1
    Full point group: C1

    Geometry (in Angstrom), charge = 0, multiplicity = 1:

       Center              X                  Y                   Z       
    ------------   -----------------  -----------------  -----------------
           N         -1.914047928366     0.865661696522    -0.004290462182
           C         -1.895591928366    -0.476757803478     0.019369383818
           H         -0.915596175366    -0.939967661478     0.035345541818
           C         -3.049355757366    -1.257397788478     0.023280983818
           H         -2.969365636366    -2.334965386478     0.042867832818
           C         -4.289149624366    -0.627719207478     0.001589676818
           H         -5.204411574366    -1.203463949478     0.003784398818
           C         -4.321731967366     0.762639145522    -0.023095325182
           H         -5.258280829366     1.301724886522    -0.040668363182
           C         -3.115940508366     1.458253902522    -0.024899418182
           H         -3.110936431366     2.541272924522    -0.043792342182
           N(Gh)      1.913901718634    -0.865020624478     0.026033617818
           C(Gh)      3.115680534634    -1.458196860478     0.028113457818
           H(Gh)      3.110456682634    -2.541159313478     0.050002623818
           C(Gh)      4.321616771634    -0.763238302478     0.004112077818
           H(Gh)      5.258055097634    -1.302773480478     0.007206085818
           C(Gh)      4.289299163634     0.627066154522    -0.023634632182
           H(Gh)      5.204674100634     1.202317205522    -0.042816142182
           C(Gh)      3.049618832634     1.257352285522    -0.026111738182
           H(Gh)      2.969846101634     2.334910863522    -0.047200302182
           C(Gh)      1.895705261634     0.477342664522    -0.000918070182
           H(Gh)      0.915794861634     0.941005246522    -0.002580915182

  Running in c1 symmetry.

  Nuclear repulsion =  206.168646382320532

  Charge       = 0
  Multiplicity = 1
  Electrons    = 42
  Nalpha       = 21
  Nbeta        = 21

  ==> Algorithm <==

  SCF Algorithm Type is DF.
  DIIS enabled.
  MOM disabled.
  Fractional occupation disabled.
  Guess Type is CORE.
  Energy threshold   = 1.00e-08
  Density threshold  = 1.00e-08
  Integral threshold = 0.00e+00

  ==> Primary Basis <==

  Basis Set: AUG-CC-PVTZ
    Number of shells: 258
    Number of basis function: 782
    Number of Cartesian functions: 910
    Spherical Harmonics?: true
    Max angular momentum: 3

  ==> Pre-Iterations <==

   -------------------------------------------------------
    Irrep   Nso     Nmo     Nalpha   Nbeta   Ndocc  Nsocc
   -------------------------------------------------------
     A        782     782       0       0       0       0
   -------------------------------------------------------
    Total     782     782      21      21      21       0
   -------------------------------------------------------

 OEINTS: Wrapper to libmints.
   by Justin Turney

   Calculation information:
      Number of atoms:                  22
      Number of AO shells:             258
      Number of SO shells:             258
      Number of primitives:            470
      Number of atomic orbitals:       910
      Number of basis functions:       782

      Number of irreps:                  1
      Number of functions per irrep: [ 782 ]

      Overlap, kinetic, potential, dipole, and quadrupole integrals
        stored in file 35.

  ==> Integral Setup <==

  ==> DFJK: Density-Fitted J/K Matrices <==

    J tasked:                  Yes
    K tasked:                  Yes
    wK tasked:                  No
    OpenMP threads:              4
    Integrals threads:           4
    Memory (MB):             21457
    Algorithm:                Core
    Integral Cache:           LOAD
    Schwarz Cutoff:          0E+00
    Fitting Condition:       1E-12

   => Auxiliary Basis Set <=

  Basis Set: aug-cc-pvtz-jkfit
    Number of shells: 500
    Number of basis function: 1708
    Number of Cartesian functions: 2122
    Spherical Harmonics?: true
    Max angular momentum: 4

  Minimum eigenvalue in the overlap matrix is 1.7704663944E-06.
  Using Symmetric Orthogonalization.
  SCF Guess: Core (One-Electron) Hamiltonian.

  Guess energy:  -194.52912366772776

  ==> Iterations <==

                        Total Energy        Delta E     RMS |[F,P]|

   @RHF iter   1:  -191.94213367810633   -1.91942e+02   1.42690e-02 
   @RHF iter   2:  -177.56466960748011    1.43775e+01   7.98445e-03 DIIS
   @RHF iter   3:  -211.13491540032172   -3.35702e+01   9.16572e-03 DIIS
   @RHF iter   4:  -240.62921033509608   -2.94943e+01   3.54425e-03 DIIS
   @RHF iter   5:  -246.13237831429151   -5.50317e+00   1.35178e-03 DIIS
   @RHF iter   6:  -246.70048027435197   -5.68102e-01   4.55278e-04 DIIS
   @RHF iter   7:  -246.77240770462359   -7.19274e-02   9.90275e-05 DIIS
   @RHF iter   8:  -246.77707363238378   -4.66593e-03   4.15200e-05 DIIS
   @RHF iter   9:  -246.77818330292493   -1.10967e-03   2.01974e-05 DIIS
   @RHF iter  10:  -246.77849164571612   -3.08343e-04   7.93343e-06 DIIS
   @RHF iter  11:  -246.77857442469266   -8.27790e-05   3.34680e-06 DIIS
   @RHF iter  12:  -246.77859030396436   -1.58793e-05   2.00665e-06 DIIS
   @RHF iter  13:  -246.77859375718228   -3.45322e-06   8.01816e-07 DIIS
   @RHF iter  14:  -246.77859462736987   -8.70188e-07   2.59785e-07 DIIS
   @RHF iter  15:  -246.77859467565642   -4.82866e-08   4.40417e-08 DIIS
   @RHF iter  16:  -246.77859467713850   -1.48208e-09   1.38277e-08 DIIS
   @RHF iter  17:  -246.77859467727168   -1.33184e-10   5.01101e-09 DIIS

  ==> Post-Iterations <==

	Orbital Energies (a.u.)
	-----------------------

	Doubly Occupied:                                                      

	   1A    -15.567499     2A    -11.276116     3A    -11.275347  
	   4A    -11.260667     5A    -11.242675     6A    -11.242606  
	   7A     -1.256101     8A     -1.089993     9A     -1.034105  
	  10A     -0.859818    11A     -0.855959    12A     -0.722199  
	  13A     -0.660696    14A     -0.654674    15A     -0.598932  
	  16A     -0.577615    17A     -0.541116    18A     -0.520647  
	  19A     -0.419384    20A     -0.384029    21A     -0.348239  

	Virtual:                                                              

	  22A      0.020655    23A      0.025455    24A      0.030373  
	  25A      0.037457    26A      0.038481    27A      0.050646  
	  28A      0.051587    29A      0.057006    30A      0.062387  
	  31A      0.067188    32A      0.074450    33A      0.080948  
	  34A      0.088174    35A      0.089750    36A      0.095424  
	  37A      0.097176    38A      0.100303    39A      0.102633  
	  40A      0.105236    41A      0.107250    42A      0.108923  
	  43A      0.112850    44A      0.115698    45A      0.118200  
	  46A      0.123597    47A      0.129728    48A      0.133333  
	  49A      0.134226    50A      0.136794    51A      0.139162  
	  52A      0.140812    53A      0.141447    54A      0.144005  
	  55A      0.151752    56A      0.157513    57A      0.160618  
	  58A      0.163832    59A      0.168589    60A      0.173559  
	  61A      0.176591    62A      0.178332    63A      0.185704  
	  64A      0.192150    65A      0.193455    66A      0.205283  
	  67A      0.216128    68A      0.224382    69A      0.225945  
	  70A      0.231892    71A      0.242864    72A      0.245606  
	  73A      0.250645    74A      0.253791    75A      0.258551  
	  76A      0.264772    77A      0.265317    78A      0.273796  
	  79A      0.278731    80A      0.281773    81A      0.283440  
	  82A      0.289957    83A      0.292582    84A      0.303860  
	  85A      0.304972    86A      0.309919    87A      0.310233  
	  88A      0.313164    89A      0.316850    90A      0.318794  
	  91A      0.320458    92A      0.321693    93A      0.328009  
	  94A      0.333892    95A      0.334566    96A      0.342704  
	  97A      0.346820    98A      0.350682    99A      0.354965  
	 100A      0.361976   101A      0.364921   102A      0.366450  
	 103A      0.367969   104A      0.370009   105A      0.377865  
	 106A      0.382287   107A      0.388094   108A      0.391251  
	 109A      0.396200   110A      0.403058   111A      0.404841  
	 112A      0.408750   113A      0.412911   114A      0.416330  
	 115A      0.420997   116A      0.423130   117A      0.425820  
	 118A      0.429563   119A      0.431032   120A      0.436269  
	 121A      0.439864   122A      0.444679   123A      0.446993  
	 124A      0.452825   125A      0.456726   126A      0.457353  
	 127A      0.459282   128A      0.470598   129A      0.472384  
	 130A      0.476462   131A      0.476788   132A      0.484604  
	 133A      0.490932   134A      0.491413   135A      0.495410  
	 136A      0.498511   137A      0.502965   138A      0.509811  
	 139A      0.514234   140A      0.516176   141A      0.517615  
	 142A      0.527222   143A      0.531806   144A      0.537634  
	 145A      0.545807   146A      0.557239   147A      0.559641  
	 148A      0.561355   149A      0.565305   150A      0.566042  
	 151A      0.574783   152A      0.588330   153A      0.590050  
	 154A      0.594971   155A      0.598827   156A      0.609046  
	 157A      0.610332   158A      0.612895   159A      0.618770  
	 160A      0.628695   161A      0.630039   162A      0.632474  
	 163A      0.640485   164A      0.640812   165A      0.644900  
	 166A      0.656399   167A      0.656905   168A      0.672455  
	 169A      0.672721   170A      0.678611   171A      0.685447  
	 172A      0.689778   173A      0.699204   174A      0.699457  
	 175A      0.700389   176A      0.711466   177A      0.714513  
	 178A      0.720639   179A      0.728370   180A      0.734553  
	 181A      0.740636   182A      0.743253   183A      0.745527  
	 184A      0.752628   185A      0.754464   186A      0.761021  
	 187A      0.763572   188A      0.776868   189A      0.782206  
	 190A      0.784114   191A      0.789981   192A      0.799390  
	 193A      0.800540   194A      0.807966   195A      0.812878  
	 196A      0.816689   197A      0.826789   198A      0.828302  
	 199A      0.828837   200A      0.845201   201A      0.850402  
	 202A      0.850924   203A      0.854047   204A      0.856378  
	 205A      0.862992   206A      0.864147   207A      0.885593  
	 208A      0.890623   209A      0.890879   210A      0.898575  
	 211A      0.900566   212A      0.902108   213A      0.907559  
	 214A      0.911544   215A      0.918566   216A      0.922727  
	 217A      0.925887   218A      0.932289   219A      0.947143  
	 220A      0.950628   221A      0.960267   222A      0.962832  
	 223A      0.964198   224A      0.973821   225A      0.975601  
	 226A      0.990626   227A      0.993328   228A      0.997105  
	 229A      0.997534   230A      1.012138   231A      1.015287  
	 232A      1.017328   233A      1.019466   234A      1.023374  
	 235A      1.026685   236A      1.034261   237A      1.042435  
	 238A      1.043014   239A      1.053340   240A      1.057810  
	 241A      1.066738   242A      1.070034   243A      1.074503  
	 244A      1.081496   245A      1.081862   246A      1.086655  
	 247A      1.090984   248A      1.093575   249A      1.096758  
	 250A      1.101459   251A      1.104426   252A      1.108558  
	 253A      1.116059   254A      1.121390   255A      1.128005  
	 256A      1.131928   257A      1.139018   258A      1.141528  
	 259A      1.144711   260A      1.146616   261A      1.155015  
	 262A      1.163465   263A      1.168208   264A      1.170791  
	 265A      1.179134   266A      1.184614   267A      1.186371  
	 268A      1.190123   269A      1.196388   270A      1.199111  
	 271A      1.206023   272A      1.210562   273A      1.212506  
	 274A      1.219375   275A      1.227824   276A      1.231847  
	 277A      1.233274   278A      1.240481   279A      1.244963  
	 280A      1.250661   281A      1.251316   282A      1.267554  
	 283A      1.276991   284A      1.284947   285A      1.286169  
	 286A      1.291997   287A      1.292933   288A      1.297996  
	 289A      1.302761   290A      1.315202   291A      1.324320  
	 292A      1.327129   293A      1.329808   294A      1.330244  
	 295A      1.334215   296A      1.341339   297A      1.342406  
	 298A      1.351996   299A      1.356339   300A      1.380055  
	 301A      1.380998   302A      1.382608   303A      1.391829  
	 304A      1.397717   305A      1.413828   306A      1.420435  
	 307A      1.421212   308A      1.426830   309A      1.432300  
	 310A      1.442802   311A      1.446243   312A      1.454394  
	 313A      1.466179   314A      1.474470   315A      1.483211  
	 316A      1.486755   317A      1.491235   318A      1.498911  
	 319A      1.511344   320A      1.519041   321A      1.535520  
	 322A      1.539669   323A      1.542073   324A      1.545345  
	 325A      1.557755   326A      1.559991   327A      1.576430  
	 328A      1.580034   329A      1.583217   330A      1.586840  
	 331A      1.595847   332A      1.604192   333A      1.614975  
	 334A      1.626246   335A      1.631819   336A      1.634515  
	 337A      1.638397   338A      1.663560   339A      1.668848  
	 340A      1.670284   341A      1.672945   342A      1.691170  
	 343A      1.701980   344A      1.707378   345A      1.712457  
	 346A      1.715984   347A      1.722610   348A      1.730964  
	 349A      1.734662   350A      1.746272   351A      1.749628  
	 352A      1.756375   353A      1.761174   354A      1.764606  
	 355A      1.774576   356A      1.791776   357A      1.796943  
	 358A      1.808146   359A      1.810356   360A      1.827188  
	 361A      1.830282   362A      1.836404   363A      1.852605  
	 364A      1.854529   365A      1.858618   366A      1.878606  
	 367A      1.880635   368A      1.889934   369A      1.911710  
	 370A      1.920479   371A      1.930348   372A      1.930837  
	 373A      1.941627   374A      1.946977   375A      1.951851  
	 376A      1.967180   377A      1.971809   378A      1.979721  
	 379A      1.998555   380A      2.003272   381A      2.007490  
	 382A      2.014843   383A      2.023917   384A      2.034911  
	 385A      2.038420   386A      2.044294   387A      2.047013  
	 388A      2.058043   389A      2.060725   390A      2.077239  
	 391A      2.084251   392A      2.084666   393A      2.097876  
	 394A      2.103520   395A      2.109536   396A      2.117348  
	 397A      2.129857   398A      2.156062   399A      2.162906  
	 400A      2.163443   401A      2.171585   402A      2.178551  
	 403A      2.189267   404A      2.201634   405A      2.205793  
	 406A      2.213781   407A      2.217760   408A      2.221555  
	 409A      2.229893   410A      2.233362   411A      2.245279  
	 412A      2.257160   413A      2.265760   414A      2.268997  
	 415A      2.277451   416A      2.282439   417A      2.283375  
	 418A      2.298208   419A      2.310722   420A      2.314693  
	 421A      2.334583   422A      2.344649   423A      2.351874  
	 424A      2.362099   425A      2.367494   426A      2.374474  
	 427A      2.377878   428A      2.381032   429A      2.397563  
	 430A      2.404603   431A      2.414318   432A      2.427850  
	 433A      2.435632   434A      2.440948   435A      2.445628  
	 436A      2.459663   437A      2.479806   438A      2.484122  
	 439A      2.500596   440A      2.507787   441A      2.519320  
	 442A      2.535535   443A      2.547120   444A      2.551670  
	 445A      2.554864   446A      2.573313   447A      2.584438  
	 448A      2.604778   449A      2.609730   450A      2.620088  
	 451A      2.626807   452A      2.634827   453A      2.641097  
	 454A      2.666630   455A      2.681119   456A      2.695708  
	 457A      2.724388   458A      2.736466   459A      2.740923  
	 460A      2.744651   461A      2.782200   462A      2.804340  
	 463A      2.832204   464A      2.833892   465A      2.842110  
	 466A      2.853901   467A      2.885345   468A      2.886174  
	 469A      2.901802   470A      2.927299   471A      2.937111  
	 472A      2.946141   473A      2.986658   474A      3.004669  
	 475A      3.017051   476A      3.021103   477A      3.038217  
	 478A      3.054967   479A      3.081240   480A      3.093519  
	 481A      3.152653   482A      3.160651   483A      3.168125  
	 484A      3.171659   485A      3.212200   486A      3.254146  
	 487A      3.277805   488A      3.301842   489A      3.303610  
	 490A      3.314090   491A      3.328222   492A      3.332903  
	 493A      3.356819   494A      3.391617   495A      3.412321  
	 496A      3.416265   497A      3.421833   498A      3.435213  
	 499A      3.437797   500A      3.462764   501A      3.465065  
	 502A      3.466508   503A      3.495142   504A      3.501102  
	 505A      3.507392   506A      3.537954   507A      3.555767  
	 508A      3.563608   509A      3.579176   510A      3.583882  
	 511A      3.586619   512A      3.595922   513A      3.610700  
	 514A      3.653179   515A      3.664693   516A      3.691951  
	 517A      3.713555   518A      3.736800   519A      3.738622  
	 520A      3.771255   521A      3.779919   522A      3.788442  
	 523A      3.803981   524A      3.831726   525A      3.846557  
	 526A      3.860654   527A      3.874526   528A      3.891153  
	 529A      3.894777   530A      3.904679   531A      3.926822  
	 532A      3.938186   533A      3.956487   534A      3.961169  
	 535A      3.978092   536A      3.978537   537A      3.986258  
	 538A      3.992423   539A      4.004448   540A      4.006092  
	 541A      4.014530   542A      4.021800   543A      4.043438  
	 544A      4.059641   545A      4.060033   546A      4.066891  
	 547A      4.068925   548A      4.076781   549A      4.092032  
	 550A      4.101012   551A      4.113786   552A      4.124312  
	 553A      4.127272   554A      4.134882   555A      4.150254  
	 556A      4.153096   557A      4.157472   558A      4.164095  
	 559A      4.178732   560A      4.180300   561A      4.203651  
	 562A      4.210222   563A      4.223074   564A      4.227063  
	 565A      4.238507   566A      4.244458   567A      4.248721  
	 568A      4.263861   569A      4.264439   570A      4.266980  
	 571A      4.276407   572A      4.299819   573A      4.329773  
	 574A      4.336531   575A      4.341363   576A      4.361267  
	 577A      4.368192   578A      4.374494   579A      4.376420  
	 580A      4.387049   581A      4.404115   582A      4.413216  
	 583A      4.426255   584A      4.444641   585A      4.446400  
	 586A      4.459933   587A      4.465646   588A      4.479596  
	 589A      4.492107   590A      4.501248   591A      4.505651  
	 592A      4.516641   593A      4.523898   594A      4.529520  
	 595A      4.556381   596A      4.565486   597A      4.573786  
	 598A      4.588927   599A      4.628547   600A      4.636770  
	 601A      4.646481   602A      4.657563   603A      4.664272  
	 604A      4.689502   605A      4.700053   606A      4.712549  
	 607A      4.758337   608A      4.765576   609A      4.785106  
	 610A      4.797837   611A      4.807780   612A      4.825846  
	 613A      4.846290   614A      4.848977   615A      4.872972  
	 616A      4.886356   617A      4.904442   618A      4.904496  
	 619A      4.911411   620A      4.925932   621A      4.947730  
	 622A      4.962160   623A      4.969763   624A      4.978711  
	 625A      4.983354   626A      4.997912   627A      5.006443  
	 628A      5.009845   629A      5.040810   630A      5.044579  
	 631A      5.046796   632A      5.065235   633A      5.071185  
	 634A      5.079570   635A      5.085728   636A      5.103568  
	 637A      5.110543   638A      5.119698   639A      5.128272  
	 640A      5.147166   641A      5.161361   642A      5.167869  
	 643A      5.178928   644A      5.186816   645A      5.200270  
	 646A      5.203010   647A      5.209636   648A      5.224084  
	 649A      5.239369   650A      5.244435   651A      5.254112  
	 652A      5.259226   653A      5.281052   654A      5.295607  
	 655A      5.332468   656A      5.342695   657A      5.380951  
	 658A      5.387250   659A      5.391159   660A      5.427953  
	 661A      5.446553   662A      5.447236   663A      5.461501  
	 664A      5.472309   665A      5.476719   666A      5.493651  
	 667A      5.496406   668A      5.513011   669A      5.519971  
	 670A      5.525882   671A      5.558266   672A      5.579620  
	 673A      5.598246   674A      5.620749   675A      5.625942  
	 676A      5.663781   677A      5.669003   678A      5.693403  
	 679A      5.706154   680A      5.716585   681A      5.743523  
	 682A      5.760241   683A      5.779333   684A      5.802306  
	 685A      5.807099   686A      5.810274   687A      5.848682  
	 688A      5.867342   689A      5.871988   690A      5.879416  
	 691A      5.885274   692A      5.927053   693A      5.928215  
	 694A      5.932661   695A      5.959555   696A      6.003201  
	 697A      6.047470   698A      6.069830   699A      6.070546  
	 700A      6.084684   701A      6.086706   702A      6.104302  
	 703A      6.144452   704A      6.164391   705A      6.182938  
	 706A      6.244315   707A      6.263108   708A      6.272726  
	 709A      6.276736   710A      6.329895   711A      6.371373  
	 712A      6.404177   713A      6.440438   714A      6.444834  
	 715A      6.475748   716A      6.520315   717A      6.534320  
	 718A      6.671714   719A      6.684554   720A      6.691978  
	 721A      6.705435   722A      6.719709   723A      6.731754  
	 724A      6.751086   725A      6.798177   726A      6.868111  
	 727A      6.870371   728A      6.914913   729A      6.973484  
	 730A      7.003790   731A      7.009727   732A      7.027203  
	 733A      7.072694   734A      7.096652   735A      7.101482  
	 736A      7.119159   737A      7.155798   738A      7.200246  
	 739A      7.374176   740A      7.417957   741A      7.490518  
	 742A      7.515595   743A      7.521477   744A      7.549060  
	 745A      7.593740   746A      7.695543   747A      7.747032  
	 748A      7.857656   749A      7.894983   750A      8.110778  
	 751A      8.114308   752A      8.171086   753A      8.264820  
	 754A      8.295983   755A      8.397226   756A      8.678658  
	 757A      8.818931   758A      9.091226   759A      9.192132  
	 760A      9.356447   761A      9.545217   762A      9.947022  
	 763A     10.046322   764A     10.209229   765A     10.770472  
	 766A     11.066874   767A     11.386789   768A     11.495234  
	 769A     12.129894   770A     12.334771   771A     15.675969  
	 772A     16.421701   773A     18.567378   774A     19.063766  
	 775A     19.345991   776A     19.798977   777A     50.337272  
	 778A     50.790131   779A     54.126736   780A     55.168632  
	 781A     56.083413   782A     61.588383  

	Final Occupation by Irrep:
	          A 
	DOCC [    21 ]

  Energy converged.

  @RHF Final Energy:  -246.77859467727168

   => Energetics <=

    Nuclear Repulsion Energy =            206.1686463823205315
    One-Electron Energy =                -741.1176522897493442
    Two-Electron Energy =                 288.1704112301574128
    DFT Exchange-Correlation Energy =       0.0000000000000000
    Empirical Dispersion Energy =           0.0000000000000000
    Total Energy =                       -246.7785946772714283



Properties will be evaluated at   0.000000,   0.000000,   0.000000 Bohr
  ==> Properties <==


Properties computed using the SCF density density matrix
  Nuclear Dipole Moment: (a.u.)
     X:  -247.3416      Y:     8.6518      Z:    -0.1040

  Electronic Dipole Moment: (a.u.)
     X:   246.5679      Y:    -9.1410      Z:     0.1058

  Dipole Moment: (a.u.)
     X:    -0.7737      Y:    -0.4892      Z:     0.0018     Total:     0.9154

  Dipole Moment: (Debye)
     X:    -1.9667      Y:    -1.2435      Z:     0.0046     Total:     2.3268


  Saving occupied orbitals to File 180.

  Saving SAPT 2-MONOMER_A file.

*** tstop() called on node35.bme.utexas.edu at Thu Jan  9 02:37:37 2014
Module time:
	user time   =     748.29 seconds =      12.47 minutes
	system time =       9.95 seconds =       0.17 minutes
	total time  =        209 seconds =       3.48 minutes
Total time:
	user time   =    2195.15 seconds =      36.59 minutes
	system time =      27.17 seconds =       0.45 minutes
	total time  =        651 seconds =      10.85 minutes

  //>>>>>>>>>>>>>>>>>>>>>>>>>>>>>>>>>>>//
  //            Monomer B HF           //
  //<<<<<<<<<<<<<<<<<<<<<<<<<<<<<<<<<<<//


  No DF_BASIS_SCF auxiliary basis selected, defaulting to aug-cc-pvtz-jkfit


*** tstart() called on node35.bme.utexas.edu
*** at Thu Jan  9 02:37:37 2014


         ---------------------------------------------------------
                                   SCF
            by Justin Turney, Rob Parrish, and Andy Simmonett
                              RHF Reference
                        4 Threads,  30000 MiB Core
         ---------------------------------------------------------

  ==> Geometry <==

    Molecular point group: c1
    Full point group: C1

    Geometry (in Angstrom), charge = 0, multiplicity = 1:

       Center              X                  Y                   Z       
    ------------   -----------------  -----------------  -----------------
           N(Gh)     -1.914047928366     0.865661696522    -0.004290462182
           C(Gh)     -1.895591928366    -0.476757803478     0.019369383818
           H(Gh)     -0.915596175366    -0.939967661478     0.035345541818
           C(Gh)     -3.049355757366    -1.257397788478     0.023280983818
           H(Gh)     -2.969365636366    -2.334965386478     0.042867832818
           C(Gh)     -4.289149624366    -0.627719207478     0.001589676818
           H(Gh)     -5.204411574366    -1.203463949478     0.003784398818
           C(Gh)     -4.321731967366     0.762639145522    -0.023095325182
           H(Gh)     -5.258280829366     1.301724886522    -0.040668363182
           C(Gh)     -3.115940508366     1.458253902522    -0.024899418182
           H(Gh)     -3.110936431366     2.541272924522    -0.043792342182
           N          1.913901718634    -0.865020624478     0.026033617818
           C          3.115680534634    -1.458196860478     0.028113457818
           H          3.110456682634    -2.541159313478     0.050002623818
           C          4.321616771634    -0.763238302478     0.004112077818
           H          5.258055097634    -1.302773480478     0.007206085818
           C          4.289299163634     0.627066154522    -0.023634632182
           H          5.204674100634     1.202317205522    -0.042816142182
           C          3.049618832634     1.257352285522    -0.026111738182
           H          2.969846101634     2.334910863522    -0.047200302182
           C          1.895705261634     0.477342664522    -0.000918070182
           H          0.915794861634     0.941005246522    -0.002580915182

  Running in c1 symmetry.

  Nuclear repulsion =  206.168600035917166

  Charge       = 0
  Multiplicity = 1
  Electrons    = 42
  Nalpha       = 21
  Nbeta        = 21

  ==> Algorithm <==

  SCF Algorithm Type is DF.
  DIIS enabled.
  MOM disabled.
  Fractional occupation disabled.
  Guess Type is CORE.
  Energy threshold   = 1.00e-08
  Density threshold  = 1.00e-08
  Integral threshold = 0.00e+00

  ==> Primary Basis <==

  Basis Set: AUG-CC-PVTZ
    Number of shells: 258
    Number of basis function: 782
    Number of Cartesian functions: 910
    Spherical Harmonics?: true
    Max angular momentum: 3

  ==> Pre-Iterations <==

   -------------------------------------------------------
    Irrep   Nso     Nmo     Nalpha   Nbeta   Ndocc  Nsocc
   -------------------------------------------------------
     A        782     782       0       0       0       0
   -------------------------------------------------------
    Total     782     782      21      21      21       0
   -------------------------------------------------------

 OEINTS: Wrapper to libmints.
   by Justin Turney

   Calculation information:
      Number of atoms:                  22
      Number of AO shells:             258
      Number of SO shells:             258
      Number of primitives:            470
      Number of atomic orbitals:       910
      Number of basis functions:       782

      Number of irreps:                  1
      Number of functions per irrep: [ 782 ]

      Overlap, kinetic, potential, dipole, and quadrupole integrals
        stored in file 35.

  ==> Integral Setup <==

  ==> DFJK: Density-Fitted J/K Matrices <==

    J tasked:                  Yes
    K tasked:                  Yes
    wK tasked:                  No
    OpenMP threads:              4
    Integrals threads:           4
    Memory (MB):             21457
    Algorithm:                Core
    Integral Cache:           LOAD
    Schwarz Cutoff:          0E+00
    Fitting Condition:       1E-12

   => Auxiliary Basis Set <=

  Basis Set: aug-cc-pvtz-jkfit
    Number of shells: 500
    Number of basis function: 1708
    Number of Cartesian functions: 2122
    Spherical Harmonics?: true
    Max angular momentum: 4

  Minimum eigenvalue in the overlap matrix is 1.7704663945E-06.
  Using Symmetric Orthogonalization.
  SCF Guess: Core (One-Electron) Hamiltonian.

  Guess energy:  -194.52911312668408

  ==> Iterations <==

                        Total Energy        Delta E     RMS |[F,P]|

   @RHF iter   1:  -191.94213793184468   -1.91942e+02   1.42690e-02 
   @RHF iter   2:  -177.56472525064862    1.43774e+01   7.98445e-03 DIIS
   @RHF iter   3:  -211.13493712216587   -3.35702e+01   9.16572e-03 DIIS
   @RHF iter   4:  -240.62923694215340   -2.94943e+01   3.54425e-03 DIIS
   @RHF iter   5:  -246.13237009562710   -5.50313e+00   1.35179e-03 DIIS
   @RHF iter   6:  -246.70047625423189   -5.68106e-01   4.55292e-04 DIIS
   @RHF iter   7:  -246.77240698292604   -7.19307e-02   9.90358e-05 DIIS
   @RHF iter   8:  -246.77707326178245   -4.66628e-03   4.15291e-05 DIIS
   @RHF iter   9:  -246.77818318358345   -1.10992e-03   2.01981e-05 DIIS
   @RHF iter  10:  -246.77849162592383   -3.08442e-04   7.93384e-06 DIIS
   @RHF iter  11:  -246.77857441373146   -8.27878e-05   3.34707e-06 DIIS
   @RHF iter  12:  -246.77859029498609   -1.58813e-05   2.00726e-06 DIIS
   @RHF iter  13:  -246.77859375034660   -3.45536e-06   8.01808e-07 DIIS
   @RHF iter  14:  -246.77859462068534   -8.70339e-07   2.59772e-07 DIIS
   @RHF iter  15:  -246.77859466897041   -4.82851e-08   4.40445e-08 DIIS
   @RHF iter  16:  -246.77859467045243   -1.48202e-09   1.38330e-08 DIIS
   @RHF iter  17:  -246.77859467058630   -1.33866e-10   5.01425e-09 DIIS

  ==> Post-Iterations <==

	Orbital Energies (a.u.)
	-----------------------

	Doubly Occupied:                                                      

	   1A    -15.567499     2A    -11.276115     3A    -11.275348  
	   4A    -11.260667     5A    -11.242675     6A    -11.242606  
	   7A     -1.256100     8A     -1.089993     9A     -1.034105  
	  10A     -0.859818    11A     -0.855959    12A     -0.722199  
	  13A     -0.660696    14A     -0.654675    15A     -0.598933  
	  16A     -0.577614    17A     -0.541115    18A     -0.520647  
	  19A     -0.419384    20A     -0.384028    21A     -0.348239  

	Virtual:                                                              

	  22A      0.020656    23A      0.025455    24A      0.030373  
	  25A      0.037457    26A      0.038481    27A      0.050646  
	  28A      0.051587    29A      0.057006    30A      0.062388  
	  31A      0.067189    32A      0.074450    33A      0.080949  
	  34A      0.088173    35A      0.089750    36A      0.095430  
	  37A      0.097176    38A      0.100303    39A      0.102629  
	  40A      0.105237    41A      0.107253    42A      0.108923  
	  43A      0.112851    44A      0.115696    45A      0.118200  
	  46A      0.123597    47A      0.129730    48A      0.133334  
	  49A      0.134220    50A      0.136794    51A      0.139161  
	  52A      0.140811    53A      0.141451    54A      0.144007  
	  55A      0.151756    56A      0.157512    57A      0.160614  
	  58A      0.163835    59A      0.168589    60A      0.173559  
	  61A      0.176589    62A      0.178330    63A      0.185707  
	  64A      0.192153    65A      0.193458    66A      0.205283  
	  67A      0.216129    68A      0.224378    69A      0.225948  
	  70A      0.231886    71A      0.242869    72A      0.245604  
	  73A      0.250648    74A      0.253815    75A      0.258559  
	  76A      0.264782    77A      0.265263    78A      0.273797  
	  79A      0.278732    80A      0.281773    81A      0.283437  
	  82A      0.289955    83A      0.292582    84A      0.303863  
	  85A      0.304979    86A      0.309919    87A      0.310242  
	  88A      0.313165    89A      0.316847    90A      0.318789  
	  91A      0.320451    92A      0.321691    93A      0.328010  
	  94A      0.333900    95A      0.334555    96A      0.342707  
	  97A      0.346844    98A      0.350685    99A      0.354959  
	 100A      0.361977   101A      0.364921   102A      0.366448  
	 103A      0.367997   104A      0.369992   105A      0.377868  
	 106A      0.382284   107A      0.388109   108A      0.391250  
	 109A      0.396203   110A      0.403061   111A      0.404846  
	 112A      0.408744   113A      0.412914   114A      0.416334  
	 115A      0.421003   116A      0.423102   117A      0.425823  
	 118A      0.429543   119A      0.431041   120A      0.436266  
	 121A      0.439864   122A      0.444672   123A      0.447002  
	 124A      0.452840   125A      0.456732   126A      0.457346  
	 127A      0.459276   128A      0.470598   129A      0.472383  
	 130A      0.476469   131A      0.476800   132A      0.484610  
	 133A      0.490936   134A      0.491426   135A      0.495384  
	 136A      0.498510   137A      0.502965   138A      0.509807  
	 139A      0.514232   140A      0.516207   141A      0.517605  
	 142A      0.527220   143A      0.531804   144A      0.537643  
	 145A      0.545797   146A      0.557255   147A      0.559638  
	 148A      0.561344   149A      0.565297   150A      0.566039  
	 151A      0.574783   152A      0.588359   153A      0.590040  
	 154A      0.594965   155A      0.598831   156A      0.609053  
	 157A      0.610339   158A      0.612898   159A      0.618777  
	 160A      0.628697   161A      0.630035   162A      0.632467  
	 163A      0.640485   164A      0.640819   165A      0.644905  
	 166A      0.656361   167A      0.656930   168A      0.672459  
	 169A      0.672727   170A      0.678594   171A      0.685447  
	 172A      0.689767   173A      0.699181   174A      0.699483  
	 175A      0.700400   176A      0.711447   177A      0.714515  
	 178A      0.720644   179A      0.728369   180A      0.734553  
	 181A      0.740643   182A      0.743245   183A      0.745535  
	 184A      0.752620   185A      0.754459   186A      0.761025  
	 187A      0.763566   188A      0.776831   189A      0.782241  
	 190A      0.784138   191A      0.789978   192A      0.799388  
	 193A      0.800548   194A      0.807973   195A      0.812880  
	 196A      0.816680   197A      0.826813   198A      0.828285  
	 199A      0.828832   200A      0.845208   201A      0.850394  
	 202A      0.850936   203A      0.854048   204A      0.856382  
	 205A      0.862989   206A      0.864152   207A      0.885587  
	 208A      0.890608   209A      0.890877   210A      0.898609  
	 211A      0.900575   212A      0.902103   213A      0.907534  
	 214A      0.911539   215A      0.918542   216A      0.922739  
	 217A      0.925898   218A      0.932298   219A      0.947158  
	 220A      0.950607   221A      0.960285   222A      0.962855  
	 223A      0.964167   224A      0.973846   225A      0.975553  
	 226A      0.990663   227A      0.993307   228A      0.997141  
	 229A      0.997525   230A      1.012139   231A      1.015287  
	 232A      1.017338   233A      1.019434   234A      1.023375  
	 235A      1.026694   236A      1.034262   237A      1.042465  
	 238A      1.043006   239A      1.053333   240A      1.057808  
	 241A      1.066741   242A      1.070019   243A      1.074497  
	 244A      1.081484   245A      1.081883   246A      1.086661  
	 247A      1.090975   248A      1.093580   249A      1.096756  
	 250A      1.101459   251A      1.104419   252A      1.108565  
	 253A      1.116068   254A      1.121385   255A      1.127992  
	 256A      1.131931   257A      1.139014   258A      1.141533  
	 259A      1.144716   260A      1.146623   261A      1.155036  
	 262A      1.163463   263A      1.168197   264A      1.170826  
	 265A      1.179132   266A      1.184623   267A      1.186380  
	 268A      1.190112   269A      1.196387   270A      1.199119  
	 271A      1.206030   272A      1.210559   273A      1.212505  
	 274A      1.219371   275A      1.227820   276A      1.231854  
	 277A      1.233257   278A      1.240459   279A      1.244963  
	 280A      1.250590   281A      1.251424   282A      1.267556  
	 283A      1.276998   284A      1.284941   285A      1.286211  
	 286A      1.291988   287A      1.292924   288A      1.297998  
	 289A      1.302769   290A      1.315191   291A      1.324225  
	 292A      1.327215   293A      1.329861   294A      1.330203  
	 295A      1.334214   296A      1.341291   297A      1.342420  
	 298A      1.351979   299A      1.356341   300A      1.379996  
	 301A      1.381071   302A      1.382611   303A      1.391810  
	 304A      1.397706   305A      1.413800   306A      1.420311  
	 307A      1.421419   308A      1.426842   309A      1.432300  
	 310A      1.442798   311A      1.446245   312A      1.454384  
	 313A      1.466179   314A      1.474468   315A      1.483227  
	 316A      1.486763   317A      1.491222   318A      1.498911  
	 319A      1.511353   320A      1.519039   321A      1.535502  
	 322A      1.539670   323A      1.542090   324A      1.545347  
	 325A      1.557731   326A      1.560047   327A      1.576439  
	 328A      1.579968   329A      1.583253   330A      1.586863  
	 331A      1.595845   332A      1.604178   333A      1.614970  
	 334A      1.626234   335A      1.631852   336A      1.634518  
	 337A      1.638403   338A      1.663551   339A      1.668920  
	 340A      1.670207   341A      1.672927   342A      1.691157  
	 343A      1.701969   344A      1.707370   345A      1.712459  
	 346A      1.715990   347A      1.722609   348A      1.730981  
	 349A      1.734658   350A      1.746286   351A      1.749625  
	 352A      1.756384   353A      1.761151   354A      1.764628  
	 355A      1.774604   356A      1.791787   357A      1.796926  
	 358A      1.808125   359A      1.810391   360A      1.827205  
	 361A      1.830303   362A      1.836398   363A      1.852551  
	 364A      1.854590   365A      1.858601   366A      1.878603  
	 367A      1.880639   368A      1.889934   369A      1.911713  
	 370A      1.920481   371A      1.930294   372A      1.930890  
	 373A      1.941628   374A      1.946988   375A      1.951859  
	 376A      1.967185   377A      1.971810   378A      1.979684  
	 379A      1.998531   380A      2.003273   381A      2.007497  
	 382A      2.014856   383A      2.023914   384A      2.034916  
	 385A      2.038428   386A      2.044297   387A      2.047003  
	 388A      2.058039   389A      2.060752   390A      2.077259  
	 391A      2.084270   392A      2.084660   393A      2.097878  
	 394A      2.103508   395A      2.109509   396A      2.117333  
	 397A      2.129880   398A      2.156054   399A      2.162910  
	 400A      2.163456   401A      2.171598   402A      2.178524  
	 403A      2.189291   404A      2.201624   405A      2.205808  
	 406A      2.213791   407A      2.217758   408A      2.221571  
	 409A      2.229912   410A      2.233361   411A      2.245290  
	 412A      2.257175   413A      2.265760   414A      2.269001  
	 415A      2.277467   416A      2.282276   417A      2.283544  
	 418A      2.298198   419A      2.310705   420A      2.314723  
	 421A      2.334573   422A      2.344632   423A      2.351876  
	 424A      2.362121   425A      2.367458   426A      2.374480  
	 427A      2.377884   428A      2.381021   429A      2.397565  
	 430A      2.404609   431A      2.414293   432A      2.427863  
	 433A      2.435649   434A      2.440935   435A      2.445633  
	 436A      2.459692   437A      2.479797   438A      2.484100  
	 439A      2.500585   440A      2.507804   441A      2.519337  
	 442A      2.535538   443A      2.547100   444A      2.551679  
	 445A      2.554850   446A      2.573316   447A      2.584440  
	 448A      2.604786   449A      2.609741   450A      2.620118  
	 451A      2.626823   452A      2.634829   453A      2.641088  
	 454A      2.666628   455A      2.681074   456A      2.695718  
	 457A      2.724370   458A      2.736486   459A      2.740937  
	 460A      2.744686   461A      2.782199   462A      2.804330  
	 463A      2.832163   464A      2.833937   465A      2.842073  
	 466A      2.853913   467A      2.885233   468A      2.886271  
	 469A      2.901830   470A      2.927301   471A      2.937079  
	 472A      2.946132   473A      2.986657   474A      3.004669  
	 475A      3.017069   476A      3.021113   477A      3.038198  
	 478A      3.054996   479A      3.081239   480A      3.093533  
	 481A      3.152697   482A      3.160597   483A      3.168118  
	 484A      3.171657   485A      3.212192   486A      3.254135  
	 487A      3.277805   488A      3.301853   489A      3.303622  
	 490A      3.314082   491A      3.328232   492A      3.332903  
	 493A      3.356829   494A      3.391617   495A      3.412305  
	 496A      3.416304   497A      3.421820   498A      3.435215  
	 499A      3.437775   500A      3.462806   501A      3.465101  
	 502A      3.466450   503A      3.495143   504A      3.501093  
	 505A      3.507370   506A      3.537951   507A      3.555745  
	 508A      3.563591   509A      3.579179   510A      3.583876  
	 511A      3.586606   512A      3.595937   513A      3.610699  
	 514A      3.653156   515A      3.664686   516A      3.691963  
	 517A      3.713567   518A      3.736838   519A      3.738594  
	 520A      3.771241   521A      3.779910   522A      3.788438  
	 523A      3.803993   524A      3.831740   525A      3.846556  
	 526A      3.860649   527A      3.874533   528A      3.891141  
	 529A      3.894778   530A      3.904673   531A      3.926826  
	 532A      3.938188   533A      3.956493   534A      3.961174  
	 535A      3.978142   536A      3.978487   537A      3.986246  
	 538A      3.992426   539A      4.004436   540A      4.006090  
	 541A      4.014540   542A      4.021801   543A      4.043439  
	 544A      4.059602   545A      4.060070   546A      4.066903  
	 547A      4.068942   548A      4.076790   549A      4.092052  
	 550A      4.101020   551A      4.113798   552A      4.124322  
	 553A      4.127279   554A      4.134884   555A      4.150269  
	 556A      4.153094   557A      4.157479   558A      4.164097  
	 559A      4.178733   560A      4.180303   561A      4.203655  
	 562A      4.210213   563A      4.223065   564A      4.227071  
	 565A      4.238505   566A      4.244463   567A      4.248741  
	 568A      4.263875   569A      4.264507   570A      4.266914  
	 571A      4.276406   572A      4.299825   573A      4.329790  
	 574A      4.336538   575A      4.341374   576A      4.361266  
	 577A      4.368200   578A      4.374496   579A      4.376418  
	 580A      4.387054   581A      4.404116   582A      4.413236  
	 583A      4.426252   584A      4.444635   585A      4.446392  
	 586A      4.459942   587A      4.465647   588A      4.479583  
	 589A      4.492113   590A      4.501240   591A      4.505665  
	 592A      4.516650   593A      4.523890   594A      4.529513  
	 595A      4.556388   596A      4.565479   597A      4.573790  
	 598A      4.588916   599A      4.628524   600A      4.636774  
	 601A      4.646501   602A      4.657561   603A      4.664279  
	 604A      4.689516   605A      4.700053   606A      4.712566  
	 607A      4.758338   608A      4.765565   609A      4.785095  
	 610A      4.797842   611A      4.807780   612A      4.825856  
	 613A      4.846298   614A      4.848987   615A      4.872958  
	 616A      4.886359   617A      4.904441   618A      4.904493  
	 619A      4.911422   620A      4.925924   621A      4.947728  
	 622A      4.962146   623A      4.969778   624A      4.978719  
	 625A      4.983358   626A      4.997920   627A      5.006434  
	 628A      5.009832   629A      5.040821   630A      5.044577  
	 631A      5.046782   632A      5.065230   633A      5.071188  
	 634A      5.079566   635A      5.085726   636A      5.103577  
	 637A      5.110537   638A      5.119676   639A      5.128288  
	 640A      5.147159   641A      5.161365   642A      5.167869  
	 643A      5.178933   644A      5.186821   645A      5.200266  
	 646A      5.203025   647A      5.209632   648A      5.224081  
	 649A      5.239390   650A      5.244445   651A      5.254115  
	 652A      5.259231   653A      5.281066   654A      5.295585  
	 655A      5.332474   656A      5.342697   657A      5.380983  
	 658A      5.387278   659A      5.391128   660A      5.427939  
	 661A      5.446557   662A      5.447234   663A      5.461501  
	 664A      5.472316   665A      5.476732   666A      5.493657  
	 667A      5.496419   668A      5.513022   669A      5.519980  
	 670A      5.525889   671A      5.558276   672A      5.579623  
	 673A      5.598241   674A      5.620737   675A      5.625948  
	 676A      5.663791   677A      5.669015   678A      5.693407  
	 679A      5.706141   680A      5.716593   681A      5.743529  
	 682A      5.760241   683A      5.779329   684A      5.802326  
	 685A      5.807096   686A      5.810264   687A      5.848706  
	 688A      5.867323   689A      5.871990   690A      5.879414  
	 691A      5.885293   692A      5.927064   693A      5.928213  
	 694A      5.932651   695A      5.959533   696A      6.003195  
	 697A      6.047474   698A      6.069827   699A      6.070554  
	 700A      6.084671   701A      6.086714   702A      6.104307  
	 703A      6.144456   704A      6.164398   705A      6.182936  
	 706A      6.244328   707A      6.263105   708A      6.272718  
	 709A      6.276698   710A      6.329893   711A      6.371359  
	 712A      6.404180   713A      6.440452   714A      6.444831  
	 715A      6.475757   716A      6.520360   717A      6.534304  
	 718A      6.671717   719A      6.684545   720A      6.691984  
	 721A      6.705443   722A      6.719727   723A      6.731760  
	 724A      6.751085   725A      6.798189   726A      6.868111  
	 727A      6.870377   728A      6.914904   729A      6.973480  
	 730A      7.003793   731A      7.009751   732A      7.027200  
	 733A      7.072702   734A      7.096653   735A      7.101484  
	 736A      7.119174   737A      7.155854   738A      7.200244  
	 739A      7.374172   740A      7.417963   741A      7.490520  
	 742A      7.515601   743A      7.521476   744A      7.549056  
	 745A      7.593723   746A      7.695543   747A      7.747036  
	 748A      7.857657   749A      7.894995   750A      8.110767  
	 751A      8.114310   752A      8.171104   753A      8.264827  
	 754A      8.295978   755A      8.397227   756A      8.678642  
	 757A      8.818956   758A      9.091213   759A      9.192132  
	 760A      9.356446   761A      9.545230   762A      9.947059  
	 763A     10.046327   764A     10.209214   765A     10.770483  
	 766A     11.066856   767A     11.386788   768A     11.495226  
	 769A     12.129886   770A     12.334770   771A     15.675945  
	 772A     16.421674   773A     18.567434   774A     19.063793  
	 775A     19.346050   776A     19.798859   777A     50.337283  
	 778A     50.790278   779A     54.126515   780A     55.168601  
	 781A     56.083658   782A     61.588374  

	Final Occupation by Irrep:
	          A 
	DOCC [    21 ]

  Energy converged.

  @RHF Final Energy:  -246.77859467058630

   => Energetics <=

    Nuclear Repulsion Energy =            206.1686000359171658
    One-Electron Energy =                -741.1175617745773252
    Two-Electron Energy =                 288.1703670680748246
    DFT Exchange-Correlation Energy =       0.0000000000000000
    Empirical Dispersion Energy =           0.0000000000000000
    Total Energy =                       -246.7785946705853348



Properties will be evaluated at   0.000000,   0.000000,   0.000000 Bohr
  ==> Properties <==


Properties computed using the SCF density density matrix
  Nuclear Dipole Moment: (a.u.)
     X:   247.3418      Y:    -8.6528      Z:     0.0684

  Electronic Dipole Moment: (a.u.)
     X:  -246.5680      Y:     9.1416      Z:    -0.0848

  Dipole Moment: (a.u.)
     X:     0.7738      Y:     0.4888      Z:    -0.0164     Total:     0.9154

  Dipole Moment: (Debye)
     X:     1.9669      Y:     1.2424      Z:    -0.0416     Total:     2.3268


  Saving occupied orbitals to File 180.

  Saving SAPT 2-MONOMER_B file.

*** tstop() called on node35.bme.utexas.edu at Thu Jan  9 02:41:35 2014
Module time:
	user time   =     741.05 seconds =      12.35 minutes
	system time =      10.32 seconds =       0.17 minutes
	total time  =        238 seconds =       3.97 minutes
Total time:
	user time   =    2936.22 seconds =      48.94 minutes
	system time =      37.49 seconds =       0.62 minutes
	total time  =        889 seconds =      14.82 minutes
  No DF_BASIS_SAPT auxiliary basis selected, defaulting to aug-cc-pvtz-ri

  //>>>>>>>>>>>>>>>>>>>>>>>>>>>>>>>>>>>//
  //               SAPT2+              //
  //<<<<<<<<<<<<<<<<<<<<<<<<<<<<<<<<<<<//


*** tstart() called on node35.bme.utexas.edu
*** at Thu Jan  9 02:41:35 2014

        SAPT2+  
    Ed Hohenstein
     6 June 2009

      Orbital Information
  --------------------------
    NSO        =       782
    NMO        =       782
    NRI        =      1732
    NOCC A     =        21
    NOCC B     =        21
    FOCC A     =         6
    FOCC B     =         6
    NVIR A     =       761
    NVIR B     =       761

    Estimated memory usage: 14153.7 MB

    Elst10,r            =    -0.004181456663 H
    Exch10 (S^2)        =     0.002358206854 H
    Exch10              =     0.002359702713 H
    Ind20,r (A<-B)      =    -0.000477236762 H
    Ind20,r (B<-A)      =    -0.000477180874 H
    Ind20,r             =    -0.000954417636 H
    Exch-Ind20,r (A<-B) =     0.000154329463 H
    Exch-Ind20,r (B<-A) =     0.000154359295 H
    Exch-Ind20,r        =     0.000308688758 H
    Disp20              =    -0.003823225352 H
    Exch-Disp20         =     0.000278985501 H
    Elst12,r            =     0.000122414806 H
    Exch11              =    -0.000052205468 H
    Exch12              =     0.000525579221 H
    Ind22               =    -0.000104918421 H
    Disp21              =     0.000607504951 H
    Disp22 (SDQ)        =    -0.000005798111 H

    (i =   1 of  15)      17594 seconds
    (i =   2 of  15)      34974 seconds
    (i =   3 of  15)      51228 seconds
    (i =   4 of  15)      67930 seconds
    (i =   5 of  15)      84554 seconds
    (i =   6 of  15)     100884 seconds
    (i =   7 of  15)     114596 seconds
    (i =   8 of  15)     127009 seconds
    (i =   9 of  15)     138107 seconds
    (i =  10 of  15)     151023 seconds
    (i =  11 of  15)     168800 seconds
    (i =  12 of  15)     186030 seconds
    (i =  13 of  15)     203683 seconds
    (i =  14 of  15)     221722 seconds
    (i =  15 of  15)     241813 seconds

    Disp220 (T)         =    -0.000439094050 H

    (i =   1 of  15)      18653 seconds
    (i =   2 of  15)      35160 seconds
    (i =   3 of  15)      51061 seconds
    (i =   4 of  15)      66481 seconds
    (i =   5 of  15)      82141 seconds
    (i =   6 of  15)      97616 seconds
    (i =   7 of  15)     112648 seconds
    (i =   8 of  15)     127712 seconds
    (i =   9 of  15)     143006 seconds
    (i =  10 of  15)     158343 seconds
    (i =  11 of  15)     173560 seconds
    (i =  12 of  15)     188864 seconds
    (i =  13 of  15)     204083 seconds
    (i =  14 of  15)     219254 seconds
    (i =  15 of  15)     234641 seconds

    Disp202 (T)         =    -0.000439117415 H

    Disp22 (T)          =    -0.000878211465 H

    SAPT Results  
  -----------------------------------------------------------------------
    Electrostatics          -4.05904186 mH      -2.54708733 kcal mol^-1
      Elst10,r              -4.18145666 mH      -2.62390378 kcal mol^-1
      Elst12,r               0.12241481 mH       0.07681645 kcal mol^-1

    Exchange                 2.83307647 mH       1.77778240 kcal mol^-1
      Exch10                 2.35970271 mH       1.48073587 kcal mol^-1
      Exch10(S^2)            2.35820685 mH       1.47979720 kcal mol^-1
      Exch11(S^2)           -0.05220547 mH      -0.03275943 kcal mol^-1
      Exch12(S^2)            0.52557922 mH       0.32980595 kcal mol^-1

    Induction               -0.95166361 mH      -0.59717795 kcal mol^-1
      Ind20,r               -0.95441764 mH      -0.59890613 kcal mol^-1
      Ind22                 -0.10491842 mH      -0.06583731 kcal mol^-1
      Exch-Ind20,r           0.30868876 mH       0.19370513 kcal mol^-1
      Exch-Ind22             0.03393393 mH       0.02129386 kcal mol^-1
      delta HF,r (2)        -0.23495023 mH      -0.14743350 kcal mol^-1

    Dispersion              -3.82074448 mH      -2.39755346 kcal mol^-1
      Disp20                -3.82322535 mH      -2.39911023 kcal mol^-1
      Disp21                 0.60750495 mH       0.38121513 kcal mol^-1
      Disp22 (SDQ)          -0.00579811 mH      -0.00363837 kcal mol^-1
      Disp22 (T)            -0.87821146 mH      -0.55108604 kcal mol^-1
      Exch-Disp20            0.27898550 mH       0.17506605 kcal mol^-1

    Total HF                -2.70243306 mH      -1.69580242 kcal mol^-1
    Total SAPT0             -6.24667291 mH      -3.91984660 kcal mol^-1
    Total SAPT2             -5.72186885 mH      -3.59052706 kcal mol^-1
    Total SAPT2+            -5.99837347 mH      -3.76403634 kcal mol^-1

*** tstop() called on node35.bme.utexas.edu at Wed Jan 15 07:06:33 2014
Module time:
	user time   = 1594151.25 seconds =   26569.19 minutes
	system time =    2294.23 seconds =      38.24 minutes
	total time  =     534298 seconds =    8904.97 minutes
Total time:
	user time   = 1597087.47 seconds =   26618.12 minutes
	system time =    2331.72 seconds =      38.86 minutes
	total time  =     535187 seconds =    8919.78 minutes

*** PSI4 exiting successfully. Buy a developer a beer!
