    -----------------------------------------------------------------------
          PSI4: An Open-Source Ab Initio Electronic Structure Package
                              PSI 4.0.0-beta4 Driver

    J. M. Turney, A. C. Simmonett, R. M. Parrish, E. G. Hohenstein,
    F. A. Evangelista, J. T. Fermann, B. J. Mintz, L. A. Burns, J. J. Wilke,
    M. L. Abrams, N. J. Russ, M. L. Leininger, C. L. Janssen, E. T. Seidl,
    W. D. Allen, H. F. Schaefer, R. A. King, E. F. Valeev, C. D. Sherrill,
    and T. D. Crawford, WIREs Comput. Mol. Sci., (2011) (doi: 10.1002/wcms.93)

                         Additional Contributions by
    A. E. DePrince, M. Saitow, U. Bozkaya, A. Yu. Sokolov
    -----------------------------------------------------------------------

    Process ID:  16940
    PSI4DATADIR: /home/xzhu216/psi4/psi4-install/share/psi

    Using LocalCommunicator (Number of processes = 1)

    Memory level set to 256.000 MB

  ==> Input File <==

--------------------------------------------------------------------------
#psi4
#
memory 27 gb

molecule Pentane_AcOH {
0 1
C   -2.275344982  -0.135074939   0.831333870
H   -2.490717763  -0.727926686  -0.057566351
H   -2.226323818  -0.818446408   1.678823407
H   -3.112025664   0.544943419   0.987400079
C   -0.961698124   0.619277891   0.669399201
H   -0.788699202   1.250431809   1.544702661
H   -1.026176875   1.295445240  -0.186458382
C    0.226502174  -0.314710314   0.479985794
H    0.309444388  -0.975139115   1.348037935
H    0.039150560  -0.965998753  -0.378789833
C    1.543001678   0.421174521   0.268999505
H    1.711638628   1.107771769   1.102446539
H    1.466094657   1.043743312  -0.625293582
C    2.727576325  -0.526860908   0.137459311
H    2.588741553  -1.203213913  -0.705757340
H    3.661501004   0.011693084  -0.015968628
H    2.835194072  -1.137409942   1.034075121
--
0 1
C   -0.452171533  -0.279720304   3.960507029
O   -0.874785473  -1.394900551   3.763360450
O   -1.265863891   0.779245214   4.193096509
H   -2.166626000   0.424864676   4.152560769
C    0.988095530   0.129945777   3.977712412
H    1.613918595  -0.740235168   3.819557253
H    1.164132944   0.864219411   3.194587832
H    1.225406777   0.599246731   4.929514803
units angstrom
no_reorient  #important for SAPT in psi4, default
symmetry c1  #important for SAPT in psi4, default
}

set {
basis aug-cc-pVTZ
scf_type DF
freeze_core True
}
energy('sapt2+')
--------------------------------------------------------------------------

  Memory set to  27.000 GiB by Python script.

  //>>>>>>>>>>>>>>>>>>>>>>>>>>>>>>>>>>>//
  //              Dimer HF             //
  //<<<<<<<<<<<<<<<<<<<<<<<<<<<<<<<<<<<//


  No DF_BASIS_SCF auxiliary basis selected, defaulting to aug-cc-pvtz-jkfit


*** tstart() called on node32.bme.utexas.edu
*** at Fri Nov  8 13:26:07 2013


         ---------------------------------------------------------
                                   SCF
            by Justin Turney, Rob Parrish, and Andy Simmonett
                              RHF Reference
                        8 Threads,  27000 MiB Core
         ---------------------------------------------------------

  ==> Geometry <==

    Molecular point group: c1
    Full point group: C1

    Geometry (in Angstrom), charge = 0, multiplicity = 1:

       Center              X                  Y                   Z       
    ------------   -----------------  -----------------  -----------------
           C         -2.215959455767    -0.057108844380    -1.236260141394
           H         -2.431332236767    -0.649960591380    -2.125160362394
           H         -2.166938291767    -0.740480313380    -0.388770604394
           H         -3.052640137767     0.622909513620    -1.080193932394
           C         -0.902312597767     0.697243985620    -1.398194810394
           H         -0.729313675767     1.328397903620    -0.522891350394
           H         -0.966791348767     1.373411334620    -2.254052393394
           C          0.285887700233    -0.236744219380    -1.587608217394
           H          0.368829914233    -0.897173020380    -0.719556076394
           H          0.098536086233    -0.888032658380    -2.446383844394
           C          1.602387204233     0.499140615620    -1.798594506394
           H          1.771024154233     1.185737863620    -0.965147472394
           H          1.525480183233     1.121709406620    -2.692887593394
           C          2.786961851233    -0.448894813380    -1.930134700394
           H          2.648127079233    -1.125247818380    -2.773351351394
           H          3.720886530233     0.089659178620    -2.083562639394
           H          2.894579598233    -1.059443847380    -1.033518890394
           C         -0.392786006767    -0.201754209380     1.892913017606
           O         -0.815399946767    -1.316934456380     1.695766438606
           O         -1.206478364767     0.857211308620     2.125502497606
           H         -2.107240473767     0.502830770620     2.084966757606
           C          1.047481056233     0.207911871620     1.910118400606
           H          1.673304121233    -0.662269073380     1.751963241606
           H          1.223518470233     0.942185505620     1.126993820606
           H          1.284792303233     0.677212825620     2.861920791606

  Running in c1 symmetry.

  Nuclear repulsion =  480.986118980457945

  Charge       = 0
  Multiplicity = 1
  Electrons    = 74
  Nalpha       = 37
  Nbeta        = 37

  ==> Algorithm <==

  SCF Algorithm Type is DF.
  DIIS enabled.
  MOM disabled.
  Fractional occupation disabled.
  Guess Type is CORE.
  Energy threshold   = 1.00e-08
  Density threshold  = 1.00e-08
  Integral threshold = 0.00e+00

  ==> Primary Basis <==

  Basis Set: AUG-CC-PVTZ
    Number of shells: 270
    Number of basis function: 782
    Number of Cartesian functions: 895
    Spherical Harmonics?: true
    Max angular momentum: 3

  ==> Pre-Iterations <==

   -------------------------------------------------------
    Irrep   Nso     Nmo     Nalpha   Nbeta   Ndocc  Nsocc
   -------------------------------------------------------
     A        782     782       0       0       0       0
   -------------------------------------------------------
    Total     782     782      37      37      37       0
   -------------------------------------------------------

 OEINTS: Wrapper to libmints.
   by Justin Turney

   Calculation information:
      Number of atoms:                  25
      Number of AO shells:             270
      Number of SO shells:             270
      Number of primitives:            446
      Number of atomic orbitals:       895
      Number of basis functions:       782

      Number of irreps:                  1
      Number of functions per irrep: [ 782 ]

      Overlap, kinetic, potential, dipole, and quadrupole integrals
        stored in file 35.

  ==> Integral Setup <==

  ==> DFJK: Density-Fitted J/K Matrices <==

    J tasked:                  Yes
    K tasked:                  Yes
    wK tasked:                  No
    OpenMP threads:              8
    Integrals threads:           8
    Memory (MB):             19311
    Algorithm:                Core
    Integral Cache:           SAVE
    Schwarz Cutoff:          0E+00
    Fitting Condition:       1E-12

   => Auxiliary Basis Set <=

  Basis Set: aug-cc-pvtz-jkfit
    Number of shells: 494
    Number of basis function: 1672
    Number of Cartesian functions: 2059
    Spherical Harmonics?: true
    Max angular momentum: 4

  Minimum eigenvalue in the overlap matrix is 2.2644290756E-06.
  Using Symmetric Orthogonalization.
  SCF Guess: Core (One-Electron) Hamiltonian.

  Guess energy:  -354.78361950776741

  ==> Iterations <==

                        Total Energy        Delta E     RMS |[F,P]|

   @RHF iter   1:  -283.43113670201092   -2.83431e+02   2.37155e-02 
   @RHF iter   2:  -118.95590533583402    1.64475e+02   2.21487e-02 DIIS
   @RHF iter   3:  -346.38327190772259   -2.27427e+02   8.68485e-03 DIIS
   @RHF iter   4:  -146.27605866787246    2.00107e+02   2.19718e-02 DIIS
   @RHF iter   5:  -251.48559111477778   -1.05210e+02   1.58875e-02 DIIS
   @RHF iter   6:  -332.06827338022936   -8.05827e+01   1.25600e-02 DIIS
   @RHF iter   7:  -393.61301617982008   -6.15447e+01   7.20462e-03 DIIS
   @RHF iter   8:  -423.48913183966386   -2.98761e+01   1.79706e-03 DIIS
   @RHF iter   9:  -424.07492944745275   -5.85798e-01   1.01383e-03 DIIS
   @RHF iter  10:  -424.29532803830602   -2.20399e-01   1.47970e-04 DIIS
   @RHF iter  11:  -424.30268687448722   -7.35884e-03   5.93820e-05 DIIS
   @RHF iter  12:  -424.30395293427807   -1.26606e-03   2.00131e-05 DIIS
   @RHF iter  13:  -424.30410833533324   -1.55401e-04   6.92004e-06 DIIS
   @RHF iter  14:  -424.30413817533611   -2.98400e-05   2.15302e-06 DIIS
   @RHF iter  15:  -424.30414131248165   -3.13715e-06   8.12175e-07 DIIS
   @RHF iter  16:  -424.30414188970610   -5.77224e-07   2.99762e-07 DIIS
   @RHF iter  17:  -424.30414197856624   -8.88601e-08   9.99442e-08 DIIS
   @RHF iter  18:  -424.30414198861331   -1.00471e-08   2.99082e-08 DIIS
   @RHF iter  19:  -424.30414198954782   -9.34506e-10   1.00428e-08 DIIS
   @RHF iter  20:  -424.30414198966866   -1.20849e-10   4.51762e-09 DIIS

  ==> Post-Iterations <==

	Orbital Energies (a.u.)
	-----------------------

	Doubly Occupied:                                                      

	   1A    -20.616410     2A    -20.553630     3A    -11.392261  
	   4A    -11.245864     5A    -11.215611     6A    -11.212116  
	   7A    -11.209636     8A    -11.208908     9A    -11.203036  
	  10A     -1.468631    11A     -1.364848    12A     -1.082357  
	  13A     -1.032025    14A     -1.016127    15A     -0.919011  
	  16A     -0.824961    17A     -0.820286    18A     -0.786135  
	  19A     -0.710137    20A     -0.683988    21A     -0.668525  
	  22A     -0.635573    23A     -0.599357    24A     -0.596128  
	  25A     -0.587881    26A     -0.576494    27A     -0.563314  
	  28A     -0.553943    29A     -0.547705    30A     -0.524863  
	  31A     -0.496057    32A     -0.491956    33A     -0.476495  
	  34A     -0.462008    35A     -0.458382    36A     -0.454600  
	  37A     -0.447039  

	Virtual:                                                              

	  38A      0.027260    39A      0.032462    40A      0.034088  
	  41A      0.038773    42A      0.046253    43A      0.050014  
	  44A      0.053164    45A      0.055717    46A      0.061440  
	  47A      0.069822    48A      0.072202    49A      0.075832  
	  50A      0.080184    51A      0.084658    52A      0.086016  
	  53A      0.091688    54A      0.103150    55A      0.114969  
	  56A      0.118140    57A      0.122244    58A      0.125975  
	  59A      0.128595    60A      0.133869    61A      0.137075  
	  62A      0.139112    63A      0.141137    64A      0.144750  
	  65A      0.149225    66A      0.152351    67A      0.155682  
	  68A      0.156636    69A      0.159806    70A      0.162292  
	  71A      0.168709    72A      0.176171    73A      0.176839  
	  74A      0.182232    75A      0.186563    76A      0.193042  
	  77A      0.203605    78A      0.209826    79A      0.210907  
	  80A      0.219506    81A      0.221082    82A      0.223585  
	  83A      0.233083    84A      0.241700    85A      0.254684  
	  86A      0.256894    87A      0.258811    88A      0.266485  
	  89A      0.269048    90A      0.275779    91A      0.282572  
	  92A      0.284053    93A      0.290080    94A      0.291178  
	  95A      0.302139    96A      0.308255    97A      0.309081  
	  98A      0.313447    99A      0.318715   100A      0.322565  
	 101A      0.325802   102A      0.328561   103A      0.333348  
	 104A      0.340141   105A      0.343265   106A      0.349913  
	 107A      0.353464   108A      0.359779   109A      0.360781  
	 110A      0.363113   111A      0.365736   112A      0.369637  
	 113A      0.372186   114A      0.374647   115A      0.383622  
	 116A      0.388691   117A      0.392412   118A      0.395440  
	 119A      0.401188   120A      0.404091   121A      0.408128  
	 122A      0.411218   123A      0.415264   124A      0.420134  
	 125A      0.424026   126A      0.424736   127A      0.433713  
	 128A      0.437835   129A      0.443380   130A      0.446479  
	 131A      0.447642   132A      0.452938   133A      0.456417  
	 134A      0.461367   135A      0.465237   136A      0.466823  
	 137A      0.471694   138A      0.479138   139A      0.482393  
	 140A      0.486028   141A      0.489107   142A      0.491245  
	 143A      0.499867   144A      0.503729   145A      0.507883  
	 146A      0.510501   147A      0.515697   148A      0.518643  
	 149A      0.528143   150A      0.531141   151A      0.535789  
	 152A      0.538656   153A      0.540724   154A      0.546063  
	 155A      0.547978   156A      0.549259   157A      0.555042  
	 158A      0.560122   159A      0.563945   160A      0.574104  
	 161A      0.576225   162A      0.583937   163A      0.591803  
	 164A      0.593452   165A      0.601748   166A      0.603148  
	 167A      0.608386   168A      0.614224   169A      0.618430  
	 170A      0.619816   171A      0.629635   172A      0.630524  
	 173A      0.634042   174A      0.640633   175A      0.642855  
	 176A      0.648446   177A      0.653710   178A      0.665644  
	 179A      0.668385   180A      0.670701   181A      0.678940  
	 182A      0.684616   183A      0.688564   184A      0.696174  
	 185A      0.699225   186A      0.709440   187A      0.710700  
	 188A      0.719200   189A      0.724484   190A      0.737395  
	 191A      0.743779   192A      0.747565   193A      0.756082  
	 194A      0.763320   195A      0.769070   196A      0.778372  
	 197A      0.781520   198A      0.796020   199A      0.797530  
	 200A      0.808505   201A      0.814280   202A      0.818835  
	 203A      0.824276   204A      0.832395   205A      0.836505  
	 206A      0.846755   207A      0.849391   208A      0.854533  
	 209A      0.865063   210A      0.869765   211A      0.873852  
	 212A      0.879208   213A      0.881946   214A      0.887808  
	 215A      0.892757   216A      0.899765   217A      0.900497  
	 218A      0.907131   219A      0.911826   220A      0.915750  
	 221A      0.923774   222A      0.928108   223A      0.932702  
	 224A      0.941077   225A      0.943908   226A      0.947929  
	 227A      0.953378   228A      0.957037   229A      0.960033  
	 230A      0.965970   231A      0.973333   232A      0.979619  
	 233A      0.988087   234A      0.994733   235A      0.996620  
	 236A      0.998326   237A      1.003474   238A      1.011591  
	 239A      1.014998   240A      1.021946   241A      1.027170  
	 242A      1.028540   243A      1.035958   244A      1.044839  
	 245A      1.047487   246A      1.053265   247A      1.057977  
	 248A      1.062818   249A      1.073952   250A      1.074695  
	 251A      1.079277   252A      1.088210   253A      1.091378  
	 254A      1.095765   255A      1.100459   256A      1.103345  
	 257A      1.113120   258A      1.118191   259A      1.123499  
	 260A      1.128677   261A      1.132730   262A      1.143636  
	 263A      1.146528   264A      1.153055   265A      1.154707  
	 266A      1.158897   267A      1.168039   268A      1.174682  
	 269A      1.178530   270A      1.183350   271A      1.190593  
	 272A      1.194422   273A      1.200894   274A      1.205000  
	 275A      1.211771   276A      1.218284   277A      1.219090  
	 278A      1.230757   279A      1.236559   280A      1.241772  
	 281A      1.247469   282A      1.250426   283A      1.254735  
	 284A      1.262428   285A      1.267200   286A      1.272392  
	 287A      1.281135   288A      1.287959   289A      1.289270  
	 290A      1.291816   291A      1.295642   292A      1.306150  
	 293A      1.312426   294A      1.321621   295A      1.325104  
	 296A      1.332382   297A      1.337836   298A      1.343201  
	 299A      1.351482   300A      1.361374   301A      1.371246  
	 302A      1.373712   303A      1.379510   304A      1.383454  
	 305A      1.391119   306A      1.397132   307A      1.405315  
	 308A      1.408259   309A      1.412902   310A      1.422531  
	 311A      1.423739   312A      1.427692   313A      1.434963  
	 314A      1.445576   315A      1.451420   316A      1.454333  
	 317A      1.463169   318A      1.471733   319A      1.480297  
	 320A      1.489993   321A      1.497930   322A      1.502790  
	 323A      1.511270   324A      1.518455   325A      1.533010  
	 326A      1.537456   327A      1.541124   328A      1.549545  
	 329A      1.565356   330A      1.573301   331A      1.577448  
	 332A      1.588237   333A      1.592350   334A      1.599573  
	 335A      1.613903   336A      1.619912   337A      1.624708  
	 338A      1.626780   339A      1.633160   340A      1.644483  
	 341A      1.650196   342A      1.656167   343A      1.668056  
	 344A      1.675530   345A      1.676745   346A      1.682110  
	 347A      1.689881   348A      1.696320   349A      1.704382  
	 350A      1.711069   351A      1.714902   352A      1.719507  
	 353A      1.727558   354A      1.732780   355A      1.738395  
	 356A      1.747509   357A      1.751832   358A      1.755147  
	 359A      1.760842   360A      1.774092   361A      1.781246  
	 362A      1.785912   363A      1.793113   364A      1.796181  
	 365A      1.799370   366A      1.806096   367A      1.810733  
	 368A      1.827335   369A      1.835415   370A      1.840200  
	 371A      1.844384   372A      1.850885   373A      1.854720  
	 374A      1.860408   375A      1.862047   376A      1.868739  
	 377A      1.875694   378A      1.890042   379A      1.894481  
	 380A      1.901452   381A      1.907098   382A      1.912308  
	 383A      1.918661   384A      1.932535   385A      1.937944  
	 386A      1.952627   387A      1.954176   388A      1.963999  
	 389A      1.977965   390A      1.981378   391A      1.984736  
	 392A      1.987620   393A      1.997591   394A      2.004265  
	 395A      2.009146   396A      2.014644   397A      2.032630  
	 398A      2.041505   399A      2.050713   400A      2.059903  
	 401A      2.062857   402A      2.074161   403A      2.075556  
	 404A      2.085547   405A      2.099356   406A      2.110754  
	 407A      2.112831   408A      2.131650   409A      2.143171  
	 410A      2.153134   411A      2.163383   412A      2.166843  
	 413A      2.179608   414A      2.190012   415A      2.191549  
	 416A      2.196804   417A      2.204097   418A      2.209982  
	 419A      2.223316   420A      2.226497   421A      2.233493  
	 422A      2.242249   423A      2.258930   424A      2.266213  
	 425A      2.271711   426A      2.273487   427A      2.290976  
	 428A      2.301825   429A      2.306657   430A      2.316820  
	 431A      2.319091   432A      2.327690   433A      2.337891  
	 434A      2.353427   435A      2.355156   436A      2.364353  
	 437A      2.379301   438A      2.391032   439A      2.408983  
	 440A      2.415195   441A      2.426602   442A      2.435688  
	 443A      2.445278   444A      2.459582   445A      2.469154  
	 446A      2.475974   447A      2.486121   448A      2.491510  
	 449A      2.496679   450A      2.517058   451A      2.532532  
	 452A      2.544881   453A      2.549988   454A      2.554666  
	 455A      2.561582   456A      2.566668   457A      2.581418  
	 458A      2.616850   459A      2.627784   460A      2.628179  
	 461A      2.643307   462A      2.657929   463A      2.675223  
	 464A      2.697168   465A      2.710048   466A      2.712528  
	 467A      2.722074   468A      2.739551   469A      2.761308  
	 470A      2.786052   471A      2.806561   472A      2.822586  
	 473A      2.870504   474A      2.875250   475A      2.881494  
	 476A      2.899960   477A      2.924449   478A      2.943811  
	 479A      2.950640   480A      2.960846   481A      2.973476  
	 482A      2.993261   483A      2.999163   484A      3.035745  
	 485A      3.087084   486A      3.098734   487A      3.122541  
	 488A      3.155047   489A      3.166796   490A      3.193209  
	 491A      3.231279   492A      3.290397   493A      3.315394  
	 494A      3.332102   495A      3.348475   496A      3.358040  
	 497A      3.366752   498A      3.419021   499A      3.426614  
	 500A      3.466605   501A      3.472221   502A      3.484210  
	 503A      3.490510   504A      3.509805   505A      3.510347  
	 506A      3.525183   507A      3.544391   508A      3.559218  
	 509A      3.571375   510A      3.596571   511A      3.605911  
	 512A      3.620152   513A      3.627283   514A      3.637400  
	 515A      3.641890   516A      3.668747   517A      3.677140  
	 518A      3.680086   519A      3.687151   520A      3.692639  
	 521A      3.712458   522A      3.716323   523A      3.727718  
	 524A      3.737975   525A      3.741149   526A      3.745913  
	 527A      3.759098   528A      3.775483   529A      3.782439  
	 530A      3.792315   531A      3.797272   532A      3.805004  
	 533A      3.821705   534A      3.833185   535A      3.840697  
	 536A      3.865744   537A      3.873812   538A      3.887332  
	 539A      3.899096   540A      3.901237   541A      3.907733  
	 542A      3.918911   543A      3.933404   544A      3.935406  
	 545A      3.942207   546A      3.949107   547A      3.953362  
	 548A      3.967518   549A      3.976589   550A      3.987200  
	 551A      3.996171   552A      4.003371   553A      4.009108  
	 554A      4.018040   555A      4.025752   556A      4.033377  
	 557A      4.038226   558A      4.043643   559A      4.051516  
	 560A      4.062152   561A      4.068958   562A      4.078993  
	 563A      4.083293   564A      4.090533   565A      4.098266  
	 566A      4.109416   567A      4.115529   568A      4.118797  
	 569A      4.128835   570A      4.147323   571A      4.153051  
	 572A      4.166548   573A      4.167376   574A      4.179171  
	 575A      4.187048   576A      4.208315   577A      4.220675  
	 578A      4.235137   579A      4.239429   580A      4.256683  
	 581A      4.265058   582A      4.276444   583A      4.282753  
	 584A      4.287074   585A      4.295386   586A      4.303766  
	 587A      4.318736   588A      4.324435   589A      4.336075  
	 590A      4.344845   591A      4.358829   592A      4.364048  
	 593A      4.373147   594A      4.381200   595A      4.394852  
	 596A      4.405869   597A      4.411660   598A      4.423483  
	 599A      4.442777   600A      4.454349   601A      4.464779  
	 602A      4.474007   603A      4.478399   604A      4.490319  
	 605A      4.511103   606A      4.517768   607A      4.531737  
	 608A      4.556770   609A      4.566227   610A      4.570841  
	 611A      4.601010   612A      4.603867   613A      4.612689  
	 614A      4.632908   615A      4.652694   616A      4.671357  
	 617A      4.679012   618A      4.683921   619A      4.699828  
	 620A      4.707453   621A      4.713855   622A      4.729727  
	 623A      4.735515   624A      4.743241   625A      4.747467  
	 626A      4.768744   627A      4.773081   628A      4.794539  
	 629A      4.802484   630A      4.819298   631A      4.824978  
	 632A      4.835345   633A      4.866968   634A      4.874197  
	 635A      4.883696   636A      4.897975   637A      4.899725  
	 638A      4.911723   639A      4.924875   640A      4.931643  
	 641A      4.935449   642A      4.950609   643A      4.967221  
	 644A      4.986159   645A      4.999257   646A      5.019279  
	 647A      5.036947   648A      5.050449   649A      5.060937  
	 650A      5.067276   651A      5.085149   652A      5.099635  
	 653A      5.111959   654A      5.115403   655A      5.147125  
	 656A      5.149311   657A      5.179816   658A      5.180496  
	 659A      5.200622   660A      5.219462   661A      5.229480  
	 662A      5.236187   663A      5.242855   664A      5.259133  
	 665A      5.265650   666A      5.277300   667A      5.291385  
	 668A      5.294946   669A      5.321548   670A      5.326045  
	 671A      5.340277   672A      5.355123   673A      5.364693  
	 674A      5.369309   675A      5.372832   676A      5.385741  
	 677A      5.405988   678A      5.412126   679A      5.431725  
	 680A      5.441090   681A      5.449664   682A      5.459343  
	 683A      5.464561   684A      5.475479   685A      5.488106  
	 686A      5.513697   687A      5.520865   688A      5.532047  
	 689A      5.543420   690A      5.555536   691A      5.587216  
	 692A      5.599974   693A      5.606623   694A      5.613907  
	 695A      5.633531   696A      5.654167   697A      5.677618  
	 698A      5.693332   699A      5.711366   700A      5.721368  
	 701A      5.723929   702A      5.737278   703A      5.750909  
	 704A      5.757231   705A      5.770179   706A      5.795397  
	 707A      5.830377   708A      5.839698   709A      5.856842  
	 710A      5.871352   711A      5.878462   712A      5.895080  
	 713A      5.914424   714A      5.952169   715A      6.006659  
	 716A      6.010090   717A      6.020463   718A      6.040891  
	 719A      6.105834   720A      6.145001   721A      6.183207  
	 722A      6.187959   723A      6.196338   724A      6.218521  
	 725A      6.243509   726A      6.249581   727A      6.262684  
	 728A      6.274870   729A      6.283617   730A      6.321608  
	 731A      6.339129   732A      6.348894   733A      6.362819  
	 734A      6.420179   735A      6.442790   736A      6.456493  
	 737A      6.531905   738A      6.624357   739A      6.695678  
	 740A      6.713735   741A      6.765933   742A      6.792699  
	 743A      6.827681   744A      6.869447   745A      6.874309  
	 746A      6.881631   747A      6.900063   748A      6.926128  
	 749A      6.934144   750A      6.963011   751A      6.997041  
	 752A      7.010943   753A      7.037657   754A      7.085194  
	 755A      7.152659   756A      7.173226   757A      7.275231  
	 758A      7.316007   759A      7.370834   760A      7.410324  
	 761A      7.443654   762A      7.465037   763A      7.489744  
	 764A      7.598384   765A      7.658626   766A      7.689270  
	 767A      7.759167   768A      7.836121   769A      7.926739  
	 770A      8.038987   771A      8.098268   772A      8.307068  
	 773A      8.561224   774A     15.994414   775A     16.275005  
	 776A     17.962772   777A     18.026857   778A     18.258455  
	 779A     18.390866   780A     18.686425   781A     19.542519  
	 782A     19.915428  

	Final Occupation by Irrep:
	          A 
	DOCC [    37 ]

  Energy converged.

  @RHF Final Energy:  -424.30414198966866

   => Energetics <=

    Nuclear Repulsion Energy =            480.9861189804579453
    One-Electron Energy =               -1531.1679326203216078
    Two-Electron Energy =                 625.8776716501943156
    DFT Exchange-Correlation Energy =       0.0000000000000000
    Empirical Dispersion Energy =           0.0000000000000000
    Total Energy =                       -424.3041419896694606



Properties will be evaluated at   0.000000,   0.000000,   0.000000 Bohr
  ==> Properties <==


Properties computed using the SCF density density matrix
  Nuclear Dipole Moment: (a.u.)
     X:     5.3853      Y:     1.7053      Z:   -10.5372

  Electronic Dipole Moment: (a.u.)
     X:    -5.0996      Y:    -1.0535      Z:    10.6474

  Dipole Moment: (a.u.)
     X:     0.2856      Y:     0.6519      Z:     0.1102     Total:     0.7202

  Dipole Moment: (Debye)
     X:     0.7260      Y:     1.6569      Z:     0.2801     Total:     1.8305


  Saving occupied orbitals to File 180.

  Saving SAPT 2-DIMER file.

*** tstop() called on node32.bme.utexas.edu at Fri Nov  8 13:35:27 2013
Module time:
	user time   =    3660.74 seconds =      61.01 minutes
	system time =      36.06 seconds =       0.60 minutes
	total time  =        560 seconds =       9.33 minutes
Total time:
	user time   =    3660.74 seconds =      61.01 minutes
	system time =      36.06 seconds =       0.60 minutes
	total time  =        560 seconds =       9.33 minutes

  //>>>>>>>>>>>>>>>>>>>>>>>>>>>>>>>>>>>//
  //            Monomer A HF           //
  //<<<<<<<<<<<<<<<<<<<<<<<<<<<<<<<<<<<//


  No DF_BASIS_SCF auxiliary basis selected, defaulting to aug-cc-pvtz-jkfit


*** tstart() called on node32.bme.utexas.edu
*** at Fri Nov  8 13:35:27 2013


         ---------------------------------------------------------
                                   SCF
            by Justin Turney, Rob Parrish, and Andy Simmonett
                              RHF Reference
                        8 Threads,  27000 MiB Core
         ---------------------------------------------------------

  ==> Geometry <==

    Molecular point group: c1
    Full point group: C1

    Geometry (in Angstrom), charge = 0, multiplicity = 1:

       Center              X                  Y                   Z       
    ------------   -----------------  -----------------  -----------------
           C         -2.215959455767    -0.057108844380    -1.236260141394
           H         -2.431332236767    -0.649960591380    -2.125160362394
           H         -2.166938291767    -0.740480313380    -0.388770604394
           H         -3.052640137767     0.622909513620    -1.080193932394
           C         -0.902312597767     0.697243985620    -1.398194810394
           H         -0.729313675767     1.328397903620    -0.522891350394
           H         -0.966791348767     1.373411334620    -2.254052393394
           C          0.285887700233    -0.236744219380    -1.587608217394
           H          0.368829914233    -0.897173020380    -0.719556076394
           H          0.098536086233    -0.888032658380    -2.446383844394
           C          1.602387204233     0.499140615620    -1.798594506394
           H          1.771024154233     1.185737863620    -0.965147472394
           H          1.525480183233     1.121709406620    -2.692887593394
           C          2.786961851233    -0.448894813380    -1.930134700394
           H          2.648127079233    -1.125247818380    -2.773351351394
           H          3.720886530233     0.089659178620    -2.083562639394
           H          2.894579598233    -1.059443847380    -1.033518890394
           C(Gh)     -0.392786006767    -0.201754209380     1.892913017606
           O(Gh)     -0.815399946767    -1.316934456380     1.695766438606
           O(Gh)     -1.206478364767     0.857211308620     2.125502497606
           H(Gh)     -2.107240473767     0.502830770620     2.084966757606
           C(Gh)      1.047481056233     0.207911871620     1.910118400606
           H(Gh)      1.673304121233    -0.662269073380     1.751963241606
           H(Gh)      1.223518470233     0.942185505620     1.126993820606
           H(Gh)      1.284792303233     0.677212825620     2.861920791606

  Running in c1 symmetry.

  Nuclear repulsion =  185.624925999332106

  Charge       = 0
  Multiplicity = 1
  Electrons    = 42
  Nalpha       = 21
  Nbeta        = 21

  ==> Algorithm <==

  SCF Algorithm Type is DF.
  DIIS enabled.
  MOM disabled.
  Fractional occupation disabled.
  Guess Type is CORE.
  Energy threshold   = 1.00e-08
  Density threshold  = 1.00e-08
  Integral threshold = 0.00e+00

  ==> Primary Basis <==

  Basis Set: AUG-CC-PVTZ
    Number of shells: 270
    Number of basis function: 782
    Number of Cartesian functions: 895
    Spherical Harmonics?: true
    Max angular momentum: 3

  ==> Pre-Iterations <==

   -------------------------------------------------------
    Irrep   Nso     Nmo     Nalpha   Nbeta   Ndocc  Nsocc
   -------------------------------------------------------
     A        782     782       0       0       0       0
   -------------------------------------------------------
    Total     782     782      21      21      21       0
   -------------------------------------------------------

 OEINTS: Wrapper to libmints.
   by Justin Turney

   Calculation information:
      Number of atoms:                  25
      Number of AO shells:             270
      Number of SO shells:             270
      Number of primitives:            446
      Number of atomic orbitals:       895
      Number of basis functions:       782

      Number of irreps:                  1
      Number of functions per irrep: [ 782 ]

      Overlap, kinetic, potential, dipole, and quadrupole integrals
        stored in file 35.

  ==> Integral Setup <==

  ==> DFJK: Density-Fitted J/K Matrices <==

    J tasked:                  Yes
    K tasked:                  Yes
    wK tasked:                  No
    OpenMP threads:              8
    Integrals threads:           8
    Memory (MB):             19311
    Algorithm:                Core
    Integral Cache:           LOAD
    Schwarz Cutoff:          0E+00
    Fitting Condition:       1E-12

   => Auxiliary Basis Set <=

  Basis Set: aug-cc-pvtz-jkfit
    Number of shells: 494
    Number of basis function: 1672
    Number of Cartesian functions: 2059
    Spherical Harmonics?: true
    Max angular momentum: 4

  Minimum eigenvalue in the overlap matrix is 2.2644290756E-06.
  Using Symmetric Orthogonalization.
  SCF Guess: Core (One-Electron) Hamiltonian.

  Guess energy:  -163.69594463595985

  ==> Iterations <==

                        Total Energy        Delta E     RMS |[F,P]|

   @RHF iter   1:  -132.17557745349723   -1.32176e+02   1.54804e-02 
   @RHF iter   2:  -136.18204297406146   -4.00647e+00   6.24691e-03 DIIS
   @RHF iter   3:  -147.42718784319601   -1.12451e+01   1.04789e-02 DIIS
   @RHF iter   4:  -178.71894297001114   -3.12918e+01   6.76141e-03 DIIS
   @RHF iter   5:  -191.28335626452349   -1.25644e+01   3.78137e-03 DIIS
   @RHF iter   6:  -194.51592371987590   -3.23257e+00   2.23913e-03 DIIS
   @RHF iter   7:  -195.93532356160011   -1.41940e+00   1.06449e-03 DIIS
   @RHF iter   8:  -196.37051161098310   -4.35188e-01   2.65745e-04 DIIS
   @RHF iter   9:  -196.40192275181772   -3.14111e-02   7.06234e-05 DIIS
   @RHF iter  10:  -196.40419899785417   -2.27625e-03   1.83036e-05 DIIS
   @RHF iter  11:  -196.40435712161838   -1.58124e-04   4.36905e-06 DIIS
   @RHF iter  12:  -196.40437085894047   -1.37373e-05   9.15904e-07 DIIS
   @RHF iter  13:  -196.40437153073276   -6.71792e-07   2.40756e-07 DIIS
   @RHF iter  14:  -196.40437156277972   -3.20470e-08   6.15784e-08 DIIS
   @RHF iter  15:  -196.40437156489565   -2.11594e-09   1.29872e-08 DIIS
   @RHF iter  16:  -196.40437156500781   -1.12152e-10   3.69625e-09 DIIS

  ==> Post-Iterations <==

	Orbital Energies (a.u.)
	-----------------------

	Doubly Occupied:                                                      

	   1A    -11.212656     2A    -11.212573     3A    -11.210245  
	   4A    -11.207116     5A    -11.207019     6A     -1.081059  
	   7A     -1.015312     8A     -0.918821     9A     -0.819739  
	  10A     -0.785267    11A     -0.646840    12A     -0.598635  
	  13A     -0.592676    14A     -0.553683    15A     -0.547561  
	  16A     -0.525424    17A     -0.494651    18A     -0.475629  
	  19A     -0.462314    20A     -0.458785    21A     -0.446555  

	Virtual:                                                              

	  22A      0.023972    23A      0.033044    24A      0.033304  
	  25A      0.035399    26A      0.047663    27A      0.049821  
	  28A      0.051452    29A      0.052733    30A      0.060358  
	  31A      0.070157    32A      0.070752    33A      0.075258  
	  34A      0.078821    35A      0.079654    36A      0.082182  
	  37A      0.085189    38A      0.100010    39A      0.103204  
	  40A      0.112417    41A      0.114405    42A      0.123207  
	  43A      0.125341    44A      0.130623    45A      0.134397  
	  46A      0.137301    47A      0.139672    48A      0.142017  
	  49A      0.143616    50A      0.147891    51A      0.150103  
	  52A      0.154277    53A      0.158370    54A      0.160339  
	  55A      0.165875    56A      0.175071    57A      0.177933  
	  58A      0.183768    59A      0.186973    60A      0.191137  
	  61A      0.197155    62A      0.202775    63A      0.214214  
	  64A      0.215430    65A      0.219221    66A      0.223808  
	  67A      0.234109    68A      0.241212    69A      0.250764  
	  70A      0.253508    71A      0.260200    72A      0.264174  
	  73A      0.265896    74A      0.270347    75A      0.275919  
	  76A      0.279964    77A      0.284912    78A      0.292855  
	  79A      0.294464    80A      0.300112    81A      0.309701  
	  82A      0.315335    83A      0.317100    84A      0.321895  
	  85A      0.324246    86A      0.336574    87A      0.340384  
	  88A      0.341956    89A      0.344407    90A      0.346988  
	  91A      0.350455    92A      0.355745    93A      0.360796  
	  94A      0.362652    95A      0.366104    96A      0.370282  
	  97A      0.375118    98A      0.376888    99A      0.384352  
	 100A      0.389125   101A      0.389901   102A      0.394278  
	 103A      0.401244   104A      0.405796   105A      0.408629  
	 106A      0.409824   107A      0.419259   108A      0.420567  
	 109A      0.426052   110A      0.430262   111A      0.435387  
	 112A      0.438396   113A      0.445156   114A      0.445602  
	 115A      0.448021   116A      0.453944   117A      0.461644  
	 118A      0.465114   119A      0.467608   120A      0.472159  
	 121A      0.474857   122A      0.479718   123A      0.484153  
	 124A      0.488889   125A      0.492430   126A      0.501144  
	 127A      0.502440   128A      0.502567   129A      0.513818  
	 130A      0.514562   131A      0.522874   132A      0.526529  
	 133A      0.529488   134A      0.531432   135A      0.536955  
	 136A      0.541119   137A      0.543340   138A      0.547525  
	 139A      0.555344   140A      0.555746   141A      0.562433  
	 142A      0.567731   143A      0.574912   144A      0.578089  
	 145A      0.584492   146A      0.590974   147A      0.592447  
	 148A      0.596820   149A      0.605026   150A      0.611018  
	 151A      0.612932   152A      0.622154   153A      0.623694  
	 154A      0.632075   155A      0.635869   156A      0.638557  
	 157A      0.645314   158A      0.650643   159A      0.653407  
	 160A      0.655233   161A      0.657755   162A      0.672185  
	 163A      0.674915   164A      0.678474   165A      0.681470  
	 166A      0.695603   167A      0.697650   168A      0.702403  
	 169A      0.705406   170A      0.711024   171A      0.721401  
	 172A      0.722393   173A      0.731921   174A      0.736677  
	 175A      0.744225   176A      0.747043   177A      0.757465  
	 178A      0.765032   179A      0.773746   180A      0.783537  
	 181A      0.789868   182A      0.795206   183A      0.802943  
	 184A      0.813376   185A      0.816681   186A      0.825304  
	 187A      0.831679   188A      0.847989   189A      0.856732  
	 190A      0.860315   191A      0.867396   192A      0.870204  
	 193A      0.872846   194A      0.880977   195A      0.882446  
	 196A      0.886522   197A      0.888539   198A      0.897392  
	 199A      0.904781   200A      0.909743   201A      0.914152  
	 202A      0.918081   203A      0.920247   204A      0.930233  
	 205A      0.936911   206A      0.942022   207A      0.948554  
	 208A      0.955340   209A      0.957014   210A      0.961242  
	 211A      0.970901   212A      0.973180   213A      0.982523  
	 214A      0.988668   215A      0.993187   216A      0.996734  
	 217A      1.004739   218A      1.007873   219A      1.010620  
	 220A      1.017246   221A      1.021293   222A      1.029053  
	 223A      1.038094   224A      1.041656   225A      1.045772  
	 226A      1.051653   227A      1.055199   228A      1.063989  
	 229A      1.069539   230A      1.074882   231A      1.079504  
	 232A      1.085537   233A      1.088832   234A      1.095340  
	 235A      1.100256   236A      1.104915   237A      1.109917  
	 238A      1.113527   239A      1.119584   240A      1.124755  
	 241A      1.129141   242A      1.141532   243A      1.142865  
	 244A      1.145742   245A      1.149448   246A      1.152111  
	 247A      1.157746   248A      1.166897   249A      1.169795  
	 250A      1.174525   251A      1.186108   252A      1.193551  
	 253A      1.194806   254A      1.198253   255A      1.208996  
	 256A      1.212264   257A      1.216740   258A      1.221292  
	 259A      1.228089   260A      1.229357   261A      1.240569  
	 262A      1.248022   263A      1.252320   264A      1.254786  
	 265A      1.262016   266A      1.265939   267A      1.267971  
	 268A      1.274229   269A      1.285477   270A      1.295478  
	 271A      1.297366   272A      1.305450   273A      1.314440  
	 274A      1.320900   275A      1.325026   276A      1.328080  
	 277A      1.335341   278A      1.338373   279A      1.350723  
	 280A      1.351521   281A      1.356424   282A      1.363202  
	 283A      1.370341   284A      1.376661   285A      1.387737  
	 286A      1.390171   287A      1.394139   288A      1.400691  
	 289A      1.407070   290A      1.411745   291A      1.420651  
	 292A      1.422346   293A      1.430686   294A      1.441786  
	 295A      1.448477   296A      1.456649   297A      1.462762  
	 298A      1.468490   299A      1.474020   300A      1.477874  
	 301A      1.484669   302A      1.487226   303A      1.492492  
	 304A      1.502470   305A      1.512001   306A      1.523951  
	 307A      1.527123   308A      1.534009   309A      1.544277  
	 310A      1.548715   311A      1.559057   312A      1.567621  
	 313A      1.572795   314A      1.579212   315A      1.586542  
	 316A      1.608271   317A      1.612732   318A      1.616762  
	 319A      1.625444   320A      1.631913   321A      1.638860  
	 322A      1.641713   323A      1.648577   324A      1.656413  
	 325A      1.657956   326A      1.668477   327A      1.676052  
	 328A      1.692111   329A      1.696068   330A      1.696235  
	 331A      1.708634   332A      1.712540   333A      1.720179  
	 334A      1.727695   335A      1.731936   336A      1.742298  
	 337A      1.748645   338A      1.750570   339A      1.765973  
	 340A      1.771245   341A      1.772779   342A      1.776091  
	 343A      1.791277   344A      1.799609   345A      1.801052  
	 346A      1.805899   347A      1.816717   348A      1.825838  
	 349A      1.833740   350A      1.841771   351A      1.845002  
	 352A      1.853356   353A      1.859781   354A      1.865065  
	 355A      1.878496   356A      1.882368   357A      1.889854  
	 358A      1.898829   359A      1.903471   360A      1.907640  
	 361A      1.914485   362A      1.918865   363A      1.921366  
	 364A      1.929762   365A      1.941628   366A      1.952757  
	 367A      1.961458   368A      1.969789   369A      1.975081  
	 370A      1.979256   371A      1.984618   372A      1.989817  
	 373A      1.997561   374A      2.007467   375A      2.018972  
	 376A      2.029235   377A      2.033635   378A      2.042377  
	 379A      2.049615   380A      2.057505   381A      2.064139  
	 382A      2.069541   383A      2.072721   384A      2.089212  
	 385A      2.093305   386A      2.103433   387A      2.116481  
	 388A      2.126308   389A      2.138453   390A      2.140790  
	 391A      2.156268   392A      2.167386   393A      2.173520  
	 394A      2.182147   395A      2.186039   396A      2.189966  
	 397A      2.195604   398A      2.208085   399A      2.216350  
	 400A      2.216787   401A      2.226691   402A      2.237703  
	 403A      2.249927   404A      2.259563   405A      2.271316  
	 406A      2.277959   407A      2.289313   408A      2.292836  
	 409A      2.303577   410A      2.306493   411A      2.317971  
	 412A      2.329695   413A      2.334796   414A      2.346373  
	 415A      2.357190   416A      2.364593   417A      2.375970  
	 418A      2.390861   419A      2.394408   420A      2.412703  
	 421A      2.422209   422A      2.427050   423A      2.443920  
	 424A      2.450605   425A      2.460343   426A      2.464033  
	 427A      2.464708   428A      2.481049   429A      2.492652  
	 430A      2.495126   431A      2.509704   432A      2.516108  
	 433A      2.529225   434A      2.532785   435A      2.557008  
	 436A      2.565374   437A      2.588391   438A      2.615276  
	 439A      2.621817   440A      2.652952   441A      2.660978  
	 442A      2.681248   443A      2.693615   444A      2.698602  
	 445A      2.712834   446A      2.722334   447A      2.729366  
	 448A      2.741065   449A      2.789181   450A      2.801840  
	 451A      2.805526   452A      2.821500   453A      2.847996  
	 454A      2.849830   455A      2.870966   456A      2.887317  
	 457A      2.897344   458A      2.912003   459A      2.928442  
	 460A      2.947796   461A      2.961257   462A      2.978934  
	 463A      2.983825   464A      2.999240   465A      3.003235  
	 466A      3.017736   467A      3.079802   468A      3.087491  
	 469A      3.126945   470A      3.146583   471A      3.148894  
	 472A      3.172546   473A      3.219947   474A      3.263321  
	 475A      3.282379   476A      3.308335   477A      3.321351  
	 478A      3.351231   479A      3.374660   480A      3.393114  
	 481A      3.419953   482A      3.438204   483A      3.457228  
	 484A      3.470059   485A      3.485437   486A      3.498397  
	 487A      3.509419   488A      3.532657   489A      3.561123  
	 490A      3.565931   491A      3.576808   492A      3.588904  
	 493A      3.595580   494A      3.613943   495A      3.625232  
	 496A      3.637280   497A      3.654901   498A      3.673024  
	 499A      3.678898   500A      3.683695   501A      3.696173  
	 502A      3.711241   503A      3.722229   504A      3.729918  
	 505A      3.742653   506A      3.753561   507A      3.758435  
	 508A      3.765744   509A      3.784453   510A      3.801266  
	 511A      3.805087   512A      3.821677   513A      3.836598  
	 514A      3.837694   515A      3.846997   516A      3.876125  
	 517A      3.882430   518A      3.903736   519A      3.913444  
	 520A      3.917147   521A      3.924225   522A      3.928257  
	 523A      3.945198   524A      3.950814   525A      3.956941  
	 526A      3.960701   527A      3.975906   528A      3.986407  
	 529A      3.996769   530A      4.005141   531A      4.008681  
	 532A      4.029445   533A      4.030446   534A      4.039826  
	 535A      4.051283   536A      4.055481   537A      4.067019  
	 538A      4.074930   539A      4.083153   540A      4.095048  
	 541A      4.100292   542A      4.112310   543A      4.118081  
	 544A      4.129798   545A      4.141077   546A      4.144306  
	 547A      4.155286   548A      4.186853   549A      4.198782  
	 550A      4.211561   551A      4.217975   552A      4.227478  
	 553A      4.242737   554A      4.246831   555A      4.262571  
	 556A      4.267417   557A      4.273334   558A      4.296103  
	 559A      4.308196   560A      4.317530   561A      4.324895  
	 562A      4.337500   563A      4.340498   564A      4.353978  
	 565A      4.358031   566A      4.370390   567A      4.384311  
	 568A      4.394507   569A      4.400512   570A      4.412532  
	 571A      4.430691   572A      4.438075   573A      4.467827  
	 574A      4.474891   575A      4.493594   576A      4.500028  
	 577A      4.523346   578A      4.549653   579A      4.559635  
	 580A      4.569435   581A      4.579204   582A      4.591882  
	 583A      4.597286   584A      4.604402   585A      4.614928  
	 586A      4.648840   587A      4.658688   588A      4.669262  
	 589A      4.671311   590A      4.688151   591A      4.703684  
	 592A      4.715444   593A      4.727104   594A      4.728809  
	 595A      4.735587   596A      4.745497   597A      4.757590  
	 598A      4.764174   599A      4.776214   600A      4.792027  
	 601A      4.799468   602A      4.819543   603A      4.825278  
	 604A      4.833944   605A      4.852877   606A      4.867731  
	 607A      4.880469   608A      4.886876   609A      4.893094  
	 610A      4.903643   611A      4.916006   612A      4.922765  
	 613A      4.928491   614A      4.940371   615A      4.946991  
	 616A      4.978968   617A      4.995294   618A      5.000388  
	 619A      5.021621   620A      5.025568   621A      5.034652  
	 622A      5.044646   623A      5.050453   624A      5.066786  
	 625A      5.070713   626A      5.103659   627A      5.116606  
	 628A      5.124141   629A      5.139199   630A      5.152433  
	 631A      5.164649   632A      5.170520   633A      5.183877  
	 634A      5.207701   635A      5.219798   636A      5.235139  
	 637A      5.243747   638A      5.256499   639A      5.269759  
	 640A      5.277119   641A      5.286278   642A      5.297103  
	 643A      5.306857   644A      5.318461   645A      5.332319  
	 646A      5.345067   647A      5.360180   648A      5.364880  
	 649A      5.373726   650A      5.381911   651A      5.409136  
	 652A      5.414074   653A      5.420407   654A      5.440614  
	 655A      5.443997   656A      5.457042   657A      5.473267  
	 658A      5.480138   659A      5.493237   660A      5.494406  
	 661A      5.501697   662A      5.524521   663A      5.536559  
	 664A      5.549465   665A      5.565440   666A      5.576094  
	 667A      5.588978   668A      5.607543   669A      5.618970  
	 670A      5.625332   671A      5.632868   672A      5.647491  
	 673A      5.659245   674A      5.686522   675A      5.693649  
	 676A      5.713096   677A      5.719199   678A      5.730281  
	 679A      5.744114   680A      5.756579   681A      5.764871  
	 682A      5.796981   683A      5.826859   684A      5.838905  
	 685A      5.841918   686A      5.872327   687A      5.899376  
	 688A      5.907662   689A      5.919734   690A      5.932390  
	 691A      5.967922   692A      5.997512   693A      6.011077  
	 694A      6.019967   695A      6.034819   696A      6.081631  
	 697A      6.104269   698A      6.121163   699A      6.195425  
	 700A      6.208281   701A      6.231971   702A      6.239301  
	 703A      6.247808   704A      6.260592   705A      6.276835  
	 706A      6.289440   707A      6.301824   708A      6.317590  
	 709A      6.324041   710A      6.346582   711A      6.368864  
	 712A      6.376271   713A      6.423623   714A      6.450677  
	 715A      6.488092   716A      6.514361   717A      6.542508  
	 718A      6.696975   719A      6.722792   720A      6.793384  
	 721A      6.825303   722A      6.867003   723A      6.884396  
	 724A      6.889835   725A      6.928206   726A      6.997938  
	 727A      7.008899   728A      7.042912   729A      7.143890  
	 730A      7.167469   731A      7.316119   732A      7.449801  
	 733A      7.497971   734A      7.674188   735A      7.769499  
	 736A      7.868532   737A      7.877760   738A      7.903714  
	 739A      7.916011   740A      7.954503   741A      7.984098  
	 742A      8.041869   743A      8.166913   744A      8.177427  
	 745A      8.304091   746A      8.327971   747A      8.374960  
	 748A      8.399925   749A      8.431889   750A      8.635727  
	 751A      8.863703   752A      9.072684   753A      9.206111  
	 754A      9.893290   755A     10.019430   756A     10.056090  
	 757A     10.073693   758A     10.099324   759A     10.293963  
	 760A     10.365489   761A     10.385828   762A     10.423368  
	 763A     10.717475   764A     10.971180   765A     11.044158  
	 766A     11.997275   767A     12.173857   768A     12.285895  
	 769A     12.653205   770A     13.134275   771A     13.545270  
	 772A     14.106703   773A     14.201148   774A     17.979252  
	 775A     18.259580   776A     18.377747   777A     18.677449  
	 778A     19.594020   779A     52.022822   780A     55.049453  
	 781A     66.103442   782A     69.385623  

	Final Occupation by Irrep:
	          A 
	DOCC [    21 ]

  Energy converged.

  @RHF Final Energy:  -196.40437156500781

   => Energetics <=

    Nuclear Repulsion Energy =            185.6249259993321061
    One-Electron Energy =                -631.1134727485716667
    Two-Electron Energy =                 249.0841751842330325
    DFT Exchange-Correlation Energy =       0.0000000000000000
    Empirical Dispersion Energy =           0.0000000000000000
    Total Energy =                       -196.4043715650065280



Properties will be evaluated at   0.000000,   0.000000,   0.000000 Bohr
  ==> Properties <==


Properties computed using the SCF density density matrix
  Nuclear Dipole Moment: (a.u.)
     X:    24.6085      Y:     5.8266      Z:  -126.2152

  Electronic Dipole Moment: (a.u.)
     X:   -24.6060      Y:    -5.7939      Z:   126.2129

  Dipole Moment: (a.u.)
     X:     0.0024      Y:     0.0327      Z:    -0.0024     Total:     0.0329

  Dipole Moment: (Debye)
     X:     0.0061      Y:     0.0831      Z:    -0.0060     Total:     0.0835


  Saving occupied orbitals to File 180.

  Saving SAPT 2-MONOMER_A file.

*** tstop() called on node32.bme.utexas.edu at Fri Nov  8 13:41:09 2013
Module time:
	user time   =    2302.32 seconds =      38.37 minutes
	system time =      28.34 seconds =       0.47 minutes
	total time  =        342 seconds =       5.70 minutes
Total time:
	user time   =    5963.09 seconds =      99.38 minutes
	system time =      64.40 seconds =       1.07 minutes
	total time  =        902 seconds =      15.03 minutes

  //>>>>>>>>>>>>>>>>>>>>>>>>>>>>>>>>>>>//
  //            Monomer B HF           //
  //<<<<<<<<<<<<<<<<<<<<<<<<<<<<<<<<<<<//


  No DF_BASIS_SCF auxiliary basis selected, defaulting to aug-cc-pvtz-jkfit


*** tstart() called on node32.bme.utexas.edu
*** at Fri Nov  8 13:41:10 2013


         ---------------------------------------------------------
                                   SCF
            by Justin Turney, Rob Parrish, and Andy Simmonett
                              RHF Reference
                        8 Threads,  27000 MiB Core
         ---------------------------------------------------------

  ==> Geometry <==

    Molecular point group: c1
    Full point group: C1

    Geometry (in Angstrom), charge = 0, multiplicity = 1:

       Center              X                  Y                   Z       
    ------------   -----------------  -----------------  -----------------
           C(Gh)     -2.215959455767    -0.057108844380    -1.236260141394
           H(Gh)     -2.431332236767    -0.649960591380    -2.125160362394
           H(Gh)     -2.166938291767    -0.740480313380    -0.388770604394
           H(Gh)     -3.052640137767     0.622909513620    -1.080193932394
           C(Gh)     -0.902312597767     0.697243985620    -1.398194810394
           H(Gh)     -0.729313675767     1.328397903620    -0.522891350394
           H(Gh)     -0.966791348767     1.373411334620    -2.254052393394
           C(Gh)      0.285887700233    -0.236744219380    -1.587608217394
           H(Gh)      0.368829914233    -0.897173020380    -0.719556076394
           H(Gh)      0.098536086233    -0.888032658380    -2.446383844394
           C(Gh)      1.602387204233     0.499140615620    -1.798594506394
           H(Gh)      1.771024154233     1.185737863620    -0.965147472394
           H(Gh)      1.525480183233     1.121709406620    -2.692887593394
           C(Gh)      2.786961851233    -0.448894813380    -1.930134700394
           H(Gh)      2.648127079233    -1.125247818380    -2.773351351394
           H(Gh)      3.720886530233     0.089659178620    -2.083562639394
           H(Gh)      2.894579598233    -1.059443847380    -1.033518890394
           C         -0.392786006767    -0.201754209380     1.892913017606
           O         -0.815399946767    -1.316934456380     1.695766438606
           O         -1.206478364767     0.857211308620     2.125502497606
           H         -2.107240473767     0.502830770620     2.084966757606
           C          1.047481056233     0.207911871620     1.910118400606
           H          1.673304121233    -0.662269073380     1.751963241606
           H          1.223518470233     0.942185505620     1.126993820606
           H          1.284792303233     0.677212825620     2.861920791606

  Running in c1 symmetry.

  Nuclear repulsion =  121.239726579920514

  Charge       = 0
  Multiplicity = 1
  Electrons    = 32
  Nalpha       = 16
  Nbeta        = 16

  ==> Algorithm <==

  SCF Algorithm Type is DF.
  DIIS enabled.
  MOM disabled.
  Fractional occupation disabled.
  Guess Type is CORE.
  Energy threshold   = 1.00e-08
  Density threshold  = 1.00e-08
  Integral threshold = 0.00e+00

  ==> Primary Basis <==

  Basis Set: AUG-CC-PVTZ
    Number of shells: 270
    Number of basis function: 782
    Number of Cartesian functions: 895
    Spherical Harmonics?: true
    Max angular momentum: 3

  ==> Pre-Iterations <==

   -------------------------------------------------------
    Irrep   Nso     Nmo     Nalpha   Nbeta   Ndocc  Nsocc
   -------------------------------------------------------
     A        782     782       0       0       0       0
   -------------------------------------------------------
    Total     782     782      16      16      16       0
   -------------------------------------------------------

 OEINTS: Wrapper to libmints.
   by Justin Turney

   Calculation information:
      Number of atoms:                  25
      Number of AO shells:             270
      Number of SO shells:             270
      Number of primitives:            446
      Number of atomic orbitals:       895
      Number of basis functions:       782

      Number of irreps:                  1
      Number of functions per irrep: [ 782 ]

      Overlap, kinetic, potential, dipole, and quadrupole integrals
        stored in file 35.

  ==> Integral Setup <==

  ==> DFJK: Density-Fitted J/K Matrices <==

    J tasked:                  Yes
    K tasked:                  Yes
    wK tasked:                  No
    OpenMP threads:              8
    Integrals threads:           8
    Memory (MB):             19311
    Algorithm:                Core
    Integral Cache:           LOAD
    Schwarz Cutoff:          0E+00
    Fitting Condition:       1E-12

   => Auxiliary Basis Set <=

  Basis Set: aug-cc-pvtz-jkfit
    Number of shells: 494
    Number of basis function: 1672
    Number of Cartesian functions: 2059
    Spherical Harmonics?: true
    Max angular momentum: 4

  Minimum eigenvalue in the overlap matrix is 2.2644290756E-06.
  Using Symmetric Orthogonalization.
  SCF Guess: Core (One-Electron) Hamiltonian.

  Guess energy:  -183.20290997235151

  ==> Iterations <==

                        Total Energy        Delta E     RMS |[F,P]|

   @RHF iter   1:  -170.72622053135541   -1.70726e+02   1.68621e-02 
   @RHF iter   2:  -144.85793302373514    2.58683e+01   1.00049e-02 DIIS
   @RHF iter   3:  -199.72445428565891   -5.48665e+01   7.41017e-03 DIIS
   @RHF iter   4:  -224.57318554587613   -2.48487e+01   3.39929e-03 DIIS
   @RHF iter   5:  -227.33846794936017   -2.76528e+00   1.57089e-03 DIIS
   @RHF iter   6:  -227.86164809040611   -5.23180e-01   3.94736e-04 DIIS
   @RHF iter   7:  -227.89753665960217   -3.58886e-02   1.51216e-04 DIIS
   @RHF iter   8:  -227.90431537229387   -6.77871e-03   4.38760e-05 DIIS
   @RHF iter   9:  -227.90538826866322   -1.07290e-03   1.28311e-05 DIIS
   @RHF iter  10:  -227.90555146922333   -1.63201e-04   4.62493e-06 DIIS
   @RHF iter  11:  -227.90556879999917   -1.73308e-05   1.71063e-06 DIIS
   @RHF iter  12:  -227.90557111923897   -2.31924e-06   5.36263e-07 DIIS
   @RHF iter  13:  -227.90557133119046   -2.11951e-07   1.69981e-07 DIIS
   @RHF iter  14:  -227.90557135260002   -2.14096e-08   3.88876e-08 DIIS
   @RHF iter  15:  -227.90557135380936   -1.20934e-09   1.20152e-08 DIIS
   @RHF iter  16:  -227.90557135391350   -1.04137e-10   3.21233e-09 DIIS

  ==> Post-Iterations <==

	Orbital Energies (a.u.)
	-----------------------

	Doubly Occupied:                                                      

	   1A    -20.615890     2A    -20.552817     3A    -11.391113  
	   4A    -11.246296     5A     -1.467230     6A     -1.363118  
	   7A     -1.031237     8A     -0.823515     9A     -0.708394  
	  10A     -0.682397    11A     -0.652909    12A     -0.587046  
	  13A     -0.575982    14A     -0.563852    15A     -0.485751  
	  16A     -0.457448  

	Virtual:                                                              

	  17A      0.018359    18A      0.027415    19A      0.031106  
	  20A      0.036636    21A      0.044597    22A      0.048416  
	  23A      0.051721    24A      0.055110    25A      0.056087  
	  26A      0.068950    27A      0.071755    28A      0.074958  
	  29A      0.076595    30A      0.080167    31A      0.082093  
	  32A      0.087715    33A      0.092112    34A      0.093885  
	  35A      0.103378    36A      0.106437    37A      0.114314  
	  38A      0.123443    39A      0.125731    40A      0.130484  
	  41A      0.134619    42A      0.137748    43A      0.139451  
	  44A      0.142649    45A      0.145756    46A      0.149639  
	  47A      0.151904    48A      0.157130    49A      0.159356  
	  50A      0.163194    51A      0.171607    52A      0.173574  
	  53A      0.175963    54A      0.178874    55A      0.183192  
	  56A      0.186322    57A      0.192034    58A      0.205592  
	  59A      0.210591    60A      0.211409    61A      0.217167  
	  62A      0.220053    63A      0.227673    64A      0.237698  
	  65A      0.245223    66A      0.247111    67A      0.250796  
	  68A      0.266171    69A      0.272224    70A      0.276898  
	  71A      0.282014    72A      0.285453    73A      0.293715  
	  74A      0.294485    75A      0.300116    76A      0.303430  
	  77A      0.309247    78A      0.311889    79A      0.321184  
	  80A      0.321717    81A      0.325389    82A      0.328378  
	  83A      0.333709    84A      0.342256    85A      0.344391  
	  86A      0.346404    87A      0.348579    88A      0.350125  
	  89A      0.355336    90A      0.358973    91A      0.362311  
	  92A      0.367590    93A      0.373827    94A      0.379713  
	  95A      0.381335    96A      0.386091    97A      0.395580  
	  98A      0.396570    99A      0.400351   100A      0.405357  
	 101A      0.410468   102A      0.416059   103A      0.419293  
	 104A      0.422504   105A      0.429227   106A      0.430657  
	 107A      0.431432   108A      0.433700   109A      0.443288  
	 110A      0.449646   111A      0.455425   112A      0.457196  
	 113A      0.462810   114A      0.470378   115A      0.473337  
	 116A      0.474819   117A      0.479136   118A      0.486987  
	 119A      0.492501   120A      0.495548   121A      0.502844  
	 122A      0.510599   123A      0.514573   124A      0.520442  
	 125A      0.522718   126A      0.528288   127A      0.531209  
	 128A      0.534955   129A      0.537816   130A      0.539673  
	 131A      0.550578   132A      0.550953   133A      0.556924  
	 134A      0.559815   135A      0.570523   136A      0.572469  
	 137A      0.579990   138A      0.581945   139A      0.587485  
	 140A      0.595047   141A      0.597263   142A      0.607800  
	 143A      0.614275   144A      0.617642   145A      0.621174  
	 146A      0.623628   147A      0.629278   148A      0.633146  
	 149A      0.639861   150A      0.641616   151A      0.647882  
	 152A      0.655601   153A      0.663817   154A      0.666117  
	 155A      0.670264   156A      0.675473   157A      0.679032  
	 158A      0.681764   159A      0.684280   160A      0.687643  
	 161A      0.695864   162A      0.701971   163A      0.706251  
	 164A      0.714063   165A      0.719860   166A      0.722695  
	 167A      0.725273   168A      0.729366   169A      0.739483  
	 170A      0.740842   171A      0.747837   172A      0.755260  
	 173A      0.759975   174A      0.772283   175A      0.776577  
	 176A      0.781384   177A      0.788158   178A      0.790365  
	 179A      0.798211   180A      0.801478   181A      0.811090  
	 182A      0.818675   183A      0.820549   184A      0.831043  
	 185A      0.833584   186A      0.841828   187A      0.848283  
	 188A      0.858432   189A      0.867672   190A      0.875776  
	 191A      0.882148   192A      0.882325   193A      0.887695  
	 194A      0.899541   195A      0.903299   196A      0.908472  
	 197A      0.913445   198A      0.919743   199A      0.928991  
	 200A      0.937706   201A      0.945021   202A      0.949010  
	 203A      0.956041   204A      0.964955   205A      0.967217  
	 206A      0.970212   207A      0.976149   208A      0.991620  
	 209A      1.000782   210A      1.012987   211A      1.023355  
	 212A      1.029330   213A      1.032000   214A      1.036341  
	 215A      1.043821   216A      1.047861   217A      1.052257  
	 218A      1.063912   219A      1.065233   220A      1.071334  
	 221A      1.076404   222A      1.079713   223A      1.090774  
	 224A      1.092580   225A      1.100057   226A      1.102462  
	 227A      1.106896   228A      1.113391   229A      1.119200  
	 230A      1.129234   231A      1.136184   232A      1.138741  
	 233A      1.147433   234A      1.150861   235A      1.157375  
	 236A      1.161697   237A      1.169160   238A      1.173511  
	 239A      1.176714   240A      1.187268   241A      1.192615  
	 242A      1.194324   243A      1.200783   244A      1.203047  
	 245A      1.206457   246A      1.208366   247A      1.216144  
	 248A      1.222963   249A      1.233144   250A      1.238784  
	 251A      1.242471   252A      1.247723   253A      1.251295  
	 254A      1.256386   255A      1.264731   256A      1.264930  
	 257A      1.271962   258A      1.277296   259A      1.282459  
	 260A      1.284047   261A      1.286942   262A      1.292810  
	 263A      1.300272   264A      1.305864   265A      1.313984  
	 266A      1.322253   267A      1.327485   268A      1.335238  
	 269A      1.336524   270A      1.343783   271A      1.345960  
	 272A      1.347849   273A      1.351889   274A      1.359779  
	 275A      1.365944   276A      1.367487   277A      1.381597  
	 278A      1.388451   279A      1.390963   280A      1.398471  
	 281A      1.404727   282A      1.414872   283A      1.416641  
	 284A      1.426455   285A      1.430080   286A      1.438725  
	 287A      1.444519   288A      1.452280   289A      1.458923  
	 290A      1.462467   291A      1.470028   292A      1.473161  
	 293A      1.473964   294A      1.486352   295A      1.493128  
	 296A      1.501273   297A      1.504748   298A      1.512404  
	 299A      1.514695   300A      1.518628   301A      1.529803  
	 302A      1.531273   303A      1.536128   304A      1.540466  
	 305A      1.546362   306A      1.551545   307A      1.553927  
	 308A      1.568804   309A      1.573613   310A      1.579758  
	 311A      1.583303   312A      1.596204   313A      1.598978  
	 314A      1.605513   315A      1.607907   316A      1.627094  
	 317A      1.630040   318A      1.638413   319A      1.644964  
	 320A      1.653535   321A      1.655012   322A      1.659220  
	 323A      1.675046   324A      1.682720   325A      1.693247  
	 326A      1.703308   327A      1.704947   328A      1.715124  
	 329A      1.719700   330A      1.725411   331A      1.731985  
	 332A      1.740549   333A      1.752342   334A      1.754839  
	 335A      1.764098   336A      1.772899   337A      1.780301  
	 338A      1.784033   339A      1.791805   340A      1.795911  
	 341A      1.811039   342A      1.817994   343A      1.822184  
	 344A      1.824893   345A      1.844240   346A      1.848856  
	 347A      1.857445   348A      1.867068   349A      1.869257  
	 350A      1.882026   351A      1.886688   352A      1.887534  
	 353A      1.900587   354A      1.916716   355A      1.923329  
	 356A      1.936352   357A      1.945529   358A      1.948484  
	 359A      1.959084   360A      1.965040   361A      1.974971  
	 362A      1.983793   363A      1.996381   364A      2.001465  
	 365A      2.014640   366A      2.021229   367A      2.033285  
	 368A      2.037171   369A      2.049372   370A      2.053970  
	 371A      2.065714   372A      2.075027   373A      2.088984  
	 374A      2.101157   375A      2.101283   376A      2.119878  
	 377A      2.125395   378A      2.132329   379A      2.137694  
	 380A      2.146701   381A      2.159485   382A      2.167915  
	 383A      2.168181   384A      2.183847   385A      2.189610  
	 386A      2.197307   387A      2.211933   388A      2.224710  
	 389A      2.227375   390A      2.243037   391A      2.243294  
	 392A      2.250029   393A      2.258435   394A      2.268842  
	 395A      2.272754   396A      2.276658   397A      2.279049  
	 398A      2.294369   399A      2.298504   400A      2.307540  
	 401A      2.317191   402A      2.324110   403A      2.330300  
	 404A      2.343886   405A      2.350719   406A      2.356946  
	 407A      2.360574   408A      2.375540   409A      2.394106  
	 410A      2.398698   411A      2.414812   412A      2.417635  
	 413A      2.433427   414A      2.443850   415A      2.459649  
	 416A      2.468604   417A      2.472962   418A      2.477214  
	 419A      2.484278   420A      2.500283   421A      2.513213  
	 422A      2.522584   423A      2.528459   424A      2.532647  
	 425A      2.550974   426A      2.564505   427A      2.572596  
	 428A      2.587004   429A      2.587868   430A      2.604662  
	 431A      2.606178   432A      2.639109   433A      2.640496  
	 434A      2.659582   435A      2.661167   436A      2.674552  
	 437A      2.681460   438A      2.698654   439A      2.705199  
	 440A      2.714522   441A      2.730234   442A      2.737059  
	 443A      2.751467   444A      2.757736   445A      2.762389  
	 446A      2.770071   447A      2.783396   448A      2.796638  
	 449A      2.803465   450A      2.806761   451A      2.825571  
	 452A      2.829561   453A      2.839548   454A      2.850467  
	 455A      2.869463   456A      2.872664   457A      2.886233  
	 458A      2.910211   459A      2.912605   460A      2.922073  
	 461A      2.938041   462A      2.949310   463A      2.962777  
	 464A      2.985658   465A      2.989507   466A      2.995768  
	 467A      3.018125   468A      3.027998   469A      3.034207  
	 470A      3.056763   471A      3.069180   472A      3.088836  
	 473A      3.105640   474A      3.111894   475A      3.113035  
	 476A      3.137520   477A      3.155528   478A      3.193282  
	 479A      3.200211   480A      3.235082   481A      3.260569  
	 482A      3.305293   483A      3.316038   484A      3.337296  
	 485A      3.366399   486A      3.389639   487A      3.410575  
	 488A      3.447422   489A      3.476946   490A      3.489017  
	 491A      3.526691   492A      3.549068   493A      3.562358  
	 494A      3.628598   495A      3.672710   496A      3.693155  
	 497A      3.718610   498A      3.760581   499A      3.809999  
	 500A      3.830108   501A      3.879193   502A      3.892441  
	 503A      3.918848   504A      3.944017   505A      3.980208  
	 506A      3.997823   507A      4.003666   508A      4.023658  
	 509A      4.041770   510A      4.061355   511A      4.076010  
	 512A      4.091811   513A      4.107701   514A      4.130200  
	 515A      4.138336   516A      4.141560   517A      4.151144  
	 518A      4.167095   519A      4.169431   520A      4.185665  
	 521A      4.205985   522A      4.210829   523A      4.222349  
	 524A      4.231591   525A      4.235958   526A      4.251492  
	 527A      4.261036   528A      4.274644   529A      4.278178  
	 530A      4.282831   531A      4.297288   532A      4.301500  
	 533A      4.304461   534A      4.312460   535A      4.324833  
	 536A      4.343525   537A      4.348758   538A      4.363470  
	 539A      4.371914   540A      4.379426   541A      4.396372  
	 542A      4.402377   543A      4.408304   544A      4.424172  
	 545A      4.426153   546A      4.429759   547A      4.455852  
	 548A      4.475170   549A      4.477769   550A      4.493710  
	 551A      4.507728   552A      4.517270   553A      4.520307  
	 554A      4.540972   555A      4.545737   556A      4.553292  
	 557A      4.566205   558A      4.570708   559A      4.578308  
	 560A      4.598332   561A      4.611131   562A      4.617374  
	 563A      4.635508   564A      4.657785   565A      4.670352  
	 566A      4.680413   567A      4.698737   568A      4.700640  
	 569A      4.712464   570A      4.727322   571A      4.736749  
	 572A      4.747305   573A      4.755302   574A      4.756617  
	 575A      4.767758   576A      4.790249   577A      4.801566  
	 578A      4.814135   579A      4.831471   580A      4.849424  
	 581A      4.861373   582A      4.865385   583A      4.885187  
	 584A      4.900369   585A      4.907597   586A      4.911237  
	 587A      4.923120   588A      4.934234   589A      4.939842  
	 590A      4.945287   591A      4.968003   592A      4.971765  
	 593A      4.977414   594A      4.992652   595A      4.996797  
	 596A      5.011446   597A      5.013433   598A      5.017548  
	 599A      5.026875   600A      5.037691   601A      5.052262  
	 602A      5.058502   603A      5.065613   604A      5.075579  
	 605A      5.080624   606A      5.083128   607A      5.089374  
	 608A      5.103298   609A      5.110922   610A      5.120648  
	 611A      5.143881   612A      5.150494   613A      5.159629  
	 614A      5.190340   615A      5.216825   616A      5.226775  
	 617A      5.240437   618A      5.252528   619A      5.258179  
	 620A      5.273820   621A      5.302754   622A      5.325143  
	 623A      5.334095   624A      5.341287   625A      5.357035  
	 626A      5.370129   627A      5.381539   628A      5.400892  
	 629A      5.412107   630A      5.427910   631A      5.435759  
	 632A      5.455922   633A      5.464767   634A      5.471632  
	 635A      5.482579   636A      5.492375   637A      5.514079  
	 638A      5.525765   639A      5.540977   640A      5.551794  
	 641A      5.561715   642A      5.567499   643A      5.580575  
	 644A      5.584759   645A      5.602261   646A      5.616036  
	 647A      5.624413   648A      5.642706   649A      5.653967  
	 650A      5.658112   651A      5.668845   652A      5.691600  
	 653A      5.693441   654A      5.710033   655A      5.727113  
	 656A      5.732115   657A      5.738706   658A      5.749735  
	 659A      5.752763   660A      5.774956   661A      5.779403  
	 662A      5.805258   663A      5.811709   664A      5.824399  
	 665A      5.831647   666A      5.841827   667A      5.858067  
	 668A      5.863719   669A      5.879742   670A      5.881623  
	 671A      5.906216   672A      5.924540   673A      5.947516  
	 674A      5.980761   675A      5.992645   676A      6.014108  
	 677A      6.027828   678A      6.039907   679A      6.100749  
	 680A      6.122848   681A      6.129365   682A      6.145521  
	 683A      6.152751   684A      6.162572   685A      6.183023  
	 686A      6.202150   687A      6.222920   688A      6.241519  
	 689A      6.269400   690A      6.279239   691A      6.284257  
	 692A      6.299543   693A      6.320267   694A      6.354734  
	 695A      6.395515   696A      6.441219   697A      6.457569  
	 698A      6.485624   699A      6.548608   700A      6.585502  
	 701A      6.607459   702A      6.630455   703A      6.709110  
	 704A      6.759401   705A      6.801908   706A      6.862540  
	 707A      6.900015   708A      6.905869   709A      6.920153  
	 710A      6.933950   711A      6.948478   712A      6.967248  
	 713A      6.974441   714A      6.978821   715A      7.008211  
	 716A      7.022973   717A      7.052405   718A      7.081251  
	 719A      7.097979   720A      7.101384   721A      7.159053  
	 722A      7.178782   723A      7.218545   724A      7.271349  
	 725A      7.295668   726A      7.304238   727A      7.321426  
	 728A      7.352719   729A      7.375570   730A      7.406450  
	 731A      7.430686   732A      7.442084   733A      7.460895  
	 734A      7.473618   735A      7.489578   736A      7.534310  
	 737A      7.598713   738A      7.658152   739A      7.684868  
	 740A      7.724849   741A      7.763303   742A      7.833122  
	 743A      7.862386   744A      7.883736   745A      7.888641  
	 746A      7.903085   747A      7.914034   748A      7.932425  
	 749A      7.962855   750A      7.976848   751A      7.986960  
	 752A      8.051897   753A      8.097335   754A      8.107700  
	 755A      8.135317   756A      8.280345   757A      8.307813  
	 758A      8.359061   759A      8.373628   760A      8.408761  
	 761A      8.491777   762A      8.556627   763A      8.604157  
	 764A      8.616523   765A      9.000365   766A      9.103697  
	 767A      9.237785   768A      9.683511   769A     10.505556  
	 770A     10.556139   771A     10.580088   772A     10.754135  
	 773A     10.970237   774A     16.004454   775A     16.294761  
	 776A     18.040545   777A     19.846758   778A     53.198997  
	 779A     53.957186   780A     54.147997   781A     54.581125  
	 782A     56.425942  

	Final Occupation by Irrep:
	          A 
	DOCC [    16 ]

  Energy converged.

  @RHF Final Energy:  -227.90557135391350

   => Energetics <=

    Nuclear Repulsion Energy =            121.2397265799205144
    One-Electron Energy =                -551.8806040658757865
    Two-Electron Energy =                 202.7353061320420977
    DFT Exchange-Correlation Energy =       0.0000000000000000
    Empirical Dispersion Energy =           0.0000000000000000
    Total Energy =                       -227.9055713539131887



Properties will be evaluated at   0.000000,   0.000000,   0.000000 Bohr
  ==> Properties <==


Properties computed using the SCF density density matrix
  Nuclear Dipole Moment: (a.u.)
     X:   -19.2232      Y:    -4.1213      Z:   115.6780

  Electronic Dipole Moment: (a.u.)
     X:    19.5341      Y:     4.8374      Z:  -115.5606

  Dipole Moment: (a.u.)
     X:     0.3109      Y:     0.7162      Z:     0.1175     Total:     0.7895

  Dipole Moment: (Debye)
     X:     0.7902      Y:     1.8204      Z:     0.2986     Total:     2.0068


  Saving occupied orbitals to File 180.

  Saving SAPT 2-MONOMER_B file.

*** tstop() called on node32.bme.utexas.edu at Fri Nov  8 13:45:00 2013
Module time:
	user time   =    1606.82 seconds =      26.78 minutes
	system time =      16.95 seconds =       0.28 minutes
	total time  =        230 seconds =       3.83 minutes
Total time:
	user time   =    7569.94 seconds =     126.17 minutes
	system time =      81.36 seconds =       1.36 minutes
	total time  =       1133 seconds =      18.88 minutes
  No DF_BASIS_SAPT auxiliary basis selected, defaulting to aug-cc-pvtz-ri

  //>>>>>>>>>>>>>>>>>>>>>>>>>>>>>>>>>>>//
  //               SAPT2+              //
  //<<<<<<<<<<<<<<<<<<<<<<<<<<<<<<<<<<<//


*** tstart() called on node32.bme.utexas.edu
*** at Fri Nov  8 13:45:00 2013

        SAPT2+  
    Ed Hohenstein
     6 June 2009

      Orbital Information
  --------------------------
    NSO        =       782
    NMO        =       782
    NRI        =      1690
    NOCC A     =        21
    NOCC B     =        16
    FOCC A     =         5
    FOCC B     =         4
    NVIR A     =       761
    NVIR B     =       766

    Estimated memory usage: 14143.2 MB

    Elst10,r            =    -0.004070707433 H
    Exch10 (S^2)        =     0.011249329239 H
    Exch10              =     0.011270769510 H
    Ind20,r (A<-B)      =    -0.002318380227 H
    Ind20,r (B<-A)      =    -0.000697872281 H
    Ind20,r             =    -0.003016252507 H
    Exch-Ind20,r (A<-B) =     0.001787575757 H
    Exch-Ind20,r (B<-A) =     0.000570172340 H
    Exch-Ind20,r        =     0.002357748097 H
    Disp20              =    -0.012127915327 H
    Exch-Disp20         =     0.001242061560 H
    Elst12,r            =    -0.000565022681 H
    Exch11              =     0.000224378546 H
    Exch12              =     0.000977608892 H
    Ind22               =    -0.000243880893 H
    Disp21              =     0.001275042805 H
    Disp22 (SDQ)        =     0.000168934216 H

    (i =   1 of  12)      17792 seconds
    (i =   2 of  12)      35788 seconds
    (i =   3 of  12)      53763 seconds
    (i =   4 of  12)      71727 seconds
    (i =   5 of  12)      89682 seconds
    (i =   6 of  12)     107645 seconds
    (i =   7 of  12)     125601 seconds
    (i =   8 of  12)     143601 seconds
    (i =   9 of  12)     161623 seconds
    (i =  10 of  12)     179595 seconds
    (i =  11 of  12)     197562 seconds
    (i =  12 of  12)     215545 seconds

    Disp220 (T)         =    -0.000891531357 H

    (i =   1 of  16)      10969 seconds
    (i =   2 of  16)      21647 seconds
    (i =   3 of  16)      32130 seconds
    (i =   4 of  16)      42656 seconds
    (i =   5 of  16)      53162 seconds
    (i =   6 of  16)      63669 seconds
    (i =   7 of  16)      74183 seconds
    (i =   8 of  16)      84670 seconds
    (i =   9 of  16)      95135 seconds
    (i =  10 of  16)     105613 seconds
    (i =  11 of  16)     116117 seconds
    (i =  12 of  16)     126608 seconds
    (i =  13 of  16)     137081 seconds
    (i =  14 of  16)     147559 seconds
    (i =  15 of  16)     158027 seconds
    (i =  16 of  16)     168504 seconds

    Disp202 (T)         =    -0.001186443969 H

    Disp22 (T)          =    -0.002077975326 H

    SAPT Results  
  -----------------------------------------------------------------------
    Electrostatics          -4.63573011 mH      -2.90896469 kcal mol^-1
      Elst10,r              -4.07070743 mH      -2.55440759 kcal mol^-1
      Elst12,r              -0.56502268 mH      -0.35455710 kcal mol^-1

    Exchange                12.47275695 mH       7.82677348 kcal mol^-1
      Exch10                11.27076951 mH       7.07251494 kcal mol^-1
      Exch10(S^2)           11.24932924 mH       7.05906097 kcal mol^-1
      Exch11(S^2)            0.22437855 mH       0.14079967 kcal mol^-1
      Exch12(S^2)            0.97760889 mH       0.61345887 kcal mol^-1

    Induction               -1.45237659 mH      -0.91138011 kcal mol^-1
      Ind20,r               -3.01625251 mH      -1.89272710 kcal mol^-1
      Ind22                 -0.24388089 mH      -0.15303758 kcal mol^-1
      Exch-Ind20,r           2.35774810 mH       1.47950933 kcal mol^-1
      Exch-Ind22             0.19063713 mH       0.11962661 kcal mol^-1
      delta HF,r (2)        -0.74062841 mH      -0.46475137 kcal mol^-1

    Dispersion             -11.51985207 mH      -7.22881661 kcal mol^-1
      Disp20               -12.12791533 mH      -7.61038208 kcal mol^-1
      Disp21                 1.27504280 mH       0.80010147 kcal mol^-1
      Disp22 (SDQ)           0.16893422 mH       0.10600783 kcal mol^-1
      Disp22 (T)            -2.07797533 mH      -1.30394926 kcal mol^-1
      Exch-Disp20            1.24206156 mH       0.77940543 kcal mol^-1

    Total HF                 5.80092925 mH       3.64013821 kcal mol^-1
    Total SAPT0             -5.08492451 mH      -3.19083844 kcal mol^-1
    Total SAPT2             -4.50120352 mH      -2.82454797 kcal mol^-1
    Total SAPT2+            -5.13520183 mH      -3.22238793 kcal mol^-1

*** tstop() called on node32.bme.utexas.edu at Wed Nov 13 14:53:05 2013
Module time:
	user time   = 2665644.54 seconds =   44427.41 minutes
	system time =    4925.20 seconds =      82.09 minutes
	total time  =     436085 seconds =    7268.08 minutes
Total time:
	user time   = 2673214.49 seconds =   44553.57 minutes
	system time =    5006.56 seconds =      83.44 minutes
	total time  =     437218 seconds =    7286.97 minutes

*** PSI4 exiting successfully. Buy a developer a beer!
