    -----------------------------------------------------------------------
          PSI4: An Open-Source Ab Initio Electronic Structure Package
                              PSI 4.0.0-beta4 Driver

    J. M. Turney, A. C. Simmonett, R. M. Parrish, E. G. Hohenstein,
    F. A. Evangelista, J. T. Fermann, B. J. Mintz, L. A. Burns, J. J. Wilke,
    M. L. Abrams, N. J. Russ, M. L. Leininger, C. L. Janssen, E. T. Seidl,
    W. D. Allen, H. F. Schaefer, R. A. King, E. F. Valeev, C. D. Sherrill,
    and T. D. Crawford, WIREs Comput. Mol. Sci., (2011) (doi: 10.1002/wcms.93)

                         Additional Contributions by
    A. E. DePrince, M. Saitow, U. Bozkaya, A. Yu. Sokolov
    -----------------------------------------------------------------------

    Process ID:  40744
    PSI4DATADIR: /home/xzhu216/psi4/psi4-install/share/psi

    Using LocalCommunicator (Number of processes = 1)

    Memory level set to 256.000 MB

  ==> Input File <==

--------------------------------------------------------------------------
#psi4
#
memory 15 gb

molecule MeNH2_Pyridine {
0 1
N   -0.541059198   0.029576202  -0.208995077
H    0.055553351  -0.786118099  -0.130293346
H   -1.469669404  -0.274708452   0.053143382
C   -0.078799266   1.042390365   0.738458862
H   -0.720152936   1.919413767   0.671980262
H   -0.050758189   0.723822930   1.785514529
H    0.926430724   1.356603792   0.461999188
--
0 1
N    2.358641048  -1.260256845   0.031331334
C    2.697077364  -0.447912780  -0.980381142
H    2.154410145  -0.592450761  -1.905762501
C    3.668406626   0.544221015  -0.880014138
H    3.893259066   1.168561302  -1.732864831
C    4.329246693   0.713762453   0.332250300
H    5.087100638   1.475999789   0.448634429
C    3.989113784  -0.121200072   1.391373253
H    4.471702190  -0.030737833   2.354073907
C    3.005332219  -1.085989080   1.192189872
H    2.719247889  -1.749736688   1.998800529
units angstrom
no_reorient  #important for SAPT in psi4, default
symmetry c1  #important for SAPT in psi4, default
}

set {
basis aug-cc-pVTZ
scf_type DF
freeze_core True
}
energy('sapt2+')
--------------------------------------------------------------------------

  Memory set to  15.000 GiB by Python script.

  //>>>>>>>>>>>>>>>>>>>>>>>>>>>>>>>>>>>//
  //              Dimer HF             //
  //<<<<<<<<<<<<<<<<<<<<<<<<<<<<<<<<<<<//


  No DF_BASIS_SCF auxiliary basis selected, defaulting to aug-cc-pvtz-jkfit


*** tstart() called on genome.bme.utexas.edu
*** at Thu Oct  3 15:00:42 2013


         ---------------------------------------------------------
                                   SCF
            by Justin Turney, Rob Parrish, and Andy Simmonett
                              RHF Reference
                        4 Threads,  15000 MiB Core
         ---------------------------------------------------------

  ==> Geometry <==

    Molecular point group: c1
    Full point group: C1

    Geometry (in Angstrom), charge = 0, multiplicity = 1:

       Center              X                  Y                   Z       
    ------------   -----------------  -----------------  -----------------
           N         -2.848170290127     0.086389667112    -0.418609268104
           H         -2.251557741127    -0.729304633888    -0.339907537104
           H         -3.776780496127    -0.217894986888    -0.156470809104
           C         -2.385910358127     1.099203830112     0.528844670896
           H         -3.027264028127     1.976227232112     0.462366070896
           H         -2.357869281127     0.780636395112     1.575900337896
           H         -1.380680368127     1.413417257112     0.252384996896
           N          0.051529955873    -1.203443379888    -0.178282857104
           C          0.389966271873    -0.391099314888    -1.189995333104
           H         -0.152700947127    -0.535637295888    -2.115376692104
           C          1.361295533873     0.601034480112    -1.089628329104
           H          1.586147973873     1.225374767112    -1.942479022104
           C          2.022135600873     0.770575918112     0.122636108896
           H          2.779989545873     1.532813254112     0.239020237896
           C          1.682002691873    -0.064386606888     1.181759061896
           H          2.164591097873     0.026075632112     2.144459715896
           C          0.698221126873    -1.029175614888     0.982575680896
           H          0.412136796873    -1.692923222888     1.789186337896

  Running in c1 symmetry.

  Nuclear repulsion =  348.695800670303754

  Charge       = 0
  Multiplicity = 1
  Electrons    = 60
  Nalpha       = 30
  Nbeta        = 30

  ==> Algorithm <==

  SCF Algorithm Type is DF.
  DIIS enabled.
  MOM disabled.
  Fractional occupation disabled.
  Guess Type is CORE.
  Energy threshold   = 1.00e-08
  Density threshold  = 1.00e-08
  Integral threshold = 0.00e+00

  ==> Primary Basis <==

  Basis Set: AUG-CC-PVTZ
    Number of shells: 202
    Number of basis function: 598
    Number of Cartesian functions: 690
    Spherical Harmonics?: true
    Max angular momentum: 3

  ==> Pre-Iterations <==

   -------------------------------------------------------
    Irrep   Nso     Nmo     Nalpha   Nbeta   Ndocc  Nsocc
   -------------------------------------------------------
     A        598     598       0       0       0       0
   -------------------------------------------------------
    Total     598     598      30      30      30       0
   -------------------------------------------------------

 OEINTS: Wrapper to libmints.
   by Justin Turney

   Calculation information:
      Number of atoms:                  18
      Number of AO shells:             202
      Number of SO shells:             202
      Number of primitives:            350
      Number of atomic orbitals:       690
      Number of basis functions:       598

      Number of irreps:                  1
      Number of functions per irrep: [ 598 ]

      Overlap, kinetic, potential, dipole, and quadrupole integrals
        stored in file 35.

  ==> Integral Setup <==

  ==> DFJK: Density-Fitted J/K Matrices <==

    J tasked:                  Yes
    K tasked:                  Yes
    wK tasked:                  No
    OpenMP threads:              4
    Integrals threads:           4
    Memory (MB):             10728
    Algorithm:                Core
    Integral Cache:           SAVE
    Schwarz Cutoff:          0E+00
    Fitting Condition:       1E-12

   => Auxiliary Basis Set <=

  Basis Set: aug-cc-pvtz-jkfit
    Number of shells: 380
    Number of basis function: 1292
    Number of Cartesian functions: 1598
    Spherical Harmonics?: true
    Max angular momentum: 4

  Minimum eigenvalue in the overlap matrix is 1.9048971680E-06.
  Using Symmetric Orthogonalization.
  SCF Guess: Core (One-Electron) Hamiltonian.

  Guess energy:  -282.27067795886438

  ==> Iterations <==

                        Total Energy        Delta E     RMS |[F,P]|

   @RHF iter   1:  -196.16842056398440   -1.96168e+02   2.47429e-02 
   @RHF iter   2:   -69.34291715623255    1.26826e+02   3.01110e-02 DIIS
   @RHF iter   3:  -232.43983507542379   -1.63097e+02   1.32401e-02 DIIS
   @RHF iter   4:  -228.66581616772254    3.77402e+00   1.82463e-02 DIIS
   @RHF iter   5:  -305.98999158784198   -7.73242e+01   9.62330e-03 DIIS
   @RHF iter   6:  -336.57671016376577   -3.05867e+01   4.93921e-03 DIIS
   @RHF iter   7:  -340.69695169834080   -4.12024e+00   2.47487e-03 DIIS
   @RHF iter   8:  -341.86260125473456   -1.16565e+00   7.70426e-04 DIIS
   @RHF iter   9:  -342.00505891816550   -1.42458e-01   3.01262e-04 DIIS
   @RHF iter  10:  -342.03169036695948   -2.66314e-02   6.82470e-05 DIIS
   @RHF iter  11:  -342.03314726295815   -1.45690e-03   3.09368e-05 DIIS
   @RHF iter  12:  -342.03346504404652   -3.17781e-04   1.53416e-05 DIIS
   @RHF iter  13:  -342.03357194166466   -1.06898e-04   5.51834e-06 DIIS
   @RHF iter  14:  -342.03359132756026   -1.93859e-05   2.39835e-06 DIIS
   @RHF iter  15:  -342.03359572791106   -4.40035e-06   1.19879e-06 DIIS
   @RHF iter  16:  -342.03359687729363   -1.14938e-06   4.34721e-07 DIIS
   @RHF iter  17:  -342.03359703087557   -1.53582e-07   1.17750e-07 DIIS
   @RHF iter  18:  -342.03359703720531   -6.32974e-09   3.80153e-08 DIIS
   @RHF iter  19:  -342.03359703775146   -5.46152e-10   1.11952e-08 DIIS
   @RHF iter  20:  -342.03359703780126   -4.97948e-11   4.63252e-09 DIIS

  ==> Post-Iterations <==

	Orbital Energies (a.u.)
	-----------------------

	Doubly Occupied:                                                      

	   1A    -15.570656     2A    -15.522705     3A    -11.279726  
	   4A    -11.277610     5A    -11.263933     6A    -11.245467  
	   7A    -11.244441     8A    -11.227733     9A     -1.261337  
	  10A     -1.156090    11A     -1.093494    12A     -1.037291  
	  13A     -0.882568    14A     -0.862834    15A     -0.859603  
	  16A     -0.725830    17A     -0.664403    18A     -0.657190  
	  19A     -0.650229    20A     -0.601588    21A     -0.591277  
	  22A     -0.580571    23A     -0.547985    24A     -0.537569  
	  25A     -0.523131    26A     -0.502766    27A     -0.425141  
	  28A     -0.388487    29A     -0.378656    30A     -0.350969  

	Virtual:                                                              

	  31A      0.025117    32A      0.032637    33A      0.035834  
	  34A      0.042672    35A      0.048574    36A      0.049412  
	  37A      0.057708    38A      0.060875    39A      0.069333  
	  40A      0.082313    41A      0.090092    42A      0.094994  
	  43A      0.098141    44A      0.105913    45A      0.107018  
	  46A      0.111565    47A      0.115860    48A      0.119227  
	  49A      0.122560    50A      0.128195    51A      0.131955  
	  52A      0.137489    53A      0.144595    54A      0.146250  
	  55A      0.148385    56A      0.153185    57A      0.154223  
	  58A      0.158741    59A      0.161490    60A      0.164382  
	  61A      0.174689    62A      0.178751    63A      0.184239  
	  64A      0.188076    65A      0.210395    66A      0.221161  
	  67A      0.236525    68A      0.238989    69A      0.245960  
	  70A      0.246612    71A      0.259094    72A      0.260155  
	  73A      0.270189    74A      0.275209    75A      0.281164  
	  76A      0.282873    77A      0.292396    78A      0.293784  
	  79A      0.299429    80A      0.309609    81A      0.312267  
	  82A      0.317502    83A      0.324548    84A      0.328822  
	  85A      0.333194    86A      0.335719    87A      0.342553  
	  88A      0.345842    89A      0.348167    90A      0.351384  
	  91A      0.355456    92A      0.363072    93A      0.368846  
	  94A      0.372579    95A      0.377478    96A      0.391145  
	  97A      0.396681    98A      0.400397    99A      0.409632  
	 100A      0.416647   101A      0.420645   102A      0.422917  
	 103A      0.426796   104A      0.431750   105A      0.439135  
	 106A      0.441456   107A      0.444982   108A      0.448145  
	 109A      0.450433   110A      0.461468   111A      0.465849  
	 112A      0.474615   113A      0.477044   114A      0.479560  
	 115A      0.481811   116A      0.485128   117A      0.490817  
	 118A      0.493382   119A      0.497017   120A      0.501722  
	 121A      0.511573   122A      0.516889   123A      0.523783  
	 124A      0.524210   125A      0.531722   126A      0.535404  
	 127A      0.538455   128A      0.540471   129A      0.552888  
	 130A      0.557666   131A      0.561482   132A      0.571271  
	 133A      0.578366   134A      0.585957   135A      0.593109  
	 136A      0.603365   137A      0.608158   138A      0.617685  
	 139A      0.626079   140A      0.633592   141A      0.636722  
	 142A      0.639429   143A      0.642981   144A      0.659760  
	 145A      0.663040   146A      0.667440   147A      0.683522  
	 148A      0.693144   149A      0.696202   150A      0.705546  
	 151A      0.712565   152A      0.719194   153A      0.732508  
	 154A      0.737848   155A      0.744952   156A      0.757245  
	 157A      0.760447   158A      0.773976   159A      0.777988  
	 160A      0.786551   161A      0.794595   162A      0.803944  
	 163A      0.811493   164A      0.817918   165A      0.822418  
	 166A      0.835897   167A      0.838438   168A      0.845945  
	 169A      0.853977   170A      0.861749   171A      0.866576  
	 172A      0.872358   173A      0.881885   174A      0.884861  
	 175A      0.885718   176A      0.894834   177A      0.898065  
	 178A      0.906771   179A      0.918878   180A      0.926495  
	 181A      0.939418   182A      0.940058   183A      0.944097  
	 184A      0.949640   185A      0.956840   186A      0.959952  
	 187A      0.965149   188A      0.970048   189A      0.983914  
	 190A      0.985710   191A      0.995637   192A      1.005347  
	 193A      1.008414   194A      1.017747   195A      1.028799  
	 196A      1.034203   197A      1.038864   198A      1.041762  
	 199A      1.052793   200A      1.057249   201A      1.065183  
	 202A      1.070221   203A      1.080024   204A      1.080640  
	 205A      1.084896   206A      1.092177   207A      1.094657  
	 208A      1.100436   209A      1.104743   210A      1.106888  
	 211A      1.117061   212A      1.129647   213A      1.135861  
	 214A      1.144192   215A      1.148601   216A      1.162111  
	 217A      1.165926   218A      1.169749   219A      1.174716  
	 220A      1.182195   221A      1.190257   222A      1.196803  
	 223A      1.200131   224A      1.202566   225A      1.208186  
	 226A      1.221711   227A      1.224431   228A      1.229612  
	 229A      1.234026   230A      1.238555   231A      1.250291  
	 232A      1.252665   233A      1.259532   234A      1.272636  
	 235A      1.278096   236A      1.292413   237A      1.297466  
	 238A      1.301468   239A      1.314772   240A      1.317520  
	 241A      1.324715   242A      1.329991   243A      1.338545  
	 244A      1.344984   245A      1.357607   246A      1.361717  
	 247A      1.379458   248A      1.383084   249A      1.390015  
	 250A      1.404855   251A      1.413509   252A      1.423413  
	 253A      1.430180   254A      1.438651   255A      1.445811  
	 256A      1.453047   257A      1.464740   258A      1.481049  
	 259A      1.490037   260A      1.504441   261A      1.509018  
	 262A      1.514830   263A      1.532146   264A      1.536202  
	 265A      1.544923   266A      1.557111   267A      1.564694  
	 268A      1.575028   269A      1.580055   270A      1.593870  
	 271A      1.599875   272A      1.608656   273A      1.622270  
	 274A      1.631702   275A      1.638564   276A      1.675480  
	 277A      1.684631   278A      1.696631   279A      1.710049  
	 280A      1.711082   281A      1.720524   282A      1.726122  
	 283A      1.732941   284A      1.736625   285A      1.743559  
	 286A      1.746202   287A      1.763936   288A      1.770543  
	 289A      1.782842   290A      1.789114   291A      1.800317  
	 292A      1.813312   293A      1.824184   294A      1.838667  
	 295A      1.844553   296A      1.859157   297A      1.861360  
	 298A      1.866386   299A      1.882008   300A      1.888499  
	 301A      1.899689   302A      1.908581   303A      1.912098  
	 304A      1.936082   305A      1.946196   306A      1.955028  
	 307A      1.965974   308A      1.989388   309A      1.999537  
	 310A      2.007243   311A      2.025083   312A      2.030993  
	 313A      2.033754   314A      2.035822   315A      2.037991  
	 316A      2.065676   317A      2.067479   318A      2.073773  
	 319A      2.079762   320A      2.084929   321A      2.111065  
	 322A      2.114225   323A      2.130690   324A      2.139754  
	 325A      2.149357   326A      2.168610   327A      2.171986  
	 328A      2.182001   329A      2.186489   330A      2.201300  
	 331A      2.221851   332A      2.233034   333A      2.240202  
	 334A      2.265002   335A      2.267871   336A      2.280082  
	 337A      2.291837   338A      2.298360   339A      2.310996  
	 340A      2.328452   341A      2.331273   342A      2.350588  
	 343A      2.372679   344A      2.395001   345A      2.405223  
	 346A      2.413995   347A      2.419257   348A      2.434118  
	 349A      2.442487   350A      2.450296   351A      2.471654  
	 352A      2.493271   353A      2.498342   354A      2.511532  
	 355A      2.514809   356A      2.542427   357A      2.555113  
	 358A      2.573388   359A      2.590883   360A      2.609198  
	 361A      2.640682   362A      2.645951   363A      2.682233  
	 364A      2.685515   365A      2.694209   366A      2.697549  
	 367A      2.725789   368A      2.735095   369A      2.779693  
	 370A      2.817681   371A      2.841656   372A      2.867824  
	 373A      2.887711   374A      2.960922   375A      3.001940  
	 376A      3.035116   377A      3.045047   378A      3.076956  
	 379A      3.098928   380A      3.134783   381A      3.189832  
	 382A      3.205589   383A      3.220545   384A      3.261674  
	 385A      3.309854   386A      3.329455   387A      3.340895  
	 388A      3.360028   389A      3.385589   390A      3.389618  
	 391A      3.419811   392A      3.429219   393A      3.441722  
	 394A      3.444199   395A      3.454695   396A      3.478446  
	 397A      3.488116   398A      3.490943   399A      3.499092  
	 400A      3.521238   401A      3.545585   402A      3.554053  
	 403A      3.559842   404A      3.579942   405A      3.589272  
	 406A      3.614498   407A      3.623056   408A      3.648735  
	 409A      3.673701   410A      3.678177   411A      3.694050  
	 412A      3.708524   413A      3.711122   414A      3.719520  
	 415A      3.732589   416A      3.751206   417A      3.767255  
	 418A      3.784017   419A      3.794778   420A      3.812142  
	 421A      3.817570   422A      3.827110   423A      3.836731  
	 424A      3.857015   425A      3.867037   426A      3.886410  
	 427A      3.892485   428A      3.907504   429A      3.923559  
	 430A      3.938352   431A      3.943092   432A      3.951853  
	 433A      3.966472   434A      3.980633   435A      3.989220  
	 436A      4.004866   437A      4.016113   438A      4.035230  
	 439A      4.044698   440A      4.059861   441A      4.064064  
	 442A      4.068770   443A      4.076125   444A      4.094160  
	 445A      4.110315   446A      4.119233   447A      4.127143  
	 448A      4.144907   449A      4.149020   450A      4.156132  
	 451A      4.163056   452A      4.166242   453A      4.186451  
	 454A      4.196779   455A      4.213805   456A      4.223988  
	 457A      4.232087   458A      4.257986   459A      4.267998  
	 460A      4.273889   461A      4.277329   462A      4.305925  
	 463A      4.311772   464A      4.322223   465A      4.352145  
	 466A      4.366000   467A      4.379766   468A      4.385367  
	 469A      4.404512   470A      4.415148   471A      4.423082  
	 472A      4.433707   473A      4.461083   474A      4.470369  
	 475A      4.484458   476A      4.488432   477A      4.503655  
	 478A      4.521624   479A      4.534900   480A      4.551744  
	 481A      4.573516   482A      4.584694   483A      4.605248  
	 484A      4.646673   485A      4.661918   486A      4.675658  
	 487A      4.687307   488A      4.693911   489A      4.708107  
	 490A      4.740340   491A      4.762858   492A      4.774213  
	 493A      4.796100   494A      4.799903   495A      4.842155  
	 496A      4.851276   497A      4.875579   498A      4.882885  
	 499A      4.890676   500A      4.902720   501A      4.910951  
	 502A      4.932713   503A      4.950305   504A      4.963638  
	 505A      4.980514   506A      4.987361   507A      5.007109  
	 508A      5.035052   509A      5.042858   510A      5.051898  
	 511A      5.070645   512A      5.087337   513A      5.092694  
	 514A      5.109171   515A      5.117702   516A      5.120586  
	 517A      5.135638   518A      5.146271   519A      5.163369  
	 520A      5.178404   521A      5.214334   522A      5.218456  
	 523A      5.225655   524A      5.231602   525A      5.239168  
	 526A      5.253852   527A      5.284579   528A      5.296772  
	 529A      5.320377   530A      5.357748   531A      5.407967  
	 532A      5.414049   533A      5.432678   534A      5.448084  
	 535A      5.452134   536A      5.458821   537A      5.498700  
	 538A      5.511833   539A      5.534091   540A      5.552222  
	 541A      5.582715   542A      5.587260   543A      5.613327  
	 544A      5.621786   545A      5.633104   546A      5.652961  
	 547A      5.664672   548A      5.788967   549A      5.811268  
	 550A      5.840893   551A      5.842288   552A      5.863458  
	 553A      5.882726   554A      5.909144   555A      5.917301  
	 556A      5.946349   557A      5.972946   558A      6.002760  
	 559A      6.014919   560A      6.055033   561A      6.095876  
	 562A      6.116911   563A      6.170615   564A      6.177461  
	 565A      6.196726   566A      6.223223   567A      6.232275  
	 568A      6.268173   569A      6.313175   570A      6.319455  
	 571A      6.452630   572A      6.470397   573A      6.535460  
	 574A      6.614631   575A      6.645307   576A      6.681732  
	 577A      6.706102   578A      6.724098   579A      6.752767  
	 580A      6.768830   581A      6.851123   582A      6.855544  
	 583A      6.899771   584A      6.945482   585A      7.090904  
	 586A      7.095933   587A      7.134870   588A      7.199076  
	 589A      7.494754   590A      7.877351   591A     15.630450  
	 592A     16.362024   593A     17.278153   594A     18.394253  
	 595A     18.581767   596A     19.019862   597A     19.496014  
	 598A     19.653813  

	Final Occupation by Irrep:
	          A 
	DOCC [    30 ]

  Energy converged.

  @RHF Final Energy:  -342.03359703780126

   => Energetics <=

    Nuclear Repulsion Energy =            348.6958006703037540
    One-Electron Energy =               -1153.6362443572131724
    Two-Electron Energy =                 462.9068466491092977
    DFT Exchange-Correlation Energy =       0.0000000000000000
    Empirical Dispersion Energy =           0.0000000000000000
    Total Energy =                       -342.0335970378001775



Properties will be evaluated at   0.000000,   0.000000,   0.000000 Bohr
  ==> Properties <==


Properties computed using the SCF density density matrix
  Nuclear Dipole Moment: (a.u.)
     X:    -5.6204      Y:     3.5457      Z:     1.7914

  Electronic Dipole Moment: (a.u.)
     X:     6.3675      Y:    -3.1588      Z:    -1.2243

  Dipole Moment: (a.u.)
     X:     0.7471      Y:     0.3869      Z:     0.5671     Total:     1.0147

  Dipole Moment: (Debye)
     X:     1.8990      Y:     0.9835      Z:     1.4415     Total:     2.5790


  Saving occupied orbitals to File 180.

  Saving SAPT 2-DIMER file.

*** tstop() called on genome.bme.utexas.edu at Thu Oct  3 15:04:14 2013
Module time:
	user time   =     736.81 seconds =      12.28 minutes
	system time =       9.95 seconds =       0.17 minutes
	total time  =        212 seconds =       3.53 minutes
Total time:
	user time   =     736.81 seconds =      12.28 minutes
	system time =       9.95 seconds =       0.17 minutes
	total time  =        212 seconds =       3.53 minutes

  //>>>>>>>>>>>>>>>>>>>>>>>>>>>>>>>>>>>//
  //            Monomer A HF           //
  //<<<<<<<<<<<<<<<<<<<<<<<<<<<<<<<<<<<//


  No DF_BASIS_SCF auxiliary basis selected, defaulting to aug-cc-pvtz-jkfit


*** tstart() called on genome.bme.utexas.edu
*** at Thu Oct  3 15:04:14 2013


         ---------------------------------------------------------
                                   SCF
            by Justin Turney, Rob Parrish, and Andy Simmonett
                              RHF Reference
                        4 Threads,  15000 MiB Core
         ---------------------------------------------------------

  ==> Geometry <==

    Molecular point group: c1
    Full point group: C1

    Geometry (in Angstrom), charge = 0, multiplicity = 1:

       Center              X                  Y                   Z       
    ------------   -----------------  -----------------  -----------------
           N         -2.848170290127     0.086389667112    -0.418609268104
           H         -2.251557741127    -0.729304633888    -0.339907537104
           H         -3.776780496127    -0.217894986888    -0.156470809104
           C         -2.385910358127     1.099203830112     0.528844670896
           H         -3.027264028127     1.976227232112     0.462366070896
           H         -2.357869281127     0.780636395112     1.575900337896
           H         -1.380680368127     1.413417257112     0.252384996896
           N(Gh)      0.051529955873    -1.203443379888    -0.178282857104
           C(Gh)      0.389966271873    -0.391099314888    -1.189995333104
           H(Gh)     -0.152700947127    -0.535637295888    -2.115376692104
           C(Gh)      1.361295533873     0.601034480112    -1.089628329104
           H(Gh)      1.586147973873     1.225374767112    -1.942479022104
           C(Gh)      2.022135600873     0.770575918112     0.122636108896
           H(Gh)      2.779989545873     1.532813254112     0.239020237896
           C(Gh)      1.682002691873    -0.064386606888     1.181759061896
           H(Gh)      2.164591097873     0.026075632112     2.144459715896
           C(Gh)      0.698221126873    -1.029175614888     0.982575680896
           H(Gh)      0.412136796873    -1.692923222888     1.789186337896

  Running in c1 symmetry.

  Nuclear repulsion =   42.093764688918363

  Charge       = 0
  Multiplicity = 1
  Electrons    = 18
  Nalpha       = 9
  Nbeta        = 9

  ==> Algorithm <==

  SCF Algorithm Type is DF.
  DIIS enabled.
  MOM disabled.
  Fractional occupation disabled.
  Guess Type is CORE.
  Energy threshold   = 1.00e-08
  Density threshold  = 1.00e-08
  Integral threshold = 0.00e+00

  ==> Primary Basis <==

  Basis Set: AUG-CC-PVTZ
    Number of shells: 202
    Number of basis function: 598
    Number of Cartesian functions: 690
    Spherical Harmonics?: true
    Max angular momentum: 3

  ==> Pre-Iterations <==

   -------------------------------------------------------
    Irrep   Nso     Nmo     Nalpha   Nbeta   Ndocc  Nsocc
   -------------------------------------------------------
     A        598     598       0       0       0       0
   -------------------------------------------------------
    Total     598     598       9       9       9       0
   -------------------------------------------------------

 OEINTS: Wrapper to libmints.
   by Justin Turney

   Calculation information:
      Number of atoms:                  18
      Number of AO shells:             202
      Number of SO shells:             202
      Number of primitives:            350
      Number of atomic orbitals:       690
      Number of basis functions:       598

      Number of irreps:                  1
      Number of functions per irrep: [ 598 ]

      Overlap, kinetic, potential, dipole, and quadrupole integrals
        stored in file 35.

  ==> Integral Setup <==

  ==> DFJK: Density-Fitted J/K Matrices <==

    J tasked:                  Yes
    K tasked:                  Yes
    wK tasked:                  No
    OpenMP threads:              4
    Integrals threads:           4
    Memory (MB):             10728
    Algorithm:                Core
    Integral Cache:           LOAD
    Schwarz Cutoff:          0E+00
    Fitting Condition:       1E-12

   => Auxiliary Basis Set <=

  Basis Set: aug-cc-pvtz-jkfit
    Number of shells: 380
    Number of basis function: 1292
    Number of Cartesian functions: 1598
    Spherical Harmonics?: true
    Max angular momentum: 4

  Minimum eigenvalue in the overlap matrix is 1.9048971679E-06.
  Using Symmetric Orthogonalization.
  SCF Guess: Core (One-Electron) Hamiltonian.

  Guess energy:   -76.56899013160449

  ==> Iterations <==

                        Total Energy        Delta E     RMS |[F,P]|

   @RHF iter   1:   -69.65188795208391   -6.96519e+01   1.46218e-02 
   @RHF iter   2:   -70.84858152674039   -1.19669e+00   5.25414e-03 DIIS
   @RHF iter   3:   -87.33449468993248   -1.64859e+01   7.03616e-03 DIIS
   @RHF iter   4:   -92.50260521892872   -5.16811e+00   4.04517e-03 DIIS
   @RHF iter   5:   -94.60443882945924   -2.10183e+00   1.87060e-03 DIIS
   @RHF iter   6:   -95.22932544586502   -6.24887e-01   3.31577e-04 DIIS
   @RHF iter   7:   -95.25276108622623   -2.34356e-02   1.06731e-04 DIIS
   @RHF iter   8:   -95.25529775105025   -2.53666e-03   1.56697e-05 DIIS
   @RHF iter   9:   -95.25536720831280   -6.94573e-05   4.21188e-06 DIIS
   @RHF iter  10:   -95.25537486508156   -7.65677e-06   8.92979e-07 DIIS
   @RHF iter  11:   -95.25537525120359   -3.86122e-07   1.75188e-07 DIIS
   @RHF iter  12:   -95.25537526838013   -1.71765e-08   3.14555e-08 DIIS
   @RHF iter  13:   -95.25537526898503   -6.04899e-10   9.06924e-09 DIIS

  ==> Post-Iterations <==

	Orbital Energies (a.u.)
	-----------------------

	Doubly Occupied:                                                      

	   1A    -15.540608     2A    -11.240393     3A     -1.171838  
	   4A     -0.895545     5A     -0.662992     6A     -0.604164  
	   7A     -0.555040     8A     -0.516435     9A     -0.394061  

	Virtual:                                                              

	  10A      0.019028    11A      0.030387    12A      0.033599  
	  13A      0.037438    14A      0.048205    15A      0.049505  
	  16A      0.055494    17A      0.058413    18A      0.064612  
	  19A      0.074416    20A      0.081884    21A      0.090401  
	  22A      0.094454    23A      0.097262    24A      0.103619  
	  25A      0.110918    26A      0.112107    27A      0.121358  
	  28A      0.123423    29A      0.129562    30A      0.133595  
	  31A      0.136520    32A      0.140297    33A      0.147387  
	  34A      0.156240    35A      0.157492    36A      0.158201  
	  37A      0.160231    38A      0.168519    39A      0.171531  
	  40A      0.173422    41A      0.175940    42A      0.187416  
	  43A      0.191767    44A      0.196634    45A      0.205668  
	  46A      0.212737    47A      0.230083    48A      0.237814  
	  49A      0.245182    50A      0.252288    51A      0.260076  
	  52A      0.268528    53A      0.278110    54A      0.281150  
	  55A      0.287019    56A      0.288800    57A      0.295838  
	  58A      0.302757    59A      0.306434    60A      0.314396  
	  61A      0.318134    62A      0.323811    63A      0.329324  
	  64A      0.337417    65A      0.339820    66A      0.345031  
	  67A      0.352107    68A      0.354577    69A      0.360691  
	  70A      0.364917    71A      0.369800    72A      0.372820  
	  73A      0.381603    74A      0.386385    75A      0.387808  
	  76A      0.391364    77A      0.397796    78A      0.399644  
	  79A      0.404898    80A      0.413098    81A      0.417815  
	  82A      0.422560    83A      0.427361    84A      0.434402  
	  85A      0.438898    86A      0.444572    87A      0.447408  
	  88A      0.448239    89A      0.451526    90A      0.455860  
	  91A      0.465507    92A      0.473391    93A      0.478946  
	  94A      0.482928    95A      0.489443    96A      0.496215  
	  97A      0.504457    98A      0.505397    99A      0.518941  
	 100A      0.526610   101A      0.530125   102A      0.535953  
	 103A      0.547195   104A      0.547715   105A      0.551871  
	 106A      0.565724   107A      0.570125   108A      0.575317  
	 109A      0.579474   110A      0.587384   111A      0.595720  
	 112A      0.599293   113A      0.608393   114A      0.617472  
	 115A      0.622391   116A      0.632707   117A      0.636154  
	 118A      0.642076   119A      0.651395   120A      0.657976  
	 121A      0.669748   122A      0.670963   123A      0.679391  
	 124A      0.683467   125A      0.686043   126A      0.696484  
	 127A      0.700003   128A      0.708193   129A      0.714746  
	 130A      0.720831   131A      0.725006   132A      0.737076  
	 133A      0.741714   134A      0.750337   135A      0.754500  
	 136A      0.766936   137A      0.771968   138A      0.778751  
	 139A      0.788823   140A      0.793997   141A      0.805359  
	 142A      0.814956   143A      0.823493   144A      0.832249  
	 145A      0.833084   146A      0.846285   147A      0.848663  
	 148A      0.865426   149A      0.877272   150A      0.881669  
	 151A      0.886333   152A      0.898701   153A      0.904991  
	 154A      0.912827   155A      0.921278   156A      0.926175  
	 157A      0.929687   158A      0.936432   159A      0.945013  
	 160A      0.952687   161A      0.959160   162A      0.979593  
	 163A      0.986985   164A      0.992623   165A      0.996581  
	 166A      1.005769   167A      1.016469   168A      1.025975  
	 169A      1.031313   170A      1.039006   171A      1.050614  
	 172A      1.059224   173A      1.062876   174A      1.068727  
	 175A      1.073002   176A      1.079436   177A      1.091242  
	 178A      1.093610   179A      1.102044   180A      1.104524  
	 181A      1.111209   182A      1.122034   183A      1.125726  
	 184A      1.134965   185A      1.141088   186A      1.149142  
	 187A      1.161912   188A      1.167376   189A      1.169049  
	 190A      1.171646   191A      1.182823   192A      1.185839  
	 193A      1.190991   194A      1.196454   195A      1.201204  
	 196A      1.208953   197A      1.213999   198A      1.225771  
	 199A      1.230233   200A      1.236165   201A      1.251857  
	 202A      1.257847   203A      1.260754   204A      1.265218  
	 205A      1.274645   206A      1.286469   207A      1.287608  
	 208A      1.299416   209A      1.303440   210A      1.309043  
	 211A      1.314379   212A      1.321615   213A      1.328025  
	 214A      1.336900   215A      1.348342   216A      1.351893  
	 217A      1.359547   218A      1.364202   219A      1.372149  
	 220A      1.376236   221A      1.389951   222A      1.398899  
	 223A      1.409395   224A      1.414844   225A      1.425041  
	 226A      1.438474   227A      1.445207   228A      1.454132  
	 229A      1.461096   230A      1.462616   231A      1.481898  
	 232A      1.494208   233A      1.501939   234A      1.507348  
	 235A      1.516476   236A      1.521504   237A      1.522303  
	 238A      1.533235   239A      1.545490   240A      1.553857  
	 241A      1.556031   242A      1.571450   243A      1.575256  
	 244A      1.577781   245A      1.590441   246A      1.596850  
	 247A      1.611693   248A      1.617393   249A      1.631539  
	 250A      1.640681   251A      1.653443   252A      1.668660  
	 253A      1.674588   254A      1.684329   255A      1.688316  
	 256A      1.695731   257A      1.701732   258A      1.709535  
	 259A      1.724634   260A      1.727805   261A      1.738002  
	 262A      1.762048   263A      1.764273   264A      1.778762  
	 265A      1.791608   266A      1.813808   267A      1.835915  
	 268A      1.839829   269A      1.847555   270A      1.855203  
	 271A      1.865872   272A      1.885754   273A      1.887088  
	 274A      1.904132   275A      1.911151   276A      1.925058  
	 277A      1.930965   278A      1.939123   279A      1.976293  
	 280A      1.984638   281A      1.996617   282A      1.999449  
	 283A      2.013511   284A      2.025731   285A      2.028400  
	 286A      2.054568   287A      2.058656   288A      2.068839  
	 289A      2.080737   290A      2.093872   291A      2.108732  
	 292A      2.116050   293A      2.126711   294A      2.141948  
	 295A      2.150108   296A      2.167877   297A      2.177986  
	 298A      2.182802   299A      2.192629   300A      2.199145  
	 301A      2.204139   302A      2.213566   303A      2.231018  
	 304A      2.237373   305A      2.248000   306A      2.266572  
	 307A      2.277988   308A      2.284093   309A      2.294577  
	 310A      2.299029   311A      2.319139   312A      2.327230  
	 313A      2.335018   314A      2.339315   315A      2.352677  
	 316A      2.360817   317A      2.377538   318A      2.381765  
	 319A      2.391899   320A      2.403399   321A      2.425425  
	 322A      2.429723   323A      2.435638   324A      2.455373  
	 325A      2.459214   326A      2.481709   327A      2.486768  
	 328A      2.497147   329A      2.504700   330A      2.517956  
	 331A      2.532453   332A      2.542649   333A      2.557282  
	 334A      2.565006   335A      2.582426   336A      2.587643  
	 337A      2.598786   338A      2.606912   339A      2.619176  
	 340A      2.631578   341A      2.644402   342A      2.657547  
	 343A      2.671906   344A      2.686260   345A      2.714710  
	 346A      2.721728   347A      2.733581   348A      2.764242  
	 349A      2.786721   350A      2.810060   351A      2.832738  
	 352A      2.866364   353A      2.902604   354A      2.952376  
	 355A      2.965531   356A      2.981589   357A      2.988014  
	 358A      2.997044   359A      3.029830   360A      3.076523  
	 361A      3.104886   362A      3.172321   363A      3.233540  
	 364A      3.288771   365A      3.304845   366A      3.330426  
	 367A      3.386550   368A      3.426855   369A      3.451089  
	 370A      3.463251   371A      3.486122   372A      3.488453  
	 373A      3.573869   374A      3.650454   375A      3.659266  
	 376A      3.665705   377A      3.676339   378A      3.702897  
	 379A      3.720715   380A      3.767456   381A      3.786431  
	 382A      3.794502   383A      3.857949   384A      3.889852  
	 385A      3.908366   386A      3.947263   387A      3.954438  
	 388A      3.960829   389A      3.990899   390A      4.004941  
	 391A      4.012477   392A      4.033309   393A      4.043695  
	 394A      4.044611   395A      4.061786   396A      4.074762  
	 397A      4.100611   398A      4.113206   399A      4.120142  
	 400A      4.124438   401A      4.149593   402A      4.163421  
	 403A      4.175157   404A      4.179809   405A      4.193957  
	 406A      4.199623   407A      4.213057   408A      4.224331  
	 409A      4.228245   410A      4.251251   411A      4.284553  
	 412A      4.292488   413A      4.298288   414A      4.305589  
	 415A      4.323093   416A      4.337353   417A      4.346839  
	 418A      4.360591   419A      4.378622   420A      4.383945  
	 421A      4.393277   422A      4.406624   423A      4.432955  
	 424A      4.440001   425A      4.448538   426A      4.464285  
	 427A      4.479640   428A      4.493231   429A      4.505063  
	 430A      4.530961   431A      4.545434   432A      4.553690  
	 433A      4.564386   434A      4.569934   435A      4.598639  
	 436A      4.615374   437A      4.630234   438A      4.633373  
	 439A      4.651222   440A      4.660681   441A      4.667761  
	 442A      4.676583   443A      4.686504   444A      4.734234  
	 445A      4.759072   446A      4.766245   447A      4.777120  
	 448A      4.813394   449A      4.835525   450A      4.846147  
	 451A      4.855540   452A      4.863432   453A      4.885419  
	 454A      4.898551   455A      4.918339   456A      4.923315  
	 457A      4.938990   458A      4.970181   459A      4.977179  
	 460A      4.991810   461A      4.992910   462A      5.005565  
	 463A      5.021416   464A      5.032950   465A      5.045530  
	 466A      5.059984   467A      5.068400   468A      5.072268  
	 469A      5.091490   470A      5.109897   471A      5.115192  
	 472A      5.144458   473A      5.150489   474A      5.173015  
	 475A      5.184234   476A      5.196357   477A      5.204924  
	 478A      5.223878   479A      5.227734   480A      5.239096  
	 481A      5.250451   482A      5.262195   483A      5.292800  
	 484A      5.301344   485A      5.310164   486A      5.335335  
	 487A      5.347680   488A      5.355253   489A      5.366652  
	 490A      5.424088   491A      5.447347   492A      5.477011  
	 493A      5.487461   494A      5.494765   495A      5.518246  
	 496A      5.542858   497A      5.564808   498A      5.575003  
	 499A      5.598526   500A      5.599196   501A      5.613653  
	 502A      5.681737   503A      5.690630   504A      5.727775  
	 505A      5.730691   506A      5.754752   507A      5.770872  
	 508A      5.785440   509A      5.801348   510A      5.807428  
	 511A      5.831975   512A      5.858514   513A      5.924113  
	 514A      5.934582   515A      5.977541   516A      5.979305  
	 517A      5.995627   518A      6.036461   519A      6.046932  
	 520A      6.054525   521A      6.067200   522A      6.072379  
	 523A      6.083948   524A      6.135716   525A      6.152665  
	 526A      6.159770   527A      6.185671   528A      6.212573  
	 529A      6.218871   530A      6.247636   531A      6.262861  
	 532A      6.297195   533A      6.343622   534A      6.422119  
	 535A      6.442857   536A      6.450904   537A      6.477717  
	 538A      6.594142   539A      6.608936   540A      6.675530  
	 541A      6.716578   542A      6.726353   543A      6.754348  
	 544A      6.780629   545A      6.792457   546A      6.833543  
	 547A      6.851065   548A      6.903254   549A      6.938747  
	 550A      6.975957   551A      7.027368   552A      7.057509  
	 553A      7.083177   554A      7.087590   555A      7.109863  
	 556A      7.125245   557A      7.180678   558A      7.202024  
	 559A      7.350741   560A      7.449952   561A      7.504089  
	 562A      7.542523   563A      7.564948   564A      7.599485  
	 565A      7.700045   566A      7.744039   567A      7.832222  
	 568A      7.861295   569A      7.900743   570A      8.098292  
	 571A      8.099961   572A      8.169773   573A      8.260696  
	 574A      8.288312   575A      8.382771   576A      8.641639  
	 577A      8.767620   578A      9.079436   579A      9.192398  
	 580A      9.324315   581A      9.634162   582A      9.962631  
	 583A     10.040254   584A     10.211580   585A     10.753690  
	 586A     11.041667   587A     11.356143   588A     11.468018  
	 589A     12.118195   590A     12.320237   591A     17.278512  
	 592A     18.551885   593A     50.256266   594A     50.546658  
	 595A     53.804167   596A     55.486310   597A     55.873063  
	 598A     61.632696  

	Final Occupation by Irrep:
	          A 
	DOCC [     9 ]

  Energy converged.

  @RHF Final Energy:   -95.25537526898503

   => Energetics <=

    Nuclear Repulsion Energy =             42.0937646889183625
    One-Electron Energy =                -211.5361312014836983
    Two-Electron Energy =                  74.1869912435803371
    DFT Exchange-Correlation Energy =       0.0000000000000000
    Empirical Dispersion Energy =           0.0000000000000000
    Total Energy =                        -95.2553752689850057



Properties will be evaluated at   0.000000,   0.000000,   0.000000 Bohr
  ==> Properties <==


Properties computed using the SCF density density matrix
  Nuclear Dipole Moment: (a.u.)
     X:   -88.9056      Y:    19.6967      Z:     3.8495

  Electronic Dipole Moment: (a.u.)
     X:    88.8958      Y:   -19.9209      Z:    -3.3243

  Dipole Moment: (a.u.)
     X:    -0.0098      Y:    -0.2242      Z:     0.5252     Total:     0.5712

  Dipole Moment: (Debye)
     X:    -0.0249      Y:    -0.5699      Z:     1.3349     Total:     1.4517


  Saving occupied orbitals to File 180.

  Saving SAPT 2-MONOMER_A file.

*** tstop() called on genome.bme.utexas.edu at Thu Oct  3 15:06:11 2013
Module time:
	user time   =     421.07 seconds =       7.02 minutes
	system time =       3.76 seconds =       0.06 minutes
	total time  =        117 seconds =       1.95 minutes
Total time:
	user time   =    1157.91 seconds =      19.30 minutes
	system time =      13.71 seconds =       0.23 minutes
	total time  =        329 seconds =       5.48 minutes

  //>>>>>>>>>>>>>>>>>>>>>>>>>>>>>>>>>>>//
  //            Monomer B HF           //
  //<<<<<<<<<<<<<<<<<<<<<<<<<<<<<<<<<<<//


  No DF_BASIS_SCF auxiliary basis selected, defaulting to aug-cc-pvtz-jkfit


*** tstart() called on genome.bme.utexas.edu
*** at Thu Oct  3 15:06:11 2013


         ---------------------------------------------------------
                                   SCF
            by Justin Turney, Rob Parrish, and Andy Simmonett
                              RHF Reference
                        4 Threads,  15000 MiB Core
         ---------------------------------------------------------

  ==> Geometry <==

    Molecular point group: c1
    Full point group: C1

    Geometry (in Angstrom), charge = 0, multiplicity = 1:

       Center              X                  Y                   Z       
    ------------   -----------------  -----------------  -----------------
           N(Gh)     -2.848170290127     0.086389667112    -0.418609268104
           H(Gh)     -2.251557741127    -0.729304633888    -0.339907537104
           H(Gh)     -3.776780496127    -0.217894986888    -0.156470809104
           C(Gh)     -2.385910358127     1.099203830112     0.528844670896
           H(Gh)     -3.027264028127     1.976227232112     0.462366070896
           H(Gh)     -2.357869281127     0.780636395112     1.575900337896
           H(Gh)     -1.380680368127     1.413417257112     0.252384996896
           N          0.051529955873    -1.203443379888    -0.178282857104
           C          0.389966271873    -0.391099314888    -1.189995333104
           H         -0.152700947127    -0.535637295888    -2.115376692104
           C          1.361295533873     0.601034480112    -1.089628329104
           H          1.586147973873     1.225374767112    -1.942479022104
           C          2.022135600873     0.770575918112     0.122636108896
           H          2.779989545873     1.532813254112     0.239020237896
           C          1.682002691873    -0.064386606888     1.181759061896
           H          2.164591097873     0.026075632112     2.144459715896
           C          0.698221126873    -1.029175614888     0.982575680896
           H          0.412136796873    -1.692923222888     1.789186337896

  Running in c1 symmetry.

  Nuclear repulsion =  206.234916963012751

  Charge       = 0
  Multiplicity = 1
  Electrons    = 42
  Nalpha       = 21
  Nbeta        = 21

  ==> Algorithm <==

  SCF Algorithm Type is DF.
  DIIS enabled.
  MOM disabled.
  Fractional occupation disabled.
  Guess Type is CORE.
  Energy threshold   = 1.00e-08
  Density threshold  = 1.00e-08
  Integral threshold = 0.00e+00

  ==> Primary Basis <==

  Basis Set: AUG-CC-PVTZ
    Number of shells: 202
    Number of basis function: 598
    Number of Cartesian functions: 690
    Spherical Harmonics?: true
    Max angular momentum: 3

  ==> Pre-Iterations <==

   -------------------------------------------------------
    Irrep   Nso     Nmo     Nalpha   Nbeta   Ndocc  Nsocc
   -------------------------------------------------------
     A        598     598       0       0       0       0
   -------------------------------------------------------
    Total     598     598      21      21      21       0
   -------------------------------------------------------

 OEINTS: Wrapper to libmints.
   by Justin Turney

   Calculation information:
      Number of atoms:                  18
      Number of AO shells:             202
      Number of SO shells:             202
      Number of primitives:            350
      Number of atomic orbitals:       690
      Number of basis functions:       598

      Number of irreps:                  1
      Number of functions per irrep: [ 598 ]

      Overlap, kinetic, potential, dipole, and quadrupole integrals
        stored in file 35.

  ==> Integral Setup <==

  ==> DFJK: Density-Fitted J/K Matrices <==

    J tasked:                  Yes
    K tasked:                  Yes
    wK tasked:                  No
    OpenMP threads:              4
    Integrals threads:           4
    Memory (MB):             10728
    Algorithm:                Core
    Integral Cache:           LOAD
    Schwarz Cutoff:          0E+00
    Fitting Condition:       1E-12

   => Auxiliary Basis Set <=

  Basis Set: aug-cc-pvtz-jkfit
    Number of shells: 380
    Number of basis function: 1292
    Number of Cartesian functions: 1598
    Spherical Harmonics?: true
    Max angular momentum: 4

  Minimum eigenvalue in the overlap matrix is 1.9048971679E-06.
  Using Symmetric Orthogonalization.
  SCF Guess: Core (One-Electron) Hamiltonian.

  Guess energy:  -194.53926628779200

  ==> Iterations <==

                        Total Energy        Delta E     RMS |[F,P]|

   @RHF iter   1:  -191.87268441497642   -1.91873e+02   1.86876e-02 
   @RHF iter   2:  -177.60110382380972    1.42716e+01   1.05414e-02 DIIS
   @RHF iter   3:  -211.40033092459706   -3.37992e+01   1.19268e-02 DIIS
   @RHF iter   4:  -240.87990934587484   -2.94796e+01   4.51756e-03 DIIS
   @RHF iter   5:  -246.15689584144533   -5.27699e+00   1.76274e-03 DIIS
   @RHF iter   6:  -246.70931117639114   -5.52415e-01   5.70343e-04 DIIS
   @RHF iter   7:  -246.77265348963974   -6.33423e-02   1.35253e-04 DIIS
   @RHF iter   8:  -246.77712850672791   -4.47502e-03   6.01857e-05 DIIS
   @RHF iter   9:  -246.77835572582475   -1.22722e-03   2.54728e-05 DIIS
   @RHF iter  10:  -246.77869492434704   -3.39199e-04   1.03806e-05 DIIS
   @RHF iter  11:  -246.77878026457020   -8.53402e-05   4.39843e-06 DIIS
   @RHF iter  12:  -246.77879617062982   -1.59061e-05   2.83736e-06 DIIS
   @RHF iter  13:  -246.77880026387092   -4.09324e-06   9.92174e-07 DIIS
   @RHF iter  14:  -246.77880108537485   -8.21504e-07   3.01664e-07 DIIS
   @RHF iter  15:  -246.77880112673998   -4.13651e-08   5.28894e-08 DIIS
   @RHF iter  16:  -246.77880112790061   -1.16063e-09   2.04586e-08 DIIS
   @RHF iter  17:  -246.77880112808830   -1.87697e-10   8.23095e-09 DIIS

  ==> Post-Iterations <==

	Orbital Energies (a.u.)
	-----------------------

	Doubly Occupied:                                                      

	   1A    -15.567293     2A    -11.275411     3A    -11.275382  
	   4A    -11.260668     5A    -11.242565     6A    -11.242505  
	   7A     -1.256686     8A     -1.090116     9A     -1.034227  
	  10A     -0.859862    11A     -0.856192    12A     -0.722383  
	  13A     -0.660856    14A     -0.654745    15A     -0.598974  
	  16A     -0.577553    17A     -0.541409    18A     -0.520526  
	  19A     -0.419618    20A     -0.384141    21A     -0.348284  

	Virtual:                                                              

	  22A      0.023843    23A      0.031928    24A      0.032964  
	  25A      0.040576    26A      0.047876    27A      0.048775  
	  28A      0.057578    29A      0.060222    30A      0.067261  
	  31A      0.083715    32A      0.089666    33A      0.093583  
	  34A      0.099074    35A      0.100491    36A      0.106564  
	  37A      0.109106    38A      0.111462    39A      0.116786  
	  40A      0.120137    41A      0.123541    42A      0.128755  
	  43A      0.130082    44A      0.140836    45A      0.141527  
	  46A      0.147634    47A      0.150014    48A      0.152981  
	  49A      0.153860    50A      0.156878    51A      0.163340  
	  52A      0.167521    53A      0.171351    54A      0.175140  
	  55A      0.182080    56A      0.205458    57A      0.217880  
	  58A      0.226170    59A      0.240500    60A      0.247017  
	  61A      0.248232    62A      0.249702    63A      0.259600  
	  64A      0.263943    65A      0.275243    66A      0.280344  
	  67A      0.286114    68A      0.287761    69A      0.298621  
	  70A      0.299839    71A      0.306529    72A      0.310719  
	  73A      0.314306    74A      0.323912    75A      0.325073  
	  76A      0.331229    77A      0.331802    78A      0.339459  
	  79A      0.342301    80A      0.349169    81A      0.352031  
	  82A      0.355008    83A      0.360976    84A      0.364484  
	  85A      0.365773    86A      0.373510    87A      0.377393  
	  88A      0.384036    89A      0.387592    90A      0.392879  
	  91A      0.402587    92A      0.416368    93A      0.423054  
	  94A      0.429909    95A      0.431877    96A      0.438851  
	  97A      0.441021    98A      0.447047    99A      0.448975  
	 100A      0.453818   101A      0.462653   102A      0.470429  
	 103A      0.474088   104A      0.474533   105A      0.478244  
	 106A      0.485569   107A      0.491254   108A      0.493781  
	 109A      0.496039   110A      0.504695   111A      0.511406  
	 112A      0.516666   113A      0.523567   114A      0.528820  
	 115A      0.533450   116A      0.536922   117A      0.539489  
	 118A      0.545108   119A      0.551301   120A      0.555841  
	 121A      0.559813   122A      0.568149   123A      0.580670  
	 124A      0.583465   125A      0.594737   126A      0.595774  
	 127A      0.609186   128A      0.614380   129A      0.617621  
	 130A      0.632930   131A      0.639580   132A      0.643643  
	 133A      0.651304   134A      0.663911   135A      0.670099  
	 136A      0.679867   137A      0.680426   138A      0.690874  
	 139A      0.695225   140A      0.703482   141A      0.711854  
	 142A      0.714267   143A      0.732613   144A      0.737896  
	 145A      0.745655   146A      0.747445   147A      0.760206  
	 148A      0.767456   149A      0.772677   150A      0.784949  
	 151A      0.785733   152A      0.792574   153A      0.807504  
	 154A      0.809065   155A      0.814191   156A      0.824343  
	 157A      0.831757   158A      0.836629   159A      0.844399  
	 160A      0.848795   161A      0.852208   162A      0.862877  
	 163A      0.869321   164A      0.876400   165A      0.886881  
	 166A      0.891709   167A      0.892053   168A      0.907080  
	 169A      0.916888   170A      0.926380   171A      0.929437  
	 172A      0.935928   173A      0.940523   174A      0.948278  
	 175A      0.961385   176A      0.963518   177A      0.969408  
	 178A      0.981417   179A      0.994441   180A      1.004520  
	 181A      1.008735   182A      1.014669   183A      1.021622  
	 184A      1.028256   185A      1.035716   186A      1.045565  
	 187A      1.050595   188A      1.052768   189A      1.061168  
	 190A      1.069553   191A      1.078944   192A      1.081718  
	 193A      1.089232   194A      1.095091   195A      1.096962  
	 196A      1.099925   197A      1.106915   198A      1.112267  
	 199A      1.115211   200A      1.125263   201A      1.133341  
	 202A      1.139352   203A      1.150080   204A      1.158231  
	 205A      1.167891   206A      1.178203   207A      1.178981  
	 208A      1.184851   209A      1.187157   210A      1.197962  
	 211A      1.200003   212A      1.207322   213A      1.210822  
	 214A      1.215581   215A      1.222013   216A      1.226279  
	 217A      1.234513   218A      1.239668   219A      1.245538  
	 220A      1.248510   221A      1.259534   222A      1.266561  
	 223A      1.267430   224A      1.279137   225A      1.289710  
	 226A      1.295021   227A      1.302646   228A      1.310815  
	 229A      1.320923   230A      1.324736   231A      1.329857  
	 232A      1.342625   233A      1.354420   234A      1.356868  
	 235A      1.366209   236A      1.376625   237A      1.387005  
	 238A      1.398987   239A      1.408903   240A      1.422737  
	 241A      1.432757   242A      1.443469   243A      1.453800  
	 244A      1.458296   245A      1.467910   246A      1.471923  
	 247A      1.481175   248A      1.484880   249A      1.502771  
	 250A      1.510727   251A      1.515867   252A      1.526515  
	 253A      1.539741   254A      1.547712   255A      1.554682  
	 256A      1.562765   257A      1.568625   258A      1.579046  
	 259A      1.586568   260A      1.602428   261A      1.607656  
	 262A      1.620536   263A      1.622646   264A      1.654029  
	 265A      1.662882   266A      1.675038   267A      1.678779  
	 268A      1.689666   269A      1.699812   270A      1.704876  
	 271A      1.713797   272A      1.724580   273A      1.735124  
	 274A      1.742088   275A      1.749929   276A      1.760149  
	 277A      1.765794   278A      1.772209   279A      1.779761  
	 280A      1.788777   281A      1.813409   282A      1.825306  
	 283A      1.828698   284A      1.840366   285A      1.845555  
	 286A      1.858368   287A      1.867034   288A      1.871364  
	 289A      1.887887   290A      1.893364   291A      1.904961  
	 292A      1.911925   293A      1.926175   294A      1.934247  
	 295A      1.948541   296A      1.955278   297A      1.969025  
	 298A      1.985156   299A      1.992863   300A      2.004486  
	 301A      2.017926   302A      2.031424   303A      2.035493  
	 304A      2.043761   305A      2.049889   306A      2.062848  
	 307A      2.076087   308A      2.090868   309A      2.101027  
	 310A      2.110315   311A      2.128264   312A      2.141048  
	 313A      2.152752   314A      2.159705   315A      2.162444  
	 316A      2.170318   317A      2.190370   318A      2.201753  
	 319A      2.220549   320A      2.225619   321A      2.233325  
	 322A      2.260166   323A      2.269706   324A      2.277156  
	 325A      2.286090   326A      2.298811   327A      2.301072  
	 328A      2.317336   329A      2.325181   330A      2.336024  
	 331A      2.354633   332A      2.384392   333A      2.386757  
	 334A      2.396770   335A      2.414464   336A      2.421008  
	 337A      2.433596   338A      2.444053   339A      2.469089  
	 340A      2.480315   341A      2.492086   342A      2.513671  
	 343A      2.522983   344A      2.533038   345A      2.534727  
	 346A      2.555386   347A      2.582507   348A      2.592707  
	 349A      2.610399   350A      2.623141   351A      2.661839  
	 352A      2.685014   353A      2.702508   354A      2.710806  
	 355A      2.733632   356A      2.742862   357A      2.761338  
	 358A      2.828113   359A      2.830541   360A      2.839702  
	 361A      2.846556   362A      2.864331   363A      2.875383  
	 364A      2.938144   365A      2.964862   366A      2.993500  
	 367A      3.006587   368A      3.036479   369A      3.059189  
	 370A      3.063794   371A      3.096780   372A      3.106014  
	 373A      3.137235   374A      3.157164   375A      3.196913  
	 376A      3.206881   377A      3.228993   378A      3.270939  
	 379A      3.312327   380A      3.337032   381A      3.342504  
	 382A      3.362970   383A      3.376907   384A      3.390180  
	 385A      3.397179   386A      3.421528   387A      3.442681  
	 388A      3.445968   389A      3.452925   390A      3.477516  
	 391A      3.496567   392A      3.502096   393A      3.512461  
	 394A      3.527061   395A      3.544531   396A      3.557779  
	 397A      3.569348   398A      3.584911   399A      3.601601  
	 400A      3.625851   401A      3.631548   402A      3.696269  
	 403A      3.702365   404A      3.712932   405A      3.744428  
	 406A      3.750360   407A      3.773931   408A      3.800984  
	 409A      3.815754   410A      3.827038   411A      3.837546  
	 412A      3.841195   413A      3.871132   414A      3.886228  
	 415A      3.908808   416A      3.946528   417A      3.948599  
	 418A      3.955556   419A      3.978716   420A      3.987681  
	 421A      4.014855   422A      4.018451   423A      4.044305  
	 424A      4.056336   425A      4.068229   426A      4.088350  
	 427A      4.104046   428A      4.124690   429A      4.128213  
	 430A      4.139827   431A      4.143093   432A      4.155543  
	 433A      4.169809   434A      4.173532   435A      4.186625  
	 436A      4.202879   437A      4.228621   438A      4.233634  
	 439A      4.239679   440A      4.254963   441A      4.266321  
	 442A      4.277830   443A      4.301896   444A      4.317974  
	 445A      4.338444   446A      4.359998   447A      4.388480  
	 448A      4.392998   449A      4.413601   450A      4.430263  
	 451A      4.452572   452A      4.465742   453A      4.470555  
	 454A      4.480194   455A      4.489381   456A      4.496323  
	 457A      4.520474   458A      4.527685   459A      4.537825  
	 460A      4.547945   461A      4.562220   462A      4.581090  
	 463A      4.601742   464A      4.628478   465A      4.652370  
	 466A      4.668834   467A      4.685214   468A      4.698011  
	 469A      4.715772   470A      4.728746   471A      4.754190  
	 472A      4.772466   473A      4.774288   474A      4.806469  
	 475A      4.821376   476A      4.846262   477A      4.856244  
	 478A      4.878368   479A      4.880659   480A      4.899437  
	 481A      4.916946   482A      4.921308   483A      4.938636  
	 484A      4.960505   485A      4.964607   486A      4.988825  
	 487A      5.006375   488A      5.028703   489A      5.035957  
	 490A      5.056504   491A      5.067292   492A      5.084826  
	 493A      5.093791   494A      5.106943   495A      5.121362  
	 496A      5.127734   497A      5.138476   498A      5.152048  
	 499A      5.160422   500A      5.179878   501A      5.199482  
	 502A      5.218645   503A      5.229096   504A      5.240353  
	 505A      5.250327   506A      5.262078   507A      5.303887  
	 508A      5.329327   509A      5.351089   510A      5.377088  
	 511A      5.403457   512A      5.417465   513A      5.426005  
	 514A      5.445181   515A      5.446450   516A      5.450226  
	 517A      5.466767   518A      5.487175   519A      5.498035  
	 520A      5.509484   521A      5.533461   522A      5.540185  
	 523A      5.552020   524A      5.565706   525A      5.580995  
	 526A      5.618742   527A      5.644877   528A      5.655577  
	 529A      5.662781   530A      5.666492   531A      5.775078  
	 532A      5.793258   533A      5.824472   534A      5.838422  
	 535A      5.862059   536A      5.874106   537A      5.889925  
	 538A      5.899963   539A      5.921469   540A      5.936141  
	 541A      5.973857   542A      5.998536   543A      6.044238  
	 544A      6.051662   545A      6.067179   546A      6.104443  
	 547A      6.175505   548A      6.189672   549A      6.219150  
	 550A      6.231427   551A      6.263946   552A      6.319504  
	 553A      6.353771   554A      6.462461   555A      6.478790  
	 556A      6.534757   557A      6.557057   558A      6.681999  
	 559A      6.688471   560A      6.707622   561A      6.730633  
	 562A      6.754314   563A      6.811939   564A      6.860462  
	 565A      6.905544   566A      6.989931   567A      7.031222  
	 568A      7.096488   569A      7.142755   570A      7.201152  
	 571A      7.249786   572A      7.298842   573A      7.495239  
	 574A      7.565999   575A      7.643933   576A      7.688567  
	 577A      7.832979   578A      7.907935   579A      7.931857  
	 580A      8.107762   581A      8.154529   582A      8.242467  
	 583A      8.341914   584A      8.736172   585A      9.394703  
	 586A      9.882192   587A     10.593655   588A     11.118010  
	 589A     11.324720   590A     12.127445   591A     15.639837  
	 592A     16.367933   593A     18.428552   594A     19.014257  
	 595A     19.479510   596A     19.652466   597A     53.837069  
	 598A     59.810868  

	Final Occupation by Irrep:
	          A 
	DOCC [    21 ]

  Energy converged.

  @RHF Final Energy:  -246.77880112808830

   => Energetics <=

    Nuclear Repulsion Energy =            206.2349169630127506
    One-Electron Energy =                -741.2486425833478734
    Two-Electron Energy =                 288.2349244922468756
    DFT Exchange-Correlation Energy =       0.0000000000000000
    Empirical Dispersion Energy =           0.0000000000000000
    Total Energy =                       -246.7788011280882188



Properties will be evaluated at   0.000000,   0.000000,   0.000000 Bohr
  ==> Properties <==


Properties computed using the SCF density density matrix
  Nuclear Dipole Moment: (a.u.)
     X:    83.2851      Y:   -16.1509      Z:    -2.0581

  Electronic Dipole Moment: (a.u.)
     X:   -82.6453      Y:    16.7990      Z:     2.1575

  Dipole Moment: (a.u.)
     X:     0.6399      Y:     0.6481      Z:     0.0994     Total:     0.9162

  Dipole Moment: (Debye)
     X:     1.6264      Y:     1.6473      Z:     0.2527     Total:     2.3287


  Saving occupied orbitals to File 180.

  Saving SAPT 2-MONOMER_B file.

*** tstop() called on genome.bme.utexas.edu at Thu Oct  3 15:08:50 2013
Module time:
	user time   =     570.82 seconds =       9.51 minutes
	system time =       4.08 seconds =       0.07 minutes
	total time  =        159 seconds =       2.65 minutes
Total time:
	user time   =    1728.75 seconds =      28.81 minutes
	system time =      17.79 seconds =       0.30 minutes
	total time  =        488 seconds =       8.13 minutes
  No DF_BASIS_SAPT auxiliary basis selected, defaulting to aug-cc-pvtz-ri

  //>>>>>>>>>>>>>>>>>>>>>>>>>>>>>>>>>>>//
  //               SAPT2+              //
  //<<<<<<<<<<<<<<<<<<<<<<<<<<<<<<<<<<<//


*** tstart() called on genome.bme.utexas.edu
*** at Thu Oct  3 15:08:50 2013

        SAPT2+  
    Ed Hohenstein
     6 June 2009

      Orbital Information
  --------------------------
    NSO        =       598
    NMO        =       598
    NRI        =      1308
    NOCC A     =         9
    NOCC B     =        21
    FOCC A     =         2
    FOCC B     =         6
    NVIR A     =       589
    NVIR B     =       577

    Estimated memory usage: 7302.0 MB

    Elst10,r            =    -0.006862066307 H
    Exch10 (S^2)        =     0.009057849470 H
    Exch10              =     0.009096237127 H
    Ind20,r (A<-B)      =    -0.001023889484 H
    Ind20,r (B<-A)      =    -0.002097368315 H
    Ind20,r             =    -0.003121257800 H
    Exch-Ind20,r (A<-B) =     0.000699732957 H
    Exch-Ind20,r (B<-A) =     0.001602647403 H
    Exch-Ind20,r        =     0.002302380360 H
    Disp20              =    -0.009211226154 H
    Exch-Disp20         =     0.001071570492 H
    Elst12,r            =     0.000024094326 H
    Exch11              =     0.000232429234 H
    Exch12              =     0.000467455738 H
    Ind22               =    -0.000217656931 H
    Disp21              =     0.001542549997 H
    Disp22 (SDQ)        =     0.000350392668 H

    (i =   1 of  15)       2488 seconds
    (i =   2 of  15)       5077 seconds
    (i =   3 of  15)       7583 seconds
    (i =   4 of  15)      10080 seconds
    (i =   5 of  15)      12617 seconds
    (i =   6 of  15)      15147 seconds
    (i =   7 of  15)      17655 seconds
    (i =   8 of  15)      20191 seconds
    (i =   9 of  15)      22706 seconds
    (i =  10 of  15)      25264 seconds
    (i =  11 of  15)      27797 seconds
    (i =  12 of  15)      30325 seconds
    (i =  13 of  15)      32901 seconds
    (i =  14 of  15)      35455 seconds
    (i =  15 of  15)      37982 seconds

    Disp220 (T)         =    -0.000732769307 H

    (i =   1 of   7)       8139 seconds
    (i =   2 of   7)      14876 seconds
    (i =   3 of   7)      21547 seconds
    (i =   4 of   7)      28565 seconds
    (i =   5 of   7)      35644 seconds
    (i =   6 of   7)      42858 seconds
    (i =   7 of   7)      50065 seconds

    Disp202 (T)         =    -0.001000965019 H

    Disp22 (T)          =    -0.001733734325 H

    SAPT Results  
  -----------------------------------------------------------------------
    Electrostatics          -6.83797198 mH      -4.29089238 kcal mol^-1
      Elst10,r              -6.86206631 mH      -4.30601180 kcal mol^-1
      Elst12,r               0.02409433 mH       0.01511942 kcal mol^-1

    Exchange                 9.79612210 mH       6.14715968 kcal mol^-1
      Exch10                 9.09623713 mH       5.70797521 kcal mol^-1
      Exch10(S^2)            9.05784947 mH       5.68388659 kcal mol^-1
      Exch11(S^2)            0.23242923 mH       0.14585155 kcal mol^-1
      Exch12(S^2)            0.46745574 mH       0.29333292 kcal mol^-1

    Induction               -1.71191492 mH      -1.07424288 kcal mol^-1
      Ind20,r               -3.12125780 mH      -1.95861892 kcal mol^-1
      Ind22                 -0.21765693 mH      -0.13658179 kcal mol^-1
      Exch-Ind20,r           2.30238036 mH       1.44476555 kcal mol^-1
      Exch-Ind22             0.16055356 mH       0.10074888 kcal mol^-1
      delta HF,r (2)        -0.83593411 mH      -0.52455659 kcal mol^-1

    Dispersion              -7.98044732 mH      -5.00780651 kcal mol^-1
      Disp20                -9.21122615 mH      -5.78013192 kcal mol^-1
      Disp21                 1.54255000 mH       0.96796478 kcal mol^-1
      Disp22 (SDQ)           0.35039267 mH       0.21987473 kcal mol^-1
      Disp22 (T)            -1.73373433 mH      -1.08793476 kcal mol^-1
      Exch-Disp20            1.07157049 mH       0.67242066 kcal mol^-1

    Total HF                 0.57935927 mH       0.36355345 kcal mol^-1
    Total SAPT0             -7.56029639 mH      -4.74415781 kcal mol^-1
    Total SAPT2             -6.89342047 mH      -4.32568683 kcal mol^-1
    Total SAPT2+            -6.73421213 mH      -4.22578208 kcal mol^-1

*** tstop() called on genome.bme.utexas.edu at Fri Oct  4 21:32:58 2013
Module time:
	user time   =  320212.56 seconds =    5336.88 minutes
	system time =     966.96 seconds =      16.12 minutes
	total time  =     109448 seconds =    1824.13 minutes
Total time:
	user time   =  321941.31 seconds =    5365.69 minutes
	system time =     984.75 seconds =      16.41 minutes
	total time  =     109936 seconds =    1832.27 minutes

*** PSI4 exiting successfully. Buy a developer a beer!
