    -----------------------------------------------------------------------
          PSI4: An Open-Source Ab Initio Electronic Structure Package
                              PSI 4.0.0-beta4 Driver

    J. M. Turney, A. C. Simmonett, R. M. Parrish, E. G. Hohenstein,
    F. A. Evangelista, J. T. Fermann, B. J. Mintz, L. A. Burns, J. J. Wilke,
    M. L. Abrams, N. J. Russ, M. L. Leininger, C. L. Janssen, E. T. Seidl,
    W. D. Allen, H. F. Schaefer, R. A. King, E. F. Valeev, C. D. Sherrill,
    and T. D. Crawford, WIREs Comput. Mol. Sci., (2011) (doi: 10.1002/wcms.93)

                         Additional Contributions by
    A. E. DePrince, M. Saitow, U. Bozkaya, A. Yu. Sokolov
    -----------------------------------------------------------------------

    Process ID:  15068
    PSI4DATADIR: /home/xzhu216/psi4/psi4-install/share/psi

    Using LocalCommunicator (Number of processes = 1)

    Memory level set to 256.000 MB

  ==> Input File <==

--------------------------------------------------------------------------
#psi4
#
memory 7 gb

molecule Water_CH3SH {
0 1
    C     1.175593000    -0.145800000     0.231612000
    S    -0.147763000     0.408105000    -0.884362000
    H    -0.442197000     1.535646000    -0.231011000
    H     0.791446000    -0.327969000     1.229656000
    H     1.542170000    -1.081878000    -0.179479000
    H     1.988248000     0.572529000     0.252180000
--
0 1
    O    -1.864928534    -1.554945115     1.739920525
    H    -1.774941534    -1.116229115     0.885777525
    H    -2.748583534    -1.926069115     1.715395525

units angstrom
no_reorient  #important for SAPT in psi4, default
symmetry c1  #important for SAPT in psi4, default
}

set {
basis aug-cc-pVTZ
scf_type DF
freeze_core True
}
energy('sapt2+')
--------------------------------------------------------------------------

  Memory set to   7.000 GiB by Python script.

  //>>>>>>>>>>>>>>>>>>>>>>>>>>>>>>>>>>>//
  //              Dimer HF             //
  //<<<<<<<<<<<<<<<<<<<<<<<<<<<<<<<<<<<//


  No DF_BASIS_SCF auxiliary basis selected, defaulting to aug-cc-pvtz-jkfit


*** tstart() called on node54.bme.utexas.edu
*** at Fri May 16 18:49:17 2014


         ---------------------------------------------------------
                                   SCF
            by Justin Turney, Rob Parrish, and Andy Simmonett
                              RHF Reference
                        8 Threads,   7000 MiB Core
         ---------------------------------------------------------

  ==> Geometry <==

    Molecular point group: c1
    Full point group: C1

    Geometry (in Angstrom), charge = 0, multiplicity = 1:

       Center              X                  Y                   Z       
    ------------   -----------------  -----------------  -----------------
           C          1.495153435517     0.095590912297     0.140182877579
           S          0.171797435517     0.649495912297    -0.975791122421
           H         -0.122636564483     1.777036912297    -0.322440122421
           H          1.111006435517    -0.086578087703     1.138226877579
           H          1.861730435517    -0.840487087703    -0.270908122421
           H          2.307808435517     0.813919912297     0.160750877579
           O         -1.545368098483    -1.313554202703     1.648491402579
           H         -1.455381098483    -0.874838202703     0.794348402579
           H         -2.429023098483    -1.684678202703     1.623966402579

  Running in c1 symmetry.

  Nuclear repulsion =  102.992892004023304

  Charge       = 0
  Multiplicity = 1
  Electrons    = 36
  Nalpha       = 18
  Nbeta        = 18

  ==> Algorithm <==

  SCF Algorithm Type is DF.
  DIIS enabled.
  MOM disabled.
  Fractional occupation disabled.
  Guess Type is CORE.
  Energy threshold   = 1.00e-08
  Density threshold  = 1.00e-08
  Integral threshold = 0.00e+00

  ==> Primary Basis <==

  Basis Set: AUG-CC-PVTZ
    Number of shells: 98
    Number of basis function: 280
    Number of Cartesian functions: 319
    Spherical Harmonics?: true
    Max angular momentum: 3

  ==> Pre-Iterations <==

   -------------------------------------------------------
    Irrep   Nso     Nmo     Nalpha   Nbeta   Ndocc  Nsocc
   -------------------------------------------------------
     A        280     280       0       0       0       0
   -------------------------------------------------------
    Total     280     280      18      18      18       0
   -------------------------------------------------------

 OEINTS: Wrapper to libmints.
   by Justin Turney

   Calculation information:
      Number of atoms:                   9
      Number of AO shells:              98
      Number of SO shells:              98
      Number of primitives:            190
      Number of atomic orbitals:       319
      Number of basis functions:       280

      Number of irreps:                  1
      Number of functions per irrep: [ 280 ]

      Overlap, kinetic, potential, dipole, and quadrupole integrals
        stored in file 35.

  ==> Integral Setup <==

  ==> DFJK: Density-Fitted J/K Matrices <==

    J tasked:                  Yes
    K tasked:                  Yes
    wK tasked:                  No
    OpenMP threads:              8
    Integrals threads:           8
    Memory (MB):              5006
    Algorithm:                Core
    Integral Cache:           SAVE
    Schwarz Cutoff:          0E+00
    Fitting Condition:       1E-12

   => Auxiliary Basis Set <=

  Basis Set: aug-cc-pvtz-jkfit
    Number of shells: 186
    Number of basis function: 630
    Number of Cartesian functions: 772
    Spherical Harmonics?: true
    Max angular momentum: 4

  Minimum eigenvalue in the overlap matrix is 5.6354370865E-05.
  Using Symmetric Orthogonalization.
  SCF Guess: Core (One-Electron) Hamiltonian.

  Guess energy:  -395.79372249657638

  ==> Iterations <==

                        Total Energy        Delta E     RMS |[F,P]|

   @RHF iter   1:  -423.51641847351624   -4.23516e+02   3.27996e-02 
   @RHF iter   2:  -296.20223133643799    1.27314e+02   3.73487e-02 DIIS
   @RHF iter   3:  -473.14088257910845   -1.76939e+02   1.95749e-02 DIIS
   @RHF iter   4:  -476.90062667917203   -3.75974e+00   2.10231e-02 DIIS
   @RHF iter   5:  -507.46806885730592   -3.05674e+01   9.82375e-03 DIIS
   @RHF iter   6:  -513.71461818985540   -6.24655e+00   1.43780e-03 DIIS
   @RHF iter   7:  -513.81008774491488   -9.54696e-02   5.73979e-04 DIIS
   @RHF iter   8:  -513.82009957731225   -1.00118e-02   1.59574e-04 DIIS
   @RHF iter   9:  -513.82139162978569   -1.29205e-03   5.02339e-05 DIIS
   @RHF iter  10:  -513.82154296792805   -1.51338e-04   1.70469e-05 DIIS
   @RHF iter  11:  -513.82155740828625   -1.44404e-05   4.58119e-06 DIIS
   @RHF iter  12:  -513.82155956034762   -2.15206e-06   1.19565e-06 DIIS
   @RHF iter  13:  -513.82155976830313   -2.07956e-07   3.68612e-07 DIIS
   @RHF iter  14:  -513.82155979308368   -2.47805e-08   1.06108e-07 DIIS
   @RHF iter  15:  -513.82155979525237   -2.16869e-09   3.26138e-08 DIIS
   @RHF iter  16:  -513.82155979547929   -2.26919e-10   9.18701e-09 DIIS

  ==> Post-Iterations <==

	Orbital Energies (a.u.)
	-----------------------

	Doubly Occupied:                                                      

	   1A    -91.960604     2A    -20.558518     3A    -11.258700  
	   4A     -8.961797     5A     -6.643218     6A     -6.642200  
	   7A     -6.641167     8A     -1.343313     9A     -1.043089  
	  10A     -0.871870    11A     -0.706697    12A     -0.611819  
	  13A     -0.595718    14A     -0.578097    15A     -0.532203  
	  16A     -0.501872    17A     -0.465552    18A     -0.366491  

	Virtual:                                                              

	  19A      0.029286    20A      0.037804    21A      0.041729  
	  22A      0.050259    23A      0.060948    24A      0.080408  
	  25A      0.090224    26A      0.096628    27A      0.119032  
	  28A      0.128498    29A      0.129853    30A      0.138197  
	  31A      0.148097    32A      0.163041    33A      0.176932  
	  34A      0.178700    35A      0.194558    36A      0.207463  
	  37A      0.213935    38A      0.221199    39A      0.240965  
	  40A      0.256364    41A      0.263187    42A      0.270046  
	  43A      0.282627    44A      0.287587    45A      0.309821  
	  46A      0.317122    47A      0.324445    48A      0.325053  
	  49A      0.348286    50A      0.359320    51A      0.362432  
	  52A      0.376069    53A      0.384854    54A      0.387066  
	  55A      0.393277    56A      0.404602    57A      0.407833  
	  58A      0.416418    59A      0.423104    60A      0.427168  
	  61A      0.433353    62A      0.444628    63A      0.455030  
	  64A      0.459732    65A      0.480375    66A      0.497923  
	  67A      0.506341    68A      0.509563    69A      0.534433  
	  70A      0.554384    71A      0.582383    72A      0.631889  
	  73A      0.656081    74A      0.673421    75A      0.694431  
	  76A      0.695519    77A      0.703430    78A      0.719204  
	  79A      0.753416    80A      0.757735    81A      0.767573  
	  82A      0.776034    83A      0.787564    84A      0.804239  
	  85A      0.810289    86A      0.834131    87A      0.843850  
	  88A      0.846475    89A      0.858041    90A      0.877736  
	  91A      0.879868    92A      0.896319    93A      0.917016  
	  94A      0.924573    95A      0.933379    96A      0.938766  
	  97A      0.945249    98A      0.949761    99A      0.959146  
	 100A      0.968803   101A      0.985853   102A      0.997496  
	 103A      1.004854   104A      1.010713   105A      1.014441  
	 106A      1.032905   107A      1.038690   108A      1.052930  
	 109A      1.066451   110A      1.075975   111A      1.090215  
	 112A      1.114832   113A      1.124492   114A      1.133990  
	 115A      1.135047   116A      1.144428   117A      1.174505  
	 118A      1.191769   119A      1.207458   120A      1.211912  
	 121A      1.226715   122A      1.249389   123A      1.263558  
	 124A      1.277370   125A      1.311394   126A      1.326848  
	 127A      1.337381   128A      1.351492   129A      1.361162  
	 130A      1.377982   131A      1.393324   132A      1.414943  
	 133A      1.444106   134A      1.462595   135A      1.496378  
	 136A      1.505813   137A      1.561810   138A      1.593053  
	 139A      1.613471   140A      1.634565   141A      1.646498  
	 142A      1.651397   143A      1.664711   144A      1.675137  
	 145A      1.699931   146A      1.708917   147A      1.723984  
	 148A      1.728731   149A      1.761621   150A      1.784878  
	 151A      1.813814   152A      1.824356   153A      1.876613  
	 154A      1.885303   155A      1.942349   156A      1.968562  
	 157A      1.980086   158A      2.028719   159A      2.056453  
	 160A      2.073695   161A      2.110600   162A      2.167376  
	 163A      2.184088   164A      2.195308   165A      2.220224  
	 166A      2.269149   167A      2.298559   168A      2.321895  
	 169A      2.345222   170A      2.365676   171A      2.408139  
	 172A      2.423810   173A      2.469643   174A      2.477545  
	 175A      2.515952   176A      2.539880   177A      2.565590  
	 178A      2.579204   179A      2.597347   180A      2.643976  
	 181A      2.658311   182A      2.677491   183A      2.714462  
	 184A      2.748379   185A      2.757281   186A      2.763425  
	 187A      2.788679   188A      2.887113   189A      2.936619  
	 190A      2.942692   191A      2.987121   192A      3.040988  
	 193A      3.097298   194A      3.116118   195A      3.370718  
	 196A      3.400603   197A      3.546548   198A      3.561139  
	 199A      3.593533   200A      3.605626   201A      3.619350  
	 202A      3.631783   203A      3.672710   204A      3.753852  
	 205A      3.788828   206A      3.813184   207A      3.894514  
	 208A      3.941701   209A      3.950373   210A      4.008013  
	 211A      4.026834   212A      4.071101   213A      4.105393  
	 214A      4.118978   215A      4.133967   216A      4.145005  
	 217A      4.161362   218A      4.176937   219A      4.211370  
	 220A      4.251879   221A      4.266214   222A      4.328902  
	 223A      4.376337   224A      4.387577   225A      4.414545  
	 226A      4.431530   227A      4.446707   228A      4.480920  
	 229A      4.492810   230A      4.509114   231A      4.544672  
	 232A      4.562765   233A      4.584046   234A      4.636753  
	 235A      4.681186   236A      4.757587   237A      4.777596  
	 238A      4.799653   239A      4.854659   240A      4.908860  
	 241A      4.914745   242A      4.950757   243A      4.985010  
	 244A      5.021824   245A      5.162534   246A      5.170268  
	 247A      5.192943   248A      5.204048   249A      5.258869  
	 250A      5.296192   251A      5.340290   252A      5.411004  
	 253A      5.535043   254A      5.554292   255A      5.571891  
	 256A      5.601801   257A      5.646298   258A      5.737684  
	 259A      5.990029   260A      6.081428   261A      6.095487  
	 262A      6.248713   263A      6.575844   264A      6.664054  
	 265A      6.688197   266A      6.762264   267A      6.974309  
	 268A      7.149556   269A      7.290632   270A      7.328903  
	 271A      7.336354   272A      7.406689   273A      7.414492  
	 274A      7.639174   275A      7.914523   276A      7.953294  
	 277A      8.079039   278A      8.838510   279A     15.976018  
	 280A     17.081574  

	Final Occupation by Irrep:
	          A 
	DOCC [    18 ]

  Energy converged.

  @RHF Final Energy:  -513.82155979547929

   => Energetics <=

    Nuclear Repulsion Energy =            102.9928920040233038
    One-Electron Energy =                -913.0630512729627526
    Two-Electron Energy =                 296.2485994734601036
    DFT Exchange-Correlation Energy =       0.0000000000000000
    Empirical Dispersion Energy =           0.0000000000000000
    Total Energy =                       -513.8215597954794021



Properties will be evaluated at   0.000000,   0.000000,   0.000000 Bohr
  ==> Properties <==


Properties computed using the SCF density density matrix
  Nuclear Dipole Moment: (a.u.)
     X:     1.1910      Y:    -0.8288      Z:     2.9108

  Electronic Dipole Moment: (a.u.)
     X:    -1.2237      Y:     0.9828      Z:    -2.9789

  Dipole Moment: (a.u.)
     X:    -0.0327      Y:     0.1540      Z:    -0.0682     Total:     0.1716

  Dipole Moment: (Debye)
     X:    -0.0832      Y:     0.3914      Z:    -0.1732     Total:     0.4361


  Saving occupied orbitals to File 180.

  Saving SAPT 2-DIMER file.

*** tstop() called on node54.bme.utexas.edu at Fri May 16 18:49:31 2014
Module time:
	user time   =      96.65 seconds =       1.61 minutes
	system time =       1.25 seconds =       0.02 minutes
	total time  =         14 seconds =       0.23 minutes
Total time:
	user time   =      96.65 seconds =       1.61 minutes
	system time =       1.25 seconds =       0.02 minutes
	total time  =         14 seconds =       0.23 minutes

  //>>>>>>>>>>>>>>>>>>>>>>>>>>>>>>>>>>>//
  //            Monomer A HF           //
  //<<<<<<<<<<<<<<<<<<<<<<<<<<<<<<<<<<<//


  No DF_BASIS_SCF auxiliary basis selected, defaulting to aug-cc-pvtz-jkfit


*** tstart() called on node54.bme.utexas.edu
*** at Fri May 16 18:49:31 2014


         ---------------------------------------------------------
                                   SCF
            by Justin Turney, Rob Parrish, and Andy Simmonett
                              RHF Reference
                        8 Threads,   7000 MiB Core
         ---------------------------------------------------------

  ==> Geometry <==

    Molecular point group: c1
    Full point group: C1

    Geometry (in Angstrom), charge = 0, multiplicity = 1:

       Center              X                  Y                   Z       
    ------------   -----------------  -----------------  -----------------
           C          1.495153435517     0.095590912297     0.140182877579
           S          0.171797435517     0.649495912297    -0.975791122421
           H         -0.122636564483     1.777036912297    -0.322440122421
           H          1.111006435517    -0.086578087703     1.138226877579
           H          1.861730435517    -0.840487087703    -0.270908122421
           H          2.307808435517     0.813919912297     0.160750877579
           O(Gh)     -1.545368098483    -1.313554202703     1.648491402579
           H(Gh)     -1.455381098483    -0.874838202703     0.794348402579
           H(Gh)     -2.429023098483    -1.684678202703     1.623966402579

  Running in c1 symmetry.

  Nuclear repulsion =   56.418550860464336

  Charge       = 0
  Multiplicity = 1
  Electrons    = 26
  Nalpha       = 13
  Nbeta        = 13

  ==> Algorithm <==

  SCF Algorithm Type is DF.
  DIIS enabled.
  MOM disabled.
  Fractional occupation disabled.
  Guess Type is CORE.
  Energy threshold   = 1.00e-08
  Density threshold  = 1.00e-08
  Integral threshold = 0.00e+00

  ==> Primary Basis <==

  Basis Set: AUG-CC-PVTZ
    Number of shells: 98
    Number of basis function: 280
    Number of Cartesian functions: 319
    Spherical Harmonics?: true
    Max angular momentum: 3

  ==> Pre-Iterations <==

   -------------------------------------------------------
    Irrep   Nso     Nmo     Nalpha   Nbeta   Ndocc  Nsocc
   -------------------------------------------------------
     A        280     280       0       0       0       0
   -------------------------------------------------------
    Total     280     280      13      13      13       0
   -------------------------------------------------------

 OEINTS: Wrapper to libmints.
   by Justin Turney

   Calculation information:
      Number of atoms:                   9
      Number of AO shells:              98
      Number of SO shells:              98
      Number of primitives:            190
      Number of atomic orbitals:       319
      Number of basis functions:       280

      Number of irreps:                  1
      Number of functions per irrep: [ 280 ]

      Overlap, kinetic, potential, dipole, and quadrupole integrals
        stored in file 35.

  ==> Integral Setup <==

  ==> DFJK: Density-Fitted J/K Matrices <==

    J tasked:                  Yes
    K tasked:                  Yes
    wK tasked:                  No
    OpenMP threads:              8
    Integrals threads:           8
    Memory (MB):              5006
    Algorithm:                Core
    Integral Cache:           LOAD
    Schwarz Cutoff:          0E+00
    Fitting Condition:       1E-12

   => Auxiliary Basis Set <=

  Basis Set: aug-cc-pvtz-jkfit
    Number of shells: 186
    Number of basis function: 630
    Number of Cartesian functions: 772
    Spherical Harmonics?: true
    Max angular momentum: 4

  Minimum eigenvalue in the overlap matrix is 5.6354370865E-05.
  Using Symmetric Orthogonalization.
  SCF Guess: Core (One-Electron) Hamiltonian.

  Guess energy:  -332.82889033412681

  ==> Iterations <==

                        Total Energy        Delta E     RMS |[F,P]|

   @RHF iter   1:  -387.22114676240773   -3.87221e+02   2.77455e-02 
   @RHF iter   2:  -319.43905449765253    6.77821e+01   2.95756e-02 DIIS
   @RHF iter   3:  -427.61770672938081   -1.08179e+02   1.25550e-02 DIIS
   @RHF iter   4:  -436.02699208566418   -8.40929e+00   6.65619e-03 DIIS
   @RHF iter   5:  -437.44812558213596   -1.42113e+00   2.76605e-03 DIIS
   @RHF iter   6:  -437.71232090187806   -2.64195e-01   8.72990e-04 DIIS
   @RHF iter   7:  -437.75614846388908   -4.38276e-02   1.45884e-04 DIIS
   @RHF iter   8:  -437.75751914819472   -1.37068e-03   5.10895e-05 DIIS
   @RHF iter   9:  -437.75769363196304   -1.74484e-04   1.37595e-05 DIIS
   @RHF iter  10:  -437.75771689671177   -2.32647e-05   3.14001e-06 DIIS
   @RHF iter  11:  -437.75771829413031   -1.39742e-06   7.09795e-07 DIIS
   @RHF iter  12:  -437.75771836133464   -6.72043e-08   1.62995e-07 DIIS
   @RHF iter  13:  -437.75771836448138   -3.14674e-09   3.11263e-08 DIIS
   @RHF iter  14:  -437.75771836461331   -1.31934e-10   6.85853e-09 DIIS

  ==> Post-Iterations <==

	Orbital Energies (a.u.)
	-----------------------

	Doubly Occupied:                                                      

	   1A    -91.953044     2A    -11.257530     3A     -8.954150  
	   4A     -6.635552     5A     -6.634540     6A     -6.633453  
	   7A     -1.038347     8A     -0.867501     9A     -0.608833  
	  10A     -0.594948    11A     -0.528132    12A     -0.459288  
	  13A     -0.357290  

	Virtual:                                                              

	  14A      0.026419    15A      0.038373    16A      0.040871  
	  17A      0.047775    18A      0.058965    19A      0.082478  
	  20A      0.091083    21A      0.096841    22A      0.110593  
	  23A      0.119969    24A      0.129332    25A      0.136663  
	  26A      0.145730    27A      0.148303    28A      0.161694  
	  29A      0.167260    30A      0.187057    31A      0.194555  
	  32A      0.212632    33A      0.221034    34A      0.248414  
	  35A      0.254754    36A      0.263750    37A      0.275366  
	  38A      0.286150    39A      0.293479    40A      0.315095  
	  41A      0.321711    42A      0.326090    43A      0.332792  
	  44A      0.342258    45A      0.359394    46A      0.366320  
	  47A      0.372955    48A      0.382667    49A      0.386807  
	  50A      0.390225    51A      0.391364    52A      0.407635  
	  53A      0.410794    54A      0.415984    55A      0.424085  
	  56A      0.434167    57A      0.440244    58A      0.450461  
	  59A      0.461180    60A      0.479365    61A      0.496059  
	  62A      0.497749    63A      0.509015    64A      0.527078  
	  65A      0.554981    66A      0.561975    67A      0.641490  
	  68A      0.646437    69A      0.666350    70A      0.680153  
	  71A      0.698219    72A      0.711510    73A      0.733634  
	  74A      0.737307    75A      0.766115    76A      0.784231  
	  77A      0.806616    78A      0.809151    79A      0.826116  
	  80A      0.832244    81A      0.837671    82A      0.842926  
	  83A      0.848969    84A      0.851866    85A      0.870343  
	  86A      0.882033    87A      0.891158    88A      0.897043  
	  89A      0.907503    90A      0.910676    91A      0.938375  
	  92A      0.940054    93A      0.954875    94A      0.959471  
	  95A      0.973079    96A      0.982444    97A      0.982799  
	  98A      1.005169    99A      1.010195   100A      1.035161  
	 101A      1.039676   102A      1.044329   103A      1.050120  
	 104A      1.061533   105A      1.069550   106A      1.106430  
	 107A      1.114843   108A      1.120634   109A      1.136102  
	 110A      1.139333   111A      1.151233   112A      1.190246  
	 113A      1.198997   114A      1.209083   115A      1.219775  
	 116A      1.245699   117A      1.252714   118A      1.272736  
	 119A      1.307854   120A      1.325150   121A      1.336740  
	 122A      1.346675   123A      1.361299   124A      1.367926  
	 125A      1.386986   126A      1.397138   127A      1.417892  
	 128A      1.455993   129A      1.476349   130A      1.514712  
	 131A      1.554302   132A      1.581722   133A      1.593607  
	 134A      1.638324   135A      1.654140   136A      1.664409  
	 137A      1.674142   138A      1.684059   139A      1.702365  
	 140A      1.711072   141A      1.730421   142A      1.739250  
	 143A      1.746955   144A      1.767352   145A      1.789227  
	 146A      1.808906   147A      1.824803   148A      1.830809  
	 149A      1.867475   150A      1.914786   151A      1.950093  
	 152A      1.961765   153A      1.976277   154A      2.036696  
	 155A      2.060506   156A      2.114311   157A      2.130184  
	 158A      2.194305   159A      2.202942   160A      2.215477  
	 161A      2.241071   162A      2.321506   163A      2.374347  
	 164A      2.387294   165A      2.421272   166A      2.453088  
	 167A      2.489309   168A      2.534323   169A      2.545777  
	 170A      2.552878   171A      2.571658   172A      2.579188  
	 173A      2.605435   174A      2.652610   175A      2.671605  
	 176A      2.682805   177A      2.702169   178A      2.722739  
	 179A      2.753158   180A      2.781955   181A      2.813676  
	 182A      2.910917   183A      3.002725   184A      3.056609  
	 185A      3.096467   186A      3.116567   187A      3.190649  
	 188A      3.206216   189A      3.252323   190A      3.360459  
	 191A      3.372045   192A      3.392402   193A      3.478891  
	 194A      3.548485   195A      3.572798   196A      3.587195  
	 197A      3.600597   198A      3.611413   199A      3.634362  
	 200A      3.643798   201A      3.674295   202A      3.769921  
	 203A      3.798254   204A      3.836033   205A      3.943064  
	 206A      3.954358   207A      4.018901   208A      4.032147  
	 209A      4.107633   210A      4.124387   211A      4.140737  
	 212A      4.147282   213A      4.179173   214A      4.223495  
	 215A      4.271405   216A      4.371384   217A      4.423980  
	 218A      4.466936   219A      4.485143   220A      4.494896  
	 221A      4.513690   222A      4.528845   223A      4.548902  
	 224A      4.569538   225A      4.582004   226A      4.626133  
	 227A      4.679681   228A      4.722552   229A      4.763925  
	 230A      4.772886   231A      4.808105   232A      4.842579  
	 233A      4.900763   234A      4.905311   235A      4.917433  
	 236A      4.921347   237A      4.978416   238A      4.982203  
	 239A      5.033728   240A      5.174390   241A      5.195153  
	 242A      5.253713   243A      5.303483   244A      5.364123  
	 245A      5.551286   246A      5.567464   247A      5.584209  
	 248A      5.599459   249A      5.634743   250A      5.648137  
	 251A      5.663574   252A      5.910634   253A      5.991846  
	 254A      6.079802   255A      6.093854   256A      6.142466  
	 257A      6.432427   258A      6.638229   259A      6.673922  
	 260A      6.713670   261A      7.093349   262A      7.701779  
	 263A      7.847027   264A      8.006950   265A      8.051173  
	 266A      8.170464   267A      8.293482   268A      8.801790  
	 269A      8.873240   270A      9.709106   271A      9.851932  
	 272A     10.028278   273A     10.295495   274A     11.249721  
	 275A     11.643544   276A     12.116102   277A     13.603827  
	 278A     13.887572   279A     17.082416   280A     64.991557  

	Final Occupation by Irrep:
	          A 
	DOCC [    13 ]

  Energy converged.

  @RHF Final Energy:  -437.75771836461331

   => Energetics <=

    Nuclear Repulsion Energy =             56.4185508604643360
    One-Electron Energy =                -715.3073184902087860
    Two-Electron Energy =                 221.1310492651305708
    DFT Exchange-Correlation Energy =       0.0000000000000000
    Empirical Dispersion Energy =           0.0000000000000000
    Total Energy =                       -437.7577183646139360



Properties will be evaluated at   0.000000,   0.000000,   0.000000 Bohr
  ==> Properties <==


Properties computed using the SCF density density matrix
  Nuclear Dipole Moment: (a.u.)
     X:    31.8940      Y:    23.8661      Z:   -26.5808

  Electronic Dipole Moment: (a.u.)
     X:   -31.5046      Y:   -23.8037      Z:    27.1111

  Dipole Moment: (a.u.)
     X:     0.3894      Y:     0.0624      Z:     0.5304     Total:     0.6609

  Dipole Moment: (Debye)
     X:     0.9898      Y:     0.1586      Z:     1.3480     Total:     1.6799


  Saving occupied orbitals to File 180.

  Saving SAPT 2-MONOMER_A file.

*** tstop() called on node54.bme.utexas.edu at Fri May 16 18:49:41 2014
Module time:
	user time   =      71.58 seconds =       1.19 minutes
	system time =       0.77 seconds =       0.01 minutes
	total time  =         10 seconds =       0.17 minutes
Total time:
	user time   =     168.25 seconds =       2.80 minutes
	system time =       2.02 seconds =       0.03 minutes
	total time  =         24 seconds =       0.40 minutes

  //>>>>>>>>>>>>>>>>>>>>>>>>>>>>>>>>>>>//
  //            Monomer B HF           //
  //<<<<<<<<<<<<<<<<<<<<<<<<<<<<<<<<<<<//


  No DF_BASIS_SCF auxiliary basis selected, defaulting to aug-cc-pvtz-jkfit


*** tstart() called on node54.bme.utexas.edu
*** at Fri May 16 18:49:41 2014


         ---------------------------------------------------------
                                   SCF
            by Justin Turney, Rob Parrish, and Andy Simmonett
                              RHF Reference
                        8 Threads,   7000 MiB Core
         ---------------------------------------------------------

  ==> Geometry <==

    Molecular point group: c1
    Full point group: C1

    Geometry (in Angstrom), charge = 0, multiplicity = 1:

       Center              X                  Y                   Z       
    ------------   -----------------  -----------------  -----------------
           C(Gh)      1.495153435517     0.095590912297     0.140182877579
           S(Gh)      0.171797435517     0.649495912297    -0.975791122421
           H(Gh)     -0.122636564483     1.777036912297    -0.322440122421
           H(Gh)      1.111006435517    -0.086578087703     1.138226877579
           H(Gh)      1.861730435517    -0.840487087703    -0.270908122421
           H(Gh)      2.307808435517     0.813919912297     0.160750877579
           O         -1.545368098483    -1.313554202703     1.648491402579
           H         -1.455381098483    -0.874838202703     0.794348402579
           H         -2.429023098483    -1.684678202703     1.623966402579

  Running in c1 symmetry.

  Nuclear repulsion =    9.154684379698743

  Charge       = 0
  Multiplicity = 1
  Electrons    = 10
  Nalpha       = 5
  Nbeta        = 5

  ==> Algorithm <==

  SCF Algorithm Type is DF.
  DIIS enabled.
  MOM disabled.
  Fractional occupation disabled.
  Guess Type is CORE.
  Energy threshold   = 1.00e-08
  Density threshold  = 1.00e-08
  Integral threshold = 0.00e+00

  ==> Primary Basis <==

  Basis Set: AUG-CC-PVTZ
    Number of shells: 98
    Number of basis function: 280
    Number of Cartesian functions: 319
    Spherical Harmonics?: true
    Max angular momentum: 3

  ==> Pre-Iterations <==

   -------------------------------------------------------
    Irrep   Nso     Nmo     Nalpha   Nbeta   Ndocc  Nsocc
   -------------------------------------------------------
     A        280     280       0       0       0       0
   -------------------------------------------------------
    Total     280     280       5       5       5       0
   -------------------------------------------------------

 OEINTS: Wrapper to libmints.
   by Justin Turney

   Calculation information:
      Number of atoms:                   9
      Number of AO shells:              98
      Number of SO shells:              98
      Number of primitives:            190
      Number of atomic orbitals:       319
      Number of basis functions:       280

      Number of irreps:                  1
      Number of functions per irrep: [ 280 ]

      Overlap, kinetic, potential, dipole, and quadrupole integrals
        stored in file 35.

  ==> Integral Setup <==

  ==> DFJK: Density-Fitted J/K Matrices <==

    J tasked:                  Yes
    K tasked:                  Yes
    wK tasked:                  No
    OpenMP threads:              8
    Integrals threads:           8
    Memory (MB):              5006
    Algorithm:                Core
    Integral Cache:           LOAD
    Schwarz Cutoff:          0E+00
    Fitting Condition:       1E-12

   => Auxiliary Basis Set <=

  Basis Set: aug-cc-pvtz-jkfit
    Number of shells: 186
    Number of basis function: 630
    Number of Cartesian functions: 772
    Spherical Harmonics?: true
    Max angular momentum: 4

  Minimum eigenvalue in the overlap matrix is 5.6354370865E-05.
  Using Symmetric Orthogonalization.
  SCF Guess: Core (One-Electron) Hamiltonian.

  Guess energy:   -60.19210008886514

  ==> Iterations <==

                        Total Energy        Delta E     RMS |[F,P]|

   @RHF iter   1:   -61.30527026541497   -6.13053e+01   2.87219e-02 
   @RHF iter   2:   -61.91820255361625   -6.12932e-01   1.02008e-02 DIIS
   @RHF iter   3:   -72.60803095362226   -1.06898e+01   1.22960e-02 DIIS
   @RHF iter   4:   -75.15353916236037   -2.54551e+00   5.68335e-03 DIIS
   @RHF iter   5:   -76.03680115767818   -8.83262e-01   6.98582e-04 DIIS
   @RHF iter   6:   -76.05950685907749   -2.27057e-02   1.75286e-04 DIIS
   @RHF iter   7:   -76.06023715834917   -7.30299e-04   2.63202e-05 DIIS
   @RHF iter   8:   -76.06025637373273   -1.92154e-05   4.18166e-06 DIIS
   @RHF iter   9:   -76.06025696256037   -5.88828e-07   6.39762e-07 DIIS
   @RHF iter  10:   -76.06025698262155   -2.00612e-08   6.89462e-08 DIIS
   @RHF iter  11:   -76.06025698292720   -3.05647e-10   2.73284e-08 DIIS
   @RHF iter  12:   -76.06025698295701   -2.98144e-11   2.58765e-09 DIIS

  ==> Post-Iterations <==

	Orbital Energies (a.u.)
	-----------------------

	Doubly Occupied:                                                      

	   1A    -20.568236     2A     -1.351829     3A     -0.714175  
	   4A     -0.585387     5A     -0.510181  

	Virtual:                                                              

	   6A      0.019999     7A      0.035619     8A      0.041867  
	   9A      0.046201    10A      0.062057    11A      0.073473  
	  12A      0.081714    13A      0.095828    14A      0.101767  
	  15A      0.119182    16A      0.121212    17A      0.129638  
	  18A      0.130584    19A      0.159432    20A      0.163691  
	  21A      0.177308    22A      0.193931    23A      0.209733  
	  24A      0.231014    25A      0.247182    26A      0.261902  
	  27A      0.271441    28A      0.278538    29A      0.284961  
	  30A      0.292249    31A      0.295418    32A      0.297119  
	  33A      0.305337    34A      0.309815    35A      0.321253  
	  36A      0.324790    37A      0.338122    38A      0.357735  
	  39A      0.370133    40A      0.381710    41A      0.391372  
	  42A      0.405394    43A      0.407469    44A      0.420656  
	  45A      0.425341    46A      0.436144    47A      0.449274  
	  48A      0.461695    49A      0.472467    50A      0.492320  
	  51A      0.501214    52A      0.511945    53A      0.520789  
	  54A      0.530836    55A      0.545904    56A      0.568284  
	  57A      0.578274    58A      0.597604    59A      0.611826  
	  60A      0.626506    61A      0.642703    62A      0.655720  
	  63A      0.664299    64A      0.680648    65A      0.704514  
	  66A      0.744436    67A      0.749178    68A      0.758588  
	  69A      0.763400    70A      0.798106    71A      0.835738  
	  72A      0.865561    73A      0.905418    74A      0.907764  
	  75A      0.923576    76A      0.927171    77A      0.947300  
	  78A      0.958638    79A      0.968019    80A      0.983140  
	  81A      0.983512    82A      0.990439    83A      1.003098  
	  84A      1.010312    85A      1.022876    86A      1.038779  
	  87A      1.046317    88A      1.058010    89A      1.061029  
	  90A      1.076250    91A      1.085420    92A      1.090683  
	  93A      1.100941    94A      1.114426    95A      1.117102  
	  96A      1.134600    97A      1.138769    98A      1.151564  
	  99A      1.165389   100A      1.172341   101A      1.185417  
	 102A      1.196537   103A      1.208100   104A      1.214432  
	 105A      1.223046   106A      1.226365   107A      1.255394  
	 108A      1.264294   109A      1.269740   110A      1.292192  
	 111A      1.312250   112A      1.329285   113A      1.338058  
	 114A      1.358534   115A      1.384816   116A      1.390485  
	 117A      1.401976   118A      1.402401   119A      1.416001  
	 120A      1.436533   121A      1.443347   122A      1.456645  
	 123A      1.483422   124A      1.517214   125A      1.554037  
	 126A      1.578422   127A      1.613838   128A      1.632664  
	 129A      1.655818   130A      1.708039   131A      1.738178  
	 132A      1.741693   133A      1.802416   134A      1.847710  
	 135A      1.851781   136A      1.869797   137A      1.882857  
	 138A      1.946820   139A      1.960865   140A      1.988346  
	 141A      1.998121   142A      2.018553   143A      2.028898  
	 144A      2.044509   145A      2.073562   146A      2.093156  
	 147A      2.117297   148A      2.135010   149A      2.200756  
	 150A      2.259449   151A      2.295660   152A      2.303011  
	 153A      2.320414   154A      2.360739   155A      2.387014  
	 156A      2.425174   157A      2.437047   158A      2.448460  
	 159A      2.471259   160A      2.487812   161A      2.508607  
	 162A      2.536888   163A      2.580938   164A      2.600451  
	 165A      2.713518   166A      2.730662   167A      2.746559  
	 168A      2.798704   169A      2.882622   170A      2.908197  
	 171A      2.920445   172A      2.932137   173A      3.124196  
	 174A      3.181386   175A      3.197840   176A      3.255319  
	 177A      3.359389   178A      3.382634   179A      3.449130  
	 180A      3.679851   181A      3.682975   182A      3.702699  
	 183A      3.768496   184A      3.818240   185A      3.831820  
	 186A      3.858056   187A      3.906851   188A      3.941575  
	 189A      4.044761   190A      4.058053   191A      4.067220  
	 192A      4.105043   193A      4.133815   194A      4.139439  
	 195A      4.152692   196A      4.179328   197A      4.196678  
	 198A      4.242606   199A      4.292652   200A      4.312126  
	 201A      4.317966   202A      4.348719   203A      4.400459  
	 204A      4.411401   205A      4.428361   206A      4.436274  
	 207A      4.452718   208A      4.480759   209A      4.492947  
	 210A      4.533909   211A      4.563966   212A      4.612673  
	 213A      4.682252   214A      4.691459   215A      4.705396  
	 216A      4.718787   217A      4.799840   218A      4.823837  
	 219A      4.844865   220A      4.911830   221A      4.918904  
	 222A      4.945051   223A      4.959000   224A      4.974606  
	 225A      4.991614   226A      5.054241   227A      5.151589  
	 228A      5.164123   229A      5.195362   230A      5.208139  
	 231A      5.277357   232A      5.301986   233A      5.326611  
	 234A      5.355319   235A      5.372964   236A      5.394207  
	 237A      5.472791   238A      5.490568   239A      5.525950  
	 240A      5.551231   241A      5.619491   242A      5.680048  
	 243A      5.734845   244A      5.820084   245A      5.866929  
	 246A      6.131930   247A      6.179750   248A      6.191236  
	 249A      6.240256   250A      6.250760   251A      6.574342  
	 252A      6.699924   253A      6.715344   254A      6.743052  
	 255A      6.800630   256A      6.971243   257A      7.140669  
	 258A      7.156002   259A      7.282325   260A      7.320387  
	 261A      7.328234   262A      7.403586   263A      7.414179  
	 264A      7.630124   265A      7.749142   266A      7.785653  
	 267A      7.829342   268A      7.943775   269A      7.977662  
	 270A      8.176534   271A      8.206140   272A      8.829438  
	 273A     10.319065   274A     15.291828   275A     15.967650  
	 276A     24.459774   277A     24.950107   278A     25.280866  
	 279A     51.550900   280A    141.736147  

	Final Occupation by Irrep:
	          A 
	DOCC [     5 ]

  Energy converged.

  @RHF Final Energy:   -76.06025698295701

   => Energetics <=

    Nuclear Repulsion Energy =              9.1546843796987432
    One-Electron Energy =                -122.9702662171899448
    Two-Electron Energy =                  37.7553248545342228
    DFT Exchange-Correlation Energy =       0.0000000000000000
    Empirical Dispersion Energy =           0.0000000000000000
    Total Energy =                        -76.0602569829569859



Properties will be evaluated at   0.000000,   0.000000,   0.000000 Bohr
  ==> Properties <==


Properties computed using the SCF density density matrix
  Nuclear Dipole Moment: (a.u.)
     X:   -30.7030      Y:   -24.6948      Z:    29.4915

  Electronic Dipole Moment: (a.u.)
     X:    30.1766      Y:    24.7391      Z:   -30.0732

  Dipole Moment: (a.u.)
     X:    -0.5264      Y:     0.0443      Z:    -0.5817     Total:     0.7858

  Dipole Moment: (Debye)
     X:    -1.3380      Y:     0.1126      Z:    -1.4785     Total:     1.9972


  Saving occupied orbitals to File 180.

  Saving SAPT 2-MONOMER_B file.

*** tstop() called on node54.bme.utexas.edu at Fri May 16 18:49:49 2014
Module time:
	user time   =      58.31 seconds =       0.97 minutes
	system time =       0.55 seconds =       0.01 minutes
	total time  =          8 seconds =       0.13 minutes
Total time:
	user time   =     226.77 seconds =       3.78 minutes
	system time =       2.57 seconds =       0.04 minutes
	total time  =         32 seconds =       0.53 minutes
  No DF_BASIS_SAPT auxiliary basis selected, defaulting to aug-cc-pvtz-ri

  //>>>>>>>>>>>>>>>>>>>>>>>>>>>>>>>>>>>//
  //               SAPT2+              //
  //<<<<<<<<<<<<<<<<<<<<<<<<<<<<<<<<<<<//


*** tstart() called on node54.bme.utexas.edu
*** at Fri May 16 18:49:49 2014

        SAPT2+  
    Ed Hohenstein
     6 June 2009

      Orbital Information
  --------------------------
    NSO        =       280
    NMO        =       280
    NRI        =       635
    NOCC A     =        13
    NOCC B     =         5
    FOCC A     =         6
    FOCC B     =         1
    NVIR A     =       267
    NVIR B     =       275

    Estimated memory usage: 690.9 MB

    Elst10,r            =    -0.005430497507 H
    Exch10 (S^2)        =     0.003072733119 H
    Exch10              =     0.003079271636 H
    Ind20,r (A<-B)      =    -0.001616561581 H
    Ind20,r (B<-A)      =    -0.000209816702 H
    Ind20,r             =    -0.001826378283 H
    Exch-Ind20,r (A<-B) =     0.000895423768 H
    Exch-Ind20,r (B<-A) =     0.000097409770 H
    Exch-Ind20,r        =     0.000992833538 H
    Disp20              =    -0.002783335757 H
    Exch-Disp20         =     0.000286740721 H
    Elst12,r            =     0.000209669474 H
    Exch11              =     0.000117647052 H
    Exch12              =     0.000208803624 H
    Ind22               =    -0.000091790334 H
    Disp21              =     0.000154438958 H
    Disp22 (SDQ)        =     0.000082716011 H

    (i =   1 of   4)         99 seconds
    (i =   2 of   4)        197 seconds
    (i =   3 of   4)        295 seconds
    (i =   4 of   4)        393 seconds

    Disp220 (T)         =    -0.000202568784 H

    (i =   1 of   7)         59 seconds
    (i =   2 of   7)        119 seconds
    (i =   3 of   7)        179 seconds
    (i =   4 of   7)        239 seconds
    (i =   5 of   7)        299 seconds
    (i =   6 of   7)        359 seconds
    (i =   7 of   7)        419 seconds

    Disp202 (T)         =    -0.000274772117 H

    Disp22 (T)          =    -0.000477340901 H

    SAPT Results  
  -----------------------------------------------------------------------
    Electrostatics          -5.22082803 mH      -3.27611919 kcal mol^-1
      Elst10,r              -5.43049751 mH      -3.40768878 kcal mol^-1
      Elst12,r               0.20966947 mH       0.13156959 kcal mol^-1

    Exchange                 3.40572231 mH       2.13712311 kcal mol^-1
      Exch10                 3.07927164 mH       1.93227220 kcal mol^-1
      Exch10(S^2)            3.07273312 mH       1.92816922 kcal mol^-1
      Exch11(S^2)            0.11764705 mH       0.07382464 kcal mol^-1
      Exch12(S^2)            0.20880362 mH       0.13102626 kcal mol^-1

    Induction               -1.27511443 mH      -0.80014642 kcal mol^-1
      Ind20,r               -1.82637828 mH      -1.14606972 kcal mol^-1
      Ind22                 -0.09179033 mH      -0.05759931 kcal mol^-1
      Exch-Ind20,r           0.99283354 mH       0.62301248 kcal mol^-1
      Exch-Ind22             0.04989794 mH       0.03131143 kcal mol^-1
      delta HF,r (2)        -0.39967729 mH      -0.25080130 kcal mol^-1

    Dispersion              -2.73678097 mH      -1.71735606 kcal mol^-1
      Disp20                -2.78333576 mH      -1.74656963 kcal mol^-1
      Disp21                 0.15443896 mH       0.09691191 kcal mol^-1
      Disp22 (SDQ)           0.08271601 mH       0.05190508 kcal mol^-1
      Disp22 (T)            -0.47734090 mH      -0.29953595 kcal mol^-1
      Exch-Disp20            0.28674072 mH       0.17993253 kcal mol^-1

    Total HF                -3.58444791 mH      -2.24927512 kcal mol^-1
    Total SAPT0             -6.08104294 mH      -3.81591222 kcal mol^-1
    Total SAPT2             -5.58681518 mH      -3.50577960 kcal mol^-1
    Total SAPT2+            -5.82700112 mH      -3.65649856 kcal mol^-1

*** tstop() called on node54.bme.utexas.edu at Fri May 16 19:09:58 2014
Module time:
	user time   =    9266.46 seconds =     154.44 minutes
	system time =      73.64 seconds =       1.23 minutes
	total time  =       1209 seconds =      20.15 minutes
Total time:
	user time   =    9493.23 seconds =     158.22 minutes
	system time =      76.21 seconds =       1.27 minutes
	total time  =       1241 seconds =      20.68 minutes

*** PSI4 exiting successfully. Buy a developer a beer!
