
    -----------------------------------------------------------------------
          Psi4: An Open-Source Ab Initio Electronic Structure Package
                               Psi4 1.4a2.dev224 

                         Git: Rev {master} e453b16 


    R. M. Parrish, L. A. Burns, D. G. A. Smith, A. C. Simmonett,
    A. E. DePrince III, E. G. Hohenstein, U. Bozkaya, A. Yu. Sokolov,
    R. Di Remigio, R. M. Richard, J. F. Gonthier, A. M. James,
    H. R. McAlexander, A. Kumar, M. Saitow, X. Wang, B. P. Pritchard,
    P. Verma, H. F. Schaefer III, K. Patkowski, R. A. King, E. F. Valeev,
    F. A. Evangelista, J. M. Turney, T. D. Crawford, and C. D. Sherrill,
    J. Chem. Theory Comput. 13(7) pp 3185--3197 (2017).
    (doi: 10.1021/acs.jctc.7b00174)


                         Additional Contributions by
    P. Kraus, H. Kruse, M. H. Lechner, M. C. Schieber, R. A. Shaw,
    A. Alenaizan, R. Galvelis, Z. L. Glick, S. Lehtola, and J. P. Misiewicz

    -----------------------------------------------------------------------


    Psi4 started on: Thursday, 23 April 2020 04:42PM

    Process ID: 97473
    Host:       node73.bme.utexas.edu
    PSIDATADIR: /home/liuchw/anaconda3/envs/psi4env/share/psi4
    Memory:     500.0 MiB
    Threads:    8
    
  ==> Input File <==

--------------------------------------------------------------------------
#Generated by lconvert.py for sapt job

memory 50 GB

molecule  {
0 1
  C      -3.110210    1.144980   -0.620730
  S      -2.707700   -0.583360   -0.238960
  H      -1.379420   -0.424590   -0.239940
  H      -2.704740    1.438710   -1.583690
  H      -2.748130    1.812570    0.154630
  H      -4.193860    1.210310   -0.661830
--
0 1
  O       2.146940    0.640260   -0.380890
  H       2.741060    0.349360   -1.075960
  H       2.704230    0.666710    0.399780
units angstrom
no_reorient
symmetry c1
}

set {
scf_type DF
basis aug-cc-pvtz
freeze_core True
guess SAD
}
energy('sapt2+')
--------------------------------------------------------------------------

  Memory set to  46.566 GiB by Python driver.

Scratch directory: /scratch/liuchw/

  //>>>>>>>>>>>>>>>>>>>>>>>>>>>>>>>>>>>//
  //              Dimer HF             //
  //<<<<<<<<<<<<<<<<<<<<<<<<<<<<<<<<<<<//


*** tstart() called on node73.bme.utexas.edu
*** at Thu Apr 23 16:42:15 2020

   => Loading Basis Set <=

    Name: AUG-CC-PVTZ
    Role: ORBITAL
    Keyword: BASIS
    atoms 1        entry C          line   239 file /home/liuchw/anaconda3/envs/psi4env/share/psi4/basis/aug-cc-pvtz.gbs 
    atoms 2        entry S          line   906 file /home/liuchw/anaconda3/envs/psi4env/share/psi4/basis/aug-cc-pvtz.gbs 
    atoms 3-6, 8-9 entry H          line    40 file /home/liuchw/anaconda3/envs/psi4env/share/psi4/basis/aug-cc-pvtz.gbs 
    atoms 7        entry O          line   331 file /home/liuchw/anaconda3/envs/psi4env/share/psi4/basis/aug-cc-pvtz.gbs 


         ---------------------------------------------------------
                                   SCF
               by Justin Turney, Rob Parrish, Andy Simmonett
                          and Daniel G. A. Smith
                              RHF Reference
                        8 Threads,  47683 MiB Core
         ---------------------------------------------------------

  ==> Geometry <==

    Molecular point group: c1
    Full point group: C1

    Geometry (in Angstrom), charge = 0, multiplicity = 1:

       Center              X                  Y                   Z               Mass       
    ------------   -----------------  -----------------  -----------------  -----------------
         C           -1.668427986681     0.987103532346    -0.253964274774    12.000000000000
         S           -1.265917986681    -0.741236467654     0.127805725226    31.972071174400
         H            0.062362013319    -0.582466467654     0.126825725226     1.007825032230
         H           -1.262957986681     1.280833532346    -1.216924274774     1.007825032230
         H           -1.306347986681     1.654693532346     0.521395725226     1.007825032230
         H           -2.752077986681     1.052433532346    -0.295064274774     1.007825032230
         O            3.588722013319     0.482383532346    -0.014124274774    15.994914619570
         H            4.182842013319     0.191483532346    -0.709194274774     1.007825032230
         H            4.146012013319     0.508833532346     0.766545725226     1.007825032230

  Running in c1 symmetry.

  Rotational constants: A =      0.42613  B =      0.04912  C =      0.04469 [cm^-1]
  Rotational constants: A =  12775.09877  B =   1472.71511  C =   1339.69196 [MHz]
  Nuclear repulsion =   92.296744839536700

  Charge       = 0
  Multiplicity = 1
  Electrons    = 36
  Nalpha       = 18
  Nbeta        = 18

  ==> Algorithm <==

  SCF Algorithm Type is DF.
  DIIS enabled.
  MOM disabled.
  Fractional occupation disabled.
  Guess Type is SAD.
  Energy threshold   = 1.00e-08
  Density threshold  = 1.00e-08
  Integral threshold = 0.00e+00

  ==> Primary Basis <==

  Basis Set: AUG-CC-PVTZ
    Blend: AUG-CC-PVTZ
    Number of shells: 98
    Number of basis function: 280
    Number of Cartesian functions: 319
    Spherical Harmonics?: true
    Max angular momentum: 3

   => Loading Basis Set <=

    Name: (AUG-CC-PVTZ AUX)
    Role: JKFIT
    Keyword: DF_BASIS_SCF
    atoms 1        entry C          line   162 file /home/liuchw/anaconda3/envs/psi4env/share/psi4/basis/aug-cc-pvtz-jkfit.gbs 
    atoms 2        entry S          line   730 file /home/liuchw/anaconda3/envs/psi4env/share/psi4/basis/aug-cc-pvtz-jkfit.gbs 
    atoms 3-6, 8-9 entry H          line    70 file /home/liuchw/anaconda3/envs/psi4env/share/psi4/basis/aug-cc-pvtz-jkfit.gbs 
    atoms 7        entry O          line   286 file /home/liuchw/anaconda3/envs/psi4env/share/psi4/basis/aug-cc-pvtz-jkfit.gbs 

  ==> Pre-Iterations <==

   -------------------------------------------------------
    Irrep   Nso     Nmo     Nalpha   Nbeta   Ndocc  Nsocc
   -------------------------------------------------------
     A        280     280       0       0       0       0
   -------------------------------------------------------
    Total     280     280      18      18      18       0
   -------------------------------------------------------

  ==> Integral Setup <==

  ==> DiskDFJK: Density-Fitted J/K Matrices <==

    J tasked:                  Yes
    K tasked:                  Yes
    wK tasked:                  No
    OpenMP threads:              8
    Integrals threads:           8
    Memory [MiB]:            35762
    Algorithm:                Core
    Integral Cache:           SAVE
    Schwarz Cutoff:          1E-12
    Fitting Condition:       1E-10

   => Auxiliary Basis Set <=

  Basis Set: (AUG-CC-PVTZ AUX)
    Blend: AUG-CC-PVTZ-JKFIT
    Number of shells: 186
    Number of basis function: 630
    Number of Cartesian functions: 772
    Spherical Harmonics?: true
    Max angular momentum: 4

  Minimum eigenvalue in the overlap matrix is 6.6007138927E-05.
  Using Symmetric Orthogonalization.

  SCF Guess: Superposition of Atomic Densities via on-the-fly atomic UHF.

  ==> Iterations <==

                           Total Energy        Delta E     RMS |[F,P]|

   @DF-RHF iter SAD:  -512.76218691534052   -5.12762e+02   0.00000e+00 
   @DF-RHF iter   1:  -513.67065208267013   -9.08465e-01   2.01422e-03 DIIS
   @DF-RHF iter   2:  -513.77729435010542   -1.06642e-01   1.22467e-03 DIIS
   @DF-RHF iter   3:  -513.81718358596538   -3.98892e-02   1.52948e-04 DIIS
   @DF-RHF iter   4:  -513.81888605770723   -1.70247e-03   4.97995e-05 DIIS
   @DF-RHF iter   5:  -513.81906807976634   -1.82022e-04   1.35111e-05 DIIS
   @DF-RHF iter   6:  -513.81908315325825   -1.50735e-05   4.00737e-06 DIIS
   @DF-RHF iter   7:  -513.81908479531194   -1.64205e-06   1.02019e-06 DIIS
   @DF-RHF iter   8:  -513.81908493015328   -1.34841e-07   3.15383e-07 DIIS
   @DF-RHF iter   9:  -513.81908494126765   -1.11144e-08   6.79096e-08 DIIS
   @DF-RHF iter  10:  -513.81908494188076   -6.13113e-10   1.31384e-08 DIIS
   @DF-RHF iter  11:  -513.81908494190179   -2.10321e-11   3.35562e-09 DIIS
  Energy and wave function converged.


  ==> Post-Iterations <==

    Orbital Energies [Eh]
    ---------------------

    Doubly Occupied:                                                      

       1A    -91.944725     2A    -20.573005     3A    -11.249573  
       4A     -8.945961     5A     -6.627365     6A     -6.626380  
       7A     -6.625316     8A     -1.358070     9A     -1.030481  
      10A     -0.859230    11A     -0.720218    12A     -0.601050  
      13A     -0.591550    14A     -0.585172    15A     -0.519780  
      16A     -0.515539    17A     -0.452454    18A     -0.349189  

    Virtual:                                                              

      19A      0.025330    20A      0.037584    21A      0.043263  
      22A      0.054445    23A      0.058109    24A      0.058740  
      25A      0.099736    26A      0.106666    27A      0.121978  
      28A      0.122651    29A      0.140753    30A      0.142732  
      31A      0.149521    32A      0.155729    33A      0.173383  
      34A      0.174349    35A      0.181120    36A      0.202956  
      37A      0.211984    38A      0.221342    39A      0.231449  
      40A      0.237501    41A      0.253770    42A      0.258653  
      43A      0.268021    44A      0.279072    45A      0.288829  
      46A      0.305138    47A      0.306375    48A      0.325073  
      49A      0.341396    50A      0.343083    51A      0.346240  
      52A      0.351340    53A      0.377061    54A      0.390710  
      55A      0.394379    56A      0.400696    57A      0.405635  
      58A      0.407872    59A      0.425872    60A      0.426817  
      61A      0.437115    62A      0.442482    63A      0.447825  
      64A      0.457955    65A      0.464388    66A      0.469423  
      67A      0.480603    68A      0.499057    69A      0.505296  
      70A      0.516758    71A      0.522829    72A      0.607364  
      73A      0.645344    74A      0.646341    75A      0.664461  
      76A      0.690736    77A      0.694629    78A      0.697541  
      79A      0.717829    80A      0.718140    81A      0.740027  
      82A      0.745923    83A      0.763674    84A      0.790772  
      85A      0.808184    86A      0.830860    87A      0.831900  
      88A      0.844748    89A      0.860890    90A      0.864027  
      91A      0.865741    92A      0.880900    93A      0.882421  
      94A      0.902036    95A      0.912775    96A      0.914836  
      97A      0.939097    98A      0.944490    99A      0.951827  
     100A      0.957360   101A      0.968416   102A      0.974267  
     103A      0.989608   104A      0.993489   105A      0.995885  
     106A      1.018162   107A      1.035174   108A      1.039151  
     109A      1.043181   110A      1.048397   111A      1.050740  
     112A      1.083115   113A      1.091628   114A      1.094358  
     115A      1.095900   116A      1.109430   117A      1.115101  
     118A      1.128700   119A      1.137009   120A      1.158747  
     121A      1.167190   122A      1.196780   123A      1.199593  
     124A      1.206064   125A      1.222625   126A      1.228127  
     127A      1.264274   128A      1.265368   129A      1.287610  
     130A      1.315340   131A      1.335715   132A      1.357704  
     133A      1.367654   134A      1.399733   135A      1.431493  
     136A      1.497654   137A      1.509620   138A      1.551258  
     139A      1.584834   140A      1.597833   141A      1.598651  
     142A      1.635744   143A      1.648458   144A      1.665005  
     145A      1.673515   146A      1.688936   147A      1.709098  
     148A      1.713117   149A      1.724453   150A      1.755152  
     151A      1.775980   152A      1.812292   153A      1.832664  
     154A      1.834147   155A      1.927127   156A      1.939673  
     157A      1.953413   158A      1.981167   159A      2.003493  
     160A      2.026553   161A      2.081045   162A      2.116639  
     163A      2.155042   164A      2.159346   165A      2.192016  
     166A      2.206777   167A      2.237409   168A      2.273706  
     169A      2.297765   170A      2.312481   171A      2.337783  
     172A      2.385091   173A      2.399239   174A      2.425986  
     175A      2.439512   176A      2.457936   177A      2.463835  
     178A      2.490612   179A      2.550324   180A      2.554689  
     181A      2.595293   182A      2.639639   183A      2.670690  
     184A      2.687897   185A      2.717689   186A      2.742943  
     187A      2.772198   188A      2.787878   189A      2.804551  
     190A      2.842435   191A      2.882153   192A      3.042070  
     193A      3.069669   194A      3.101485   195A      3.362273  
     196A      3.371082   197A      3.535469   198A      3.544387  
     199A      3.591952   200A      3.599859   201A      3.609629  
     202A      3.621000   203A      3.659069   204A      3.674103  
     205A      3.748509   206A      3.780489   207A      3.806840  
     208A      3.932218   209A      3.944651   210A      4.009197  
     211A      4.016181   212A      4.017284   213A      4.088641  
     214A      4.095235   215A      4.109906   216A      4.127253  
     217A      4.137170   218A      4.175994   219A      4.185156  
     220A      4.205724   221A      4.250033   222A      4.250502  
     223A      4.280192   224A      4.375653   225A      4.378230  
     226A      4.390770   227A      4.424997   228A      4.467943  
     229A      4.480969   230A      4.495423   231A      4.514952  
     232A      4.526914   233A      4.563395   234A      4.569563  
     235A      4.677598   236A      4.737705   237A      4.769126  
     238A      4.774979   239A      4.824976   240A      4.848349  
     241A      4.914266   242A      4.922080   243A      4.972291  
     244A      5.008156   245A      5.148337   246A      5.151512  
     247A      5.167182   248A      5.186046   249A      5.246586  
     250A      5.261058   251A      5.329043   252A      5.336480  
     253A      5.525641   254A      5.561288   255A      5.581759  
     256A      5.594308   257A      5.617419   258A      5.680744  
     259A      5.978317   260A      6.086268   261A      6.095484  
     262A      6.194252   263A      6.514424   264A      6.625666  
     265A      6.673192   266A      6.711626   267A      6.906337  
     268A      7.141566   269A      7.290428   270A      7.300520  
     271A      7.315515   272A      7.350174   273A      7.358337  
     274A      7.540977   275A      7.729214   276A      7.903743  
     277A      7.928833   278A      8.813176   279A     15.786108  
     280A     17.019446  

    Final Occupation by Irrep:
              A 
    DOCC [    18 ]

  @DF-RHF Final Energy:  -513.81908494190179

   => Energetics <=

    Nuclear Repulsion Energy =             92.2967448395367001
    One-Electron Energy =                -891.8815388926989272
    Two-Electron Energy =                 285.7657091112604348
    Total Energy =                       -513.8190849419017923

Computation Completed


Properties will be evaluated at   0.000000,   0.000000,   0.000000 [a0]

Properties computed using the SCF density matrix

  Nuclear Dipole Moment: [e a0]
     X:     2.8617      Y:     3.8318      Z:    -0.7527

  Electronic Dipole Moment: [e a0]
     X:    -1.8695      Y:    -3.3733      Z:     0.6788

  Dipole Moment: [e a0]
     X:     0.9922      Y:     0.4585      Z:    -0.0738     Total:     1.0955

  Dipole Moment: [D]
     X:     2.5220      Y:     1.1653      Z:    -0.1877     Total:     2.7845


*** tstop() called on node73.bme.utexas.edu at Thu Apr 23 16:42:21 2020
Module time:
	user time   =      32.68 seconds =       0.54 minutes
	system time =       1.29 seconds =       0.02 minutes
	total time  =          6 seconds =       0.10 minutes
Total time:
	user time   =      32.68 seconds =       0.54 minutes
	system time =       1.29 seconds =       0.02 minutes
	total time  =          6 seconds =       0.10 minutes

  //>>>>>>>>>>>>>>>>>>>>>>>>>>>>>>>>>>>//
  //            Monomer A HF           //
  //<<<<<<<<<<<<<<<<<<<<<<<<<<<<<<<<<<<//


*** tstart() called on node73.bme.utexas.edu
*** at Thu Apr 23 16:42:21 2020

   => Loading Basis Set <=

    Name: AUG-CC-PVTZ
    Role: ORBITAL
    Keyword: BASIS
    atoms 1        entry C          line   239 file /home/liuchw/anaconda3/envs/psi4env/share/psi4/basis/aug-cc-pvtz.gbs 
    atoms 2        entry S          line   906 file /home/liuchw/anaconda3/envs/psi4env/share/psi4/basis/aug-cc-pvtz.gbs 
    atoms 3-6, 8-9 entry H          line    40 file /home/liuchw/anaconda3/envs/psi4env/share/psi4/basis/aug-cc-pvtz.gbs 
    atoms 7        entry O          line   331 file /home/liuchw/anaconda3/envs/psi4env/share/psi4/basis/aug-cc-pvtz.gbs 


         ---------------------------------------------------------
                                   SCF
               by Justin Turney, Rob Parrish, Andy Simmonett
                          and Daniel G. A. Smith
                              RHF Reference
                        8 Threads,  47683 MiB Core
         ---------------------------------------------------------

  ==> Geometry <==

    Molecular point group: c1
    Full point group: C1

    Geometry (in Angstrom), charge = 0, multiplicity = 1:

       Center              X                  Y                   Z               Mass       
    ------------   -----------------  -----------------  -----------------  -----------------
         C           -1.668427986681     0.987103532346    -0.253964274774    12.000000000000
         S           -1.265917986681    -0.741236467654     0.127805725226    31.972071174400
         H            0.062362013319    -0.582466467654     0.126825725226     1.007825032230
         H           -1.262957986681     1.280833532346    -1.216924274774     1.007825032230
         H           -1.306347986681     1.654693532346     0.521395725226     1.007825032230
         H           -2.752077986681     1.052433532346    -0.295064274774     1.007825032230
      Gh(O)           3.588722013319     0.482383532346    -0.014124274774    15.994914619570
      Gh(H)           4.182842013319     0.191483532346    -0.709194274774     1.007825032230
      Gh(H)           4.146012013319     0.508833532346     0.766545725226     1.007825032230

  Running in c1 symmetry.

  Rotational constants: A =      0.42613  B =      0.04912  C =      0.04469 [cm^-1]
  Rotational constants: A =  12775.09877  B =   1472.71511  C =   1339.69196 [MHz]
  Nuclear repulsion =   56.437026534680598

  Charge       = 0
  Multiplicity = 1
  Electrons    = 26
  Nalpha       = 13
  Nbeta        = 13

  ==> Algorithm <==

  SCF Algorithm Type is DF.
  DIIS enabled.
  MOM disabled.
  Fractional occupation disabled.
  Guess Type is SAD.
  Energy threshold   = 1.00e-08
  Density threshold  = 1.00e-08
  Integral threshold = 0.00e+00

  ==> Primary Basis <==

  Basis Set: AUG-CC-PVTZ
    Blend: AUG-CC-PVTZ
    Number of shells: 98
    Number of basis function: 280
    Number of Cartesian functions: 319
    Spherical Harmonics?: true
    Max angular momentum: 3

   => Loading Basis Set <=

    Name: (AUG-CC-PVTZ AUX)
    Role: JKFIT
    Keyword: DF_BASIS_SCF
    atoms 1        entry C          line   162 file /home/liuchw/anaconda3/envs/psi4env/share/psi4/basis/aug-cc-pvtz-jkfit.gbs 
    atoms 2        entry S          line   730 file /home/liuchw/anaconda3/envs/psi4env/share/psi4/basis/aug-cc-pvtz-jkfit.gbs 
    atoms 3-6, 8-9 entry H          line    70 file /home/liuchw/anaconda3/envs/psi4env/share/psi4/basis/aug-cc-pvtz-jkfit.gbs 
    atoms 7        entry O          line   286 file /home/liuchw/anaconda3/envs/psi4env/share/psi4/basis/aug-cc-pvtz-jkfit.gbs 

  ==> Pre-Iterations <==

   -------------------------------------------------------
    Irrep   Nso     Nmo     Nalpha   Nbeta   Ndocc  Nsocc
   -------------------------------------------------------
     A        280     280       0       0       0       0
   -------------------------------------------------------
    Total     280     280      13      13      13       0
   -------------------------------------------------------

  ==> Integral Setup <==

  ==> DiskDFJK: Density-Fitted J/K Matrices <==

    J tasked:                  Yes
    K tasked:                  Yes
    wK tasked:                  No
    OpenMP threads:              8
    Integrals threads:           8
    Memory [MiB]:            35762
    Algorithm:                Core
    Integral Cache:           LOAD
    Schwarz Cutoff:          1E-12
    Fitting Condition:       1E-10

   => Auxiliary Basis Set <=

  Basis Set: (AUG-CC-PVTZ AUX)
    Blend: AUG-CC-PVTZ-JKFIT
    Number of shells: 186
    Number of basis function: 630
    Number of Cartesian functions: 772
    Spherical Harmonics?: true
    Max angular momentum: 4

  Minimum eigenvalue in the overlap matrix is 6.6007138927E-05.
  Using Symmetric Orthogonalization.

  SCF Guess: Superposition of Atomic Densities via on-the-fly atomic UHF.

  ==> Iterations <==

                           Total Energy        Delta E     RMS |[F,P]|

   @DF-RHF iter SAD:  -437.28425915196590   -4.37284e+02   0.00000e+00 
   @DF-RHF iter   1:  -437.69188228850470   -4.07623e-01   1.13635e-03 DIIS
   @DF-RHF iter   2:  -437.74703623477876   -5.51539e-02   4.68250e-04 DIIS
   @DF-RHF iter   3:  -437.75640106929819   -9.36483e-03   1.13281e-04 DIIS
   @DF-RHF iter   4:  -437.75750862228034   -1.10755e-03   3.05757e-05 DIIS
   @DF-RHF iter   5:  -437.75759384327819   -8.52210e-05   7.20641e-06 DIIS
   @DF-RHF iter   6:  -437.75759983513717   -5.99186e-06   1.96438e-06 DIIS
   @DF-RHF iter   7:  -437.75760035281718   -5.17680e-07   5.64235e-07 DIIS
   @DF-RHF iter   8:  -437.75760039800326   -4.51861e-08   1.08623e-07 DIIS
   @DF-RHF iter   9:  -437.75760039975989   -1.75663e-09   1.93138e-08 DIIS
   @DF-RHF iter  10:  -437.75760039981299   -5.30918e-11   4.31809e-09 DIIS
  Energy and wave function converged.


  ==> Post-Iterations <==

    Orbital Energies [Eh]
    ---------------------

    Doubly Occupied:                                                      

       1A    -91.953460     2A    -11.257194     3A     -8.954626  
       4A     -6.636014     5A     -6.635012     6A     -6.633932  
       7A     -1.038644     8A     -0.867414     9A     -0.609111  
      10A     -0.592906    11A     -0.528096    12A     -0.460671  
      13A     -0.357320  

    Virtual:                                                              

      14A      0.023192    15A      0.035206    16A      0.042378  
      17A      0.050127    18A      0.055464    19A      0.060191  
      20A      0.092424    21A      0.095556    22A      0.111273  
      23A      0.117873    24A      0.129901    25A      0.137083  
      26A      0.140055    27A      0.147582    28A      0.152316  
      29A      0.158893    30A      0.169462    31A      0.201084  
      32A      0.202126    33A      0.214677    34A      0.227912  
      35A      0.246039    36A      0.254872    37A      0.270702  
      38A      0.276608    39A      0.279253    40A      0.282651  
      41A      0.298913    42A      0.304305    43A      0.318791  
      44A      0.335478    45A      0.340865    46A      0.345617  
      47A      0.349426    48A      0.361989    49A      0.379010  
      50A      0.385049    51A      0.391268    52A      0.398923  
      53A      0.403043    54A      0.403344    55A      0.419451  
      56A      0.422271    57A      0.431033    58A      0.435797  
      59A      0.443704    60A      0.444155    61A      0.454416  
      62A      0.472429    63A      0.478833    64A      0.496518  
      65A      0.514226    66A      0.516072    67A      0.613851  
      68A      0.633608    69A      0.638877    70A      0.664293  
      71A      0.683638    72A      0.693748    73A      0.710735  
      74A      0.727231    75A      0.728669    76A      0.751874  
      77A      0.762469    78A      0.771650    79A      0.797947  
      80A      0.798883    81A      0.816949    82A      0.824548  
      83A      0.836486    84A      0.844197    85A      0.859018  
      86A      0.861108    87A      0.874421    88A      0.876488  
      89A      0.886389    90A      0.905884    91A      0.909699  
      92A      0.912108    93A      0.932027    94A      0.938010  
      95A      0.941614    96A      0.973523    97A      0.974599  
      98A      0.979909    99A      0.985958   100A      0.991645  
     101A      1.009683   102A      1.018810   103A      1.026012  
     104A      1.036379   105A      1.048434   106A      1.067474  
     107A      1.076061   108A      1.079615   109A      1.087321  
     110A      1.089223   111A      1.106668   112A      1.110454  
     113A      1.127288   114A      1.146533   115A      1.160811  
     116A      1.181572   117A      1.195830   118A      1.206771  
     119A      1.221599   120A      1.226010   121A      1.234589  
     122A      1.256626   123A      1.275055   124A      1.304393  
     125A      1.323224   126A      1.350218   127A      1.363086  
     128A      1.391736   129A      1.414487   130A      1.439334  
     131A      1.464011   132A      1.492955   133A      1.575700  
     134A      1.590530   135A      1.621157   136A      1.641347  
     137A      1.651687   138A      1.665043   139A      1.671752  
     140A      1.688874   141A      1.693553   142A      1.699706  
     143A      1.714440   144A      1.724034   145A      1.727936  
     146A      1.747469   147A      1.767677   148A      1.799655  
     149A      1.830679   150A      1.843119   151A      1.932544  
     152A      1.938206   153A      1.952531   154A      1.994678  
     155A      2.018785   156A      2.062707   157A      2.073353  
     158A      2.146889   159A      2.151430   160A      2.184988  
     161A      2.199180   162A      2.231872   163A      2.289883  
     164A      2.348348   165A      2.358719   166A      2.388791  
     167A      2.404085   168A      2.453653   169A      2.495235  
     170A      2.520034   171A      2.527857   172A      2.540560  
     173A      2.549201   174A      2.554839   175A      2.575516  
     176A      2.583842   177A      2.646417   178A      2.655904  
     179A      2.675561   180A      2.725388   181A      2.762353  
     182A      2.814321   183A      2.864297   184A      3.031406  
     185A      3.061899   186A      3.090667   187A      3.163541  
     188A      3.164860   189A      3.190986   190A      3.301725  
     191A      3.324481   192A      3.354773   193A      3.365003  
     194A      3.520143   195A      3.527805   196A      3.539197  
     197A      3.584597   198A      3.592150   199A      3.602184  
     200A      3.613627   201A      3.647309   202A      3.666932  
     203A      3.772769   204A      3.797587   205A      3.924587  
     206A      3.937275   207A      3.999679   208A      4.007363  
     209A      4.080910   210A      4.102154   211A      4.118466  
     212A      4.129237   213A      4.177349   214A      4.197957  
     215A      4.242658   216A      4.350310   217A      4.374860  
     218A      4.425579   219A      4.449075   220A      4.473253  
     221A      4.479646   222A      4.488893   223A      4.511270  
     224A      4.554787   225A      4.559700   226A      4.597416  
     227A      4.650413   228A      4.654595   229A      4.667129  
     230A      4.755260   231A      4.762242   232A      4.806287  
     233A      4.864799   234A      4.868490   235A      4.903005  
     236A      4.908343   237A      4.914726   238A      4.964604  
     239A      5.000895   240A      5.158729   241A      5.178477  
     242A      5.196833   243A      5.253047   244A      5.326288  
     245A      5.547361   246A      5.553721   247A      5.574262  
     248A      5.586506   249A      5.609785   250A      5.611999  
     251A      5.646034   252A      5.839094   253A      5.970448  
     254A      6.078794   255A      6.087862   256A      6.088376  
     257A      6.386418   258A      6.601228   259A      6.617985  
     260A      6.667033   261A      7.057597   262A      7.659545  
     263A      7.716715   264A      7.814123   265A      8.048297  
     266A      8.150227   267A      8.277167   268A      8.725299  
     269A      8.823652   270A      9.641204   271A      9.863217  
     272A      9.983793   273A     10.219508   274A     11.237973  
     275A     11.609894   276A     12.097675   277A     13.492511  
     278A     13.762732   279A     17.011977   280A     64.553951  

    Final Occupation by Irrep:
              A 
    DOCC [    13 ]

  @DF-RHF Final Energy:  -437.75760039981299

   => Energetics <=

    Nuclear Repulsion Energy =             56.4370265346805979
    One-Electron Energy =                -715.3404519331039637
    Two-Electron Energy =                 221.1458249986103226
    Total Energy =                       -437.7576003998129863

Computation Completed


Properties will be evaluated at   0.000000,   0.000000,   0.000000 [a0]

Properties computed using the SCF density matrix

  Nuclear Dipole Moment: [e a0]
     X:   -67.1312      Y:    -4.7842      Z:    -0.6475

  Electronic Dipole Moment: [e a0]
     X:    67.2908      Y:     5.4098      Z:     0.5170

  Dipole Moment: [e a0]
     X:     0.1596      Y:     0.6256      Z:    -0.1306     Total:     0.6587

  Dipole Moment: [D]
     X:     0.4057      Y:     1.5901      Z:    -0.3319     Total:     1.6743


*** tstop() called on node73.bme.utexas.edu at Thu Apr 23 16:42:24 2020
Module time:
	user time   =      19.37 seconds =       0.32 minutes
	system time =       0.91 seconds =       0.02 minutes
	total time  =          3 seconds =       0.05 minutes
Total time:
	user time   =      52.10 seconds =       0.87 minutes
	system time =       2.21 seconds =       0.04 minutes
	total time  =          9 seconds =       0.15 minutes

  //>>>>>>>>>>>>>>>>>>>>>>>>>>>>>>>>>>>//
  //            Monomer B HF           //
  //<<<<<<<<<<<<<<<<<<<<<<<<<<<<<<<<<<<//


*** tstart() called on node73.bme.utexas.edu
*** at Thu Apr 23 16:42:24 2020

   => Loading Basis Set <=

    Name: AUG-CC-PVTZ
    Role: ORBITAL
    Keyword: BASIS
    atoms 1        entry C          line   239 file /home/liuchw/anaconda3/envs/psi4env/share/psi4/basis/aug-cc-pvtz.gbs 
    atoms 2        entry S          line   906 file /home/liuchw/anaconda3/envs/psi4env/share/psi4/basis/aug-cc-pvtz.gbs 
    atoms 3-6, 8-9 entry H          line    40 file /home/liuchw/anaconda3/envs/psi4env/share/psi4/basis/aug-cc-pvtz.gbs 
    atoms 7        entry O          line   331 file /home/liuchw/anaconda3/envs/psi4env/share/psi4/basis/aug-cc-pvtz.gbs 


         ---------------------------------------------------------
                                   SCF
               by Justin Turney, Rob Parrish, Andy Simmonett
                          and Daniel G. A. Smith
                              RHF Reference
                        8 Threads,  47683 MiB Core
         ---------------------------------------------------------

  ==> Geometry <==

    Molecular point group: c1
    Full point group: C1

    Geometry (in Angstrom), charge = 0, multiplicity = 1:

       Center              X                  Y                   Z               Mass       
    ------------   -----------------  -----------------  -----------------  -----------------
      Gh(C)          -1.668427986681     0.987103532346    -0.253964274774    12.000000000000
      Gh(S)          -1.265917986681    -0.741236467654     0.127805725226    31.972071174400
      Gh(H)           0.062362013319    -0.582466467654     0.126825725226     1.007825032230
      Gh(H)          -1.262957986681     1.280833532346    -1.216924274774     1.007825032230
      Gh(H)          -1.306347986681     1.654693532346     0.521395725226     1.007825032230
      Gh(H)          -2.752077986681     1.052433532346    -0.295064274774     1.007825032230
         O            3.588722013319     0.482383532346    -0.014124274774    15.994914619570
         H            4.182842013319     0.191483532346    -0.709194274774     1.007825032230
         H            4.146012013319     0.508833532346     0.766545725226     1.007825032230

  Running in c1 symmetry.

  Rotational constants: A =      0.42613  B =      0.04912  C =      0.04469 [cm^-1]
  Rotational constants: A =  12775.09877  B =   1472.71511  C =   1339.69196 [MHz]
  Nuclear repulsion =    9.174297050826446

  Charge       = 0
  Multiplicity = 1
  Electrons    = 10
  Nalpha       = 5
  Nbeta        = 5

  ==> Algorithm <==

  SCF Algorithm Type is DF.
  DIIS enabled.
  MOM disabled.
  Fractional occupation disabled.
  Guess Type is SAD.
  Energy threshold   = 1.00e-08
  Density threshold  = 1.00e-08
  Integral threshold = 0.00e+00

  ==> Primary Basis <==

  Basis Set: AUG-CC-PVTZ
    Blend: AUG-CC-PVTZ
    Number of shells: 98
    Number of basis function: 280
    Number of Cartesian functions: 319
    Spherical Harmonics?: true
    Max angular momentum: 3

   => Loading Basis Set <=

    Name: (AUG-CC-PVTZ AUX)
    Role: JKFIT
    Keyword: DF_BASIS_SCF
    atoms 1        entry C          line   162 file /home/liuchw/anaconda3/envs/psi4env/share/psi4/basis/aug-cc-pvtz-jkfit.gbs 
    atoms 2        entry S          line   730 file /home/liuchw/anaconda3/envs/psi4env/share/psi4/basis/aug-cc-pvtz-jkfit.gbs 
    atoms 3-6, 8-9 entry H          line    70 file /home/liuchw/anaconda3/envs/psi4env/share/psi4/basis/aug-cc-pvtz-jkfit.gbs 
    atoms 7        entry O          line   286 file /home/liuchw/anaconda3/envs/psi4env/share/psi4/basis/aug-cc-pvtz-jkfit.gbs 

  ==> Pre-Iterations <==

   -------------------------------------------------------
    Irrep   Nso     Nmo     Nalpha   Nbeta   Ndocc  Nsocc
   -------------------------------------------------------
     A        280     280       0       0       0       0
   -------------------------------------------------------
    Total     280     280       5       5       5       0
   -------------------------------------------------------

  ==> Integral Setup <==

  ==> DiskDFJK: Density-Fitted J/K Matrices <==

    J tasked:                  Yes
    K tasked:                  Yes
    wK tasked:                  No
    OpenMP threads:              8
    Integrals threads:           8
    Memory [MiB]:            35762
    Algorithm:                Core
    Integral Cache:           LOAD
    Schwarz Cutoff:          1E-12
    Fitting Condition:       1E-10

   => Auxiliary Basis Set <=

  Basis Set: (AUG-CC-PVTZ AUX)
    Blend: AUG-CC-PVTZ-JKFIT
    Number of shells: 186
    Number of basis function: 630
    Number of Cartesian functions: 772
    Spherical Harmonics?: true
    Max angular momentum: 4

  Minimum eigenvalue in the overlap matrix is 6.6007138927E-05.
  Using Symmetric Orthogonalization.

  SCF Guess: Superposition of Atomic Densities via on-the-fly atomic UHF.

  ==> Iterations <==

                           Total Energy        Delta E     RMS |[F,P]|

   @DF-RHF iter SAD:   -75.47617124393625   -7.54762e+01   0.00000e+00 
   @DF-RHF iter   1:   -75.97597432413241   -4.99803e-01   1.67320e-03 DIIS
   @DF-RHF iter   2:   -76.02848800937545   -5.25137e-02   1.14128e-03 DIIS
   @DF-RHF iter   3:   -76.05997814114278   -3.14901e-02   7.75067e-05 DIIS
   @DF-RHF iter   4:   -76.06036652897245   -3.88388e-04   1.85537e-05 DIIS
   @DF-RHF iter   5:   -76.06039080579723   -2.42768e-05   4.21390e-06 DIIS
   @DF-RHF iter   6:   -76.06039279061541   -1.98482e-06   9.21359e-07 DIIS
   @DF-RHF iter   7:   -76.06039289493528   -1.04320e-07   1.65574e-07 DIIS
   @DF-RHF iter   8:   -76.06039289789811   -2.96284e-09   2.77507e-08 DIIS
   @DF-RHF iter   9:   -76.06039289796330   -6.51852e-11   6.78140e-09 DIIS
  Energy and wave function converged.


  ==> Post-Iterations <==

    Orbital Energies [Eh]
    ---------------------

    Doubly Occupied:                                                      

       1A    -20.567938     2A     -1.352955     3A     -0.715149  
       4A     -0.585959     5A     -0.510391  

    Virtual:                                                              

       6A      0.025138     7A      0.033226     8A      0.043963  
       9A      0.049433    10A      0.055612    11A      0.058706  
      12A      0.094573    13A      0.102498    14A      0.103624  
      15A      0.109845    16A      0.129303    17A      0.132887  
      18A      0.134130    19A      0.153279    20A      0.168019  
      21A      0.179462    22A      0.180085    23A      0.211318  
      24A      0.215012    25A      0.240284    26A      0.253237  
      27A      0.260112    28A      0.263123    29A      0.274635  
      30A      0.286382    31A      0.302601    32A      0.304481  
      33A      0.305759    34A      0.306492    35A      0.318681  
      36A      0.326603    37A      0.337538    38A      0.345319  
      39A      0.351525    40A      0.358802    41A      0.363868  
      42A      0.378057    43A      0.392820    44A      0.412435  
      45A      0.422165    46A      0.435124    47A      0.440745  
      48A      0.449990    49A      0.461688    50A      0.462622  
      51A      0.467336    52A      0.481278    53A      0.502059  
      54A      0.507660    55A      0.549228    56A      0.554567  
      57A      0.561429    58A      0.578204    59A      0.592173  
      60A      0.608974    61A      0.619490    62A      0.624228  
      63A      0.663315    64A      0.672989    65A      0.674275  
      66A      0.681655    67A      0.723172    68A      0.744139  
      69A      0.751518    70A      0.790081    71A      0.838180  
      72A      0.850436    73A      0.906539    74A      0.910331  
      75A      0.911838    76A      0.914052    77A      0.931880  
      78A      0.944278    79A      0.959408    80A      0.973364  
      81A      0.980341    82A      0.982910    83A      0.991728  
      84A      1.010757    85A      1.017333    86A      1.028425  
      87A      1.031190    88A      1.035756    89A      1.051796  
      90A      1.062354    91A      1.067946    92A      1.075068  
      93A      1.094226    94A      1.095670    95A      1.104490  
      96A      1.109735    97A      1.114386    98A      1.127745  
      99A      1.134956   100A      1.137689   101A      1.148532  
     102A      1.153924   103A      1.178011   104A      1.179667  
     105A      1.179717   106A      1.201538   107A      1.204982  
     108A      1.209057   109A      1.220165   110A      1.237581  
     111A      1.242916   112A      1.253417   113A      1.270974  
     114A      1.272926   115A      1.283552   116A      1.299431  
     117A      1.347544   118A      1.364474   119A      1.373697  
     120A      1.387184   121A      1.390091   122A      1.396167  
     123A      1.416828   124A      1.428623   125A      1.456502  
     126A      1.515884   127A      1.524627   128A      1.568328  
     129A      1.609360   130A      1.612202   131A      1.718383  
     132A      1.728088   133A      1.799597   134A      1.821643  
     135A      1.827140   136A      1.855134   137A      1.858172  
     138A      1.881709   139A      1.925372   140A      1.966479  
     141A      1.967508   142A      1.980975   143A      1.991175  
     144A      2.008611   145A      2.067340   146A      2.082490  
     147A      2.085946   148A      2.119337   149A      2.127611  
     150A      2.149858   151A      2.259009   152A      2.275017  
     153A      2.303996   154A      2.318301   155A      2.351177  
     156A      2.377517   157A      2.428283   158A      2.431907  
     159A      2.449907   160A      2.454560   161A      2.459488  
     162A      2.484730   163A      2.490316   164A      2.512344  
     165A      2.679155   166A      2.705589   167A      2.726567  
     168A      2.734472   169A      2.791696   170A      2.824337  
     171A      2.886503   172A      2.904527   173A      3.107079  
     174A      3.112242   175A      3.144855   176A      3.183269  
     177A      3.315073   178A      3.362969   179A      3.461157  
     180A      3.643842   181A      3.661459   182A      3.664424  
     183A      3.696856   184A      3.722807   185A      3.754200  
     186A      3.838635   187A      3.838820   188A      3.918952  
     189A      4.021809   190A      4.044302   191A      4.078072  
     192A      4.090631   193A      4.101777   194A      4.119612  
     195A      4.127417   196A      4.154865   197A      4.180044  
     198A      4.193600   199A      4.254194   200A      4.285167  
     201A      4.303136   202A      4.323024   203A      4.377163  
     204A      4.385581   205A      4.388359   206A      4.427432  
     207A      4.428271   208A      4.431460   209A      4.464339  
     210A      4.494756   211A      4.523431   212A      4.525517  
     213A      4.652539   214A      4.653249   215A      4.694865  
     216A      4.710564   217A      4.746770   218A      4.818277  
     219A      4.822343   220A      4.853622   221A      4.898220  
     222A      4.904804   223A      4.928747   224A      4.953880  
     225A      4.992545   226A      5.036433   227A      5.142372  
     228A      5.153322   229A      5.157496   230A      5.216966  
     231A      5.251907   232A      5.281720   233A      5.324289  
     234A      5.335060   235A      5.341435   236A      5.369999  
     237A      5.463382   238A      5.484457   239A      5.500992  
     240A      5.530488   241A      5.622522   242A      5.666389  
     243A      5.694316   244A      5.831354   245A      5.871673  
     246A      6.133840   247A      6.176034   248A      6.192387  
     249A      6.201839   250A      6.210171   251A      6.519707  
     252A      6.688412   253A      6.708742   254A      6.717019  
     255A      6.831388   256A      6.911722   257A      7.127826  
     258A      7.148096   259A      7.297366   260A      7.305702  
     261A      7.320799   262A      7.357154   263A      7.363451  
     264A      7.546715   265A      7.746544   266A      7.763693  
     267A      7.826976   268A      7.907718   269A      7.934109  
     270A      8.152235   271A      8.186699   272A      8.818210  
     273A     10.299041   274A     14.934519   275A     15.791075  
     276A     24.208774   277A     24.964792   278A     25.263110  
     279A     51.423100   280A    141.704794  

    Final Occupation by Irrep:
              A 
    DOCC [     5 ]

  @DF-RHF Final Energy:   -76.06039289796330

   => Energetics <=

    Nuclear Repulsion Energy =              9.1742970508264463
    One-Electron Energy =                -123.0045948313346713
    Two-Electron Energy =                  37.7699048825449424
    Total Energy =                        -76.0603928979632826

Computation Completed


Properties will be evaluated at   0.000000,   0.000000,   0.000000 [a0]

Properties computed using the SCF density matrix

  Nuclear Dipole Moment: [e a0]
     X:    69.9929      Y:     8.6160      Z:    -0.1051

  Electronic Dipole Moment: [e a0]
     X:   -69.2289      Y:    -8.7912      Z:     0.1619

  Dipole Moment: [e a0]
     X:     0.7639      Y:    -0.1752      Z:     0.0567     Total:     0.7858

  Dipole Moment: [D]
     X:     1.9417      Y:    -0.4454      Z:     0.1442     Total:     1.9974


*** tstop() called on node73.bme.utexas.edu at Thu Apr 23 16:42:26 2020
Module time:
	user time   =      14.88 seconds =       0.25 minutes
	system time =       0.76 seconds =       0.01 minutes
	total time  =          2 seconds =       0.03 minutes
Total time:
	user time   =      67.03 seconds =       1.12 minutes
	system time =       2.98 seconds =       0.05 minutes
	total time  =         11 seconds =       0.18 minutes
  Constructing Basis Sets for SAPT...

   => Loading Basis Set <=

    Name: (AUG-CC-PVTZ AUX)
    Role: RIFIT
    Keyword: DF_BASIS_SAPT
    atoms 1        entry C          line   148 file /home/liuchw/anaconda3/envs/psi4env/share/psi4/basis/aug-cc-pvtz-ri.gbs 
    atoms 2        entry S          line   666 file /home/liuchw/anaconda3/envs/psi4env/share/psi4/basis/aug-cc-pvtz-ri.gbs 
    atoms 3-6, 8-9 entry H          line    30 file /home/liuchw/anaconda3/envs/psi4env/share/psi4/basis/aug-cc-pvtz-ri.gbs 
    atoms 7        entry O          line   264 file /home/liuchw/anaconda3/envs/psi4env/share/psi4/basis/aug-cc-pvtz-ri.gbs 


  //>>>>>>>>>>>>>>>>>>>>>>>>>>>>>>>>>>>//
  //               SAPT2+              //
  //<<<<<<<<<<<<<<<<<<<<<<<<<<<<<<<<<<<//


*** tstart() called on node73.bme.utexas.edu
*** at Thu Apr 23 16:42:26 2020

        SAPT2+  
    Ed Hohenstein
     6 June 2009

      Orbital Information
  --------------------------
    NSO        =       280
    NMO        =       280
    NRI        =       635
    NOCC A     =        13
    NOCC B     =         5
    FOCC A     =         6
    FOCC B     =         1
    NVIR A     =       267
    NVIR B     =       275

    Estimated memory usage: 690.9 MB

    Natural Orbital Cutoff:   1.000E-06
    Disp(T3) Truncation:            Yes
    CCD (vv|vv) Truncation:         Yes
    MBPT T2 Truncation:             Yes

    Monomer A: 111 virtual orbitals dropped
    Monomer B: 197 virtual orbitals dropped

    Elst10,r            =    -0.001046774557 [Eh]
    Exch10 (S^2)        =     0.000035792013 [Eh]
    Exch10              =     0.000035793589 [Eh]
    Ind20,r (A<-B)      =    -0.000069938174 [Eh]
    Ind20,r (B<-A)      =    -0.000009799701 [Eh]
    Ind20,r             =    -0.000079737875 [Eh]
    Exch-Ind20,r (A<-B) =     0.000002611116 [Eh]
    Exch-Ind20,r (B<-A) =     0.000001091234 [Eh]
    Exch-Ind20,r        =     0.000003702350 [Eh]
    Disp20              =    -0.000286735767 [Eh]
    Disp20 (NO)         =    -0.000267253262 [Eh]
    Exch-Disp20         =     0.000004903626 [Eh]
    Elst12,r            =     0.000083978035 [Eh]
    Exch11              =    -0.000000447846 [Eh]
    Exch12              =     0.000008278589 [Eh]
    Ind22               =     0.000004011969 [Eh]
    Disp21              =     0.000027677422 [Eh]
    Disp22 (SDQ)        =     0.000003657916 [Eh]

    (i =   1 of   4)          2 seconds
    (i =   2 of   4)          4 seconds
    (i =   3 of   4)          6 seconds
    (i =   4 of   4)          8 seconds

    Disp220 (T)         =    -0.000020875798 [Eh]

    (i =   1 of   7)          1 seconds
    (i =   2 of   7)          1 seconds
    (i =   3 of   7)          2 seconds
    (i =   4 of   7)          2 seconds
    (i =   5 of   7)          3 seconds
    (i =   6 of   7)          3 seconds
    (i =   7 of   7)          4 seconds

    Disp202 (T)         =    -0.000027339853 [Eh]

    Disp22 (T)          =    -0.000048215651 [Eh]

    Est. Disp220 (T)    =    -0.000022397624 [Eh]
    Est. Disp202 (T)    =    -0.000029332902 [Eh]

    Est. Disp22 (T)     =    -0.000051730526 [Eh]

    SAPT Results 
  --------------------------------------------------------------------------------------------------------
    Electrostatics                 -0.96279652 [mEh]      -0.60416394 [kcal/mol]      -2.52782192 [kJ/mol]
      Elst10,r                     -1.04677456 [mEh]      -0.65686095 [kcal/mol]      -2.74830622 [kJ/mol]
      Elst12,r                      0.08397803 [mEh]       0.05269701 [kcal/mol]       0.22048430 [kJ/mol]

    Exchange                        0.04362433 [mEh]       0.02737468 [kcal/mol]       0.11453567 [kJ/mol]
      Exch10                        0.03579359 [mEh]       0.02246082 [kcal/mol]       0.09397606 [kJ/mol]
      Exch10(S^2)                   0.03579201 [mEh]       0.02245983 [kcal/mol]       0.09397192 [kJ/mol]
      Exch11(S^2)                  -0.00044785 [mEh]      -0.00028103 [kcal/mol]      -0.00117582 [kJ/mol]
      Exch12(S^2)                   0.00827859 [mEh]       0.00519489 [kcal/mol]       0.02173543 [kJ/mol]

    Induction                      -0.07683747 [mEh]      -0.04821624 [kcal/mol]      -0.20173675 [kJ/mol]
      Ind20,r                      -0.07973787 [mEh]      -0.05003627 [kcal/mol]      -0.20935176 [kJ/mol]
      Ind22                         0.00401197 [mEh]       0.00251755 [kcal/mol]       0.01053342 [kJ/mol]
      Exch-Ind20,r                  0.00370235 [mEh]       0.00232326 [kcal/mol]       0.00972052 [kJ/mol]
      Exch-Ind22                   -0.00018628 [mEh]      -0.00011689 [kcal/mol]      -0.00048908 [kJ/mol]
      delta HF,r (2)               -0.00462763 [mEh]      -0.00290388 [kcal/mol]      -0.01214985 [kJ/mol]

    Dispersion                     -0.30222733 [mEh]      -0.18965051 [kcal/mol]      -0.79349774 [kJ/mol]
      Disp20                       -0.28673577 [mEh]      -0.17992941 [kcal/mol]      -0.75282465 [kJ/mol]
      Disp21                        0.02767742 [mEh]       0.01736784 [kcal/mol]       0.07266706 [kJ/mol]
      Disp22 (SDQ)                  0.00365792 [mEh]       0.00229538 [kcal/mol]       0.00960386 [kJ/mol]
      Disp22 (T)                   -0.04821565 [mEh]      -0.03025578 [kcal/mol]      -0.12659017 [kJ/mol]
      Est. Disp22 (T)              -0.05173053 [mEh]      -0.03246139 [kcal/mol]      -0.13581848 [kJ/mol]
      Exch-Disp20                   0.00490363 [mEh]       0.00307707 [kcal/mol]       0.01287447 [kJ/mol]

  Total HF                         -1.09164413 [mEh]      -0.68501703 [kcal/mol]      -2.86611126 [kJ/mol]
  Total SAPT0                      -1.37347627 [mEh]      -0.86186937 [kcal/mol]      -3.60606144 [kJ/mol]
  Total SAPT2                      -1.27784180 [mEh]      -0.80185784 [kcal/mol]      -3.35497319 [kJ/mol]
  Total SAPT2+                     -1.29823699 [mEh]      -0.81465601 [kcal/mol]      -3.40852075 [kJ/mol]

  Special recipe for scaled SAPT0 (see Manual):
    Electrostatics sSAPT0          -1.04677456 [mEh]      -0.65686095 [kcal/mol]      -2.74830622 [kJ/mol]
    Exchange sSAPT0                 0.03579359 [mEh]       0.02246082 [kcal/mol]       0.09397606 [kJ/mol]
    Induction sSAPT0               -0.08066267 [mEh]      -0.05061659 [kcal/mol]      -0.21177981 [kJ/mol]
    Dispersion sSAPT0              -0.28183149 [mEh]      -0.17685193 [kcal/mol]      -0.73994849 [kJ/mol]
  Total sSAPT0                     -1.37347513 [mEh]      -0.86186866 [kcal/mol]      -3.60605846 [kJ/mol]
  --------------------------------------------------------------------------------------------------------

*** tstop() called on node73.bme.utexas.edu at Thu Apr 23 16:43:13 2020
Module time:
	user time   =     336.34 seconds =       5.61 minutes
	system time =      17.95 seconds =       0.30 minutes
	total time  =         47 seconds =       0.78 minutes
Total time:
	user time   =     404.12 seconds =       6.74 minutes
	system time =      20.98 seconds =       0.35 minutes
	total time  =         58 seconds =       0.97 minutes

    Psi4 stopped on: Thursday, 23 April 2020 04:43PM
    Psi4 wall time for execution: 0:00:57.67

*** Psi4 exiting successfully. Buy a developer a beer!
