    -----------------------------------------------------------------------
          PSI4: An Open-Source Ab Initio Electronic Structure Package
                              PSI 4.0.0-beta4 Driver

    J. M. Turney, A. C. Simmonett, R. M. Parrish, E. G. Hohenstein,
    F. A. Evangelista, J. T. Fermann, B. J. Mintz, L. A. Burns, J. J. Wilke,
    M. L. Abrams, N. J. Russ, M. L. Leininger, C. L. Janssen, E. T. Seidl,
    W. D. Allen, H. F. Schaefer, R. A. King, E. F. Valeev, C. D. Sherrill,
    and T. D. Crawford, WIREs Comput. Mol. Sci., (2011) (doi: 10.1002/wcms.93)

                         Additional Contributions by
    A. E. DePrince, M. Saitow, U. Bozkaya, A. Yu. Sokolov
    -----------------------------------------------------------------------

    Process ID:  12031
    PSI4DATADIR: /home/xzhu216/psi4/psi4-install/share/psi

    Using LocalCommunicator (Number of processes = 1)

    Memory level set to 256.000 MB

  ==> Input File <==

--------------------------------------------------------------------------
#psi4
#
memory 4 gb

molecule CH3SH_CH3SH  {
0 1
    C     0.794821000    -0.002736000    -0.413600000
    S     0.780279000     1.808498000    -0.282015000
    H     1.198609000     1.874300000     0.985121000
    H     0.053816000    -0.448810000     0.243536000
    H     0.541254000    -0.232542000    -1.444973000
    H     1.782470000    -0.400099000    -0.203580000

--
0 1

    C    -2.400955066     0.540596180    -0.791735701
    S    -2.064745066     0.638423180     0.988865299
    H    -1.053277066     1.508551180     0.883400299
    H    -1.537938066     0.166929180    -1.334608701
    H    -2.699220066     1.506186180    -1.187059701
    H    -3.222650066    -0.159526820    -0.914088701
units angstrom
no_reorient  #important for SAPT in psi4, default
symmetry c1  #important for SAPT in psi4, default
}

set {
basis aug-cc-pVTZ
scf_type DF
freeze_core True
}
energy('sapt2+')
--------------------------------------------------------------------------

  Memory set to   4.000 GiB by Python script.

  //>>>>>>>>>>>>>>>>>>>>>>>>>>>>>>>>>>>//
  //              Dimer HF             //
  //<<<<<<<<<<<<<<<<<<<<<<<<<<<<<<<<<<<//


  No DF_BASIS_SCF auxiliary basis selected, defaulting to aug-cc-pvtz-jkfit


*** tstart() called on node127.bme.utexas.edu
*** at Mon May 19 16:51:56 2014


         ---------------------------------------------------------
                                   SCF
            by Justin Turney, Rob Parrish, and Andy Simmonett
                              RHF Reference
                        8 Threads,   4000 MiB Core
         ---------------------------------------------------------

  ==> Geometry <==

    Molecular point group: c1
    Full point group: C1

    Geometry (in Angstrom), charge = 0, multiplicity = 1:

       Center              X                  Y                   Z       
    ------------   -----------------  -----------------  -----------------
           C          1.475150479625    -0.924882704554    -0.467137164527
           S          1.460608479625     0.886351295446    -0.335552164527
           H          1.878938479625     0.952153295446     0.931583835473
           H          0.734145479625    -1.370956704554     0.189998835473
           H          1.221583479625    -1.154688704554    -1.498510164527
           H          2.462799479625    -1.322245704554    -0.257117164527
           C         -1.720625586375    -0.381550524554    -0.845272865527
           S         -1.384415586375    -0.283723524554     0.935328134473
           H         -0.372947586375     0.586404475446     0.829863134473
           H         -0.857608586375    -0.755217524554    -1.388145865527
           H         -2.018890586375     0.584039475446    -1.240596865527
           H         -2.542320586375    -1.081673524554    -0.967625865527

  Running in c1 symmetry.

  Nuclear repulsion =  220.962927098936774

  Charge       = 0
  Multiplicity = 1
  Electrons    = 52
  Nalpha       = 26
  Nbeta        = 26

  ==> Algorithm <==

  SCF Algorithm Type is DF.
  DIIS enabled.
  MOM disabled.
  Fractional occupation disabled.
  Guess Type is CORE.
  Energy threshold   = 1.00e-08
  Density threshold  = 1.00e-08
  Integral threshold = 0.00e+00

  ==> Primary Basis <==

  Basis Set: AUG-CC-PVTZ
    Number of shells: 132
    Number of basis function: 376
    Number of Cartesian functions: 428
    Spherical Harmonics?: true
    Max angular momentum: 3

  ==> Pre-Iterations <==

   -------------------------------------------------------
    Irrep   Nso     Nmo     Nalpha   Nbeta   Ndocc  Nsocc
   -------------------------------------------------------
     A        376     376       0       0       0       0
   -------------------------------------------------------
    Total     376     376      26      26      26       0
   -------------------------------------------------------

 OEINTS: Wrapper to libmints.
   by Justin Turney

   Calculation information:
      Number of atoms:                  12
      Number of AO shells:             132
      Number of SO shells:             132
      Number of primitives:            276
      Number of atomic orbitals:       428
      Number of basis functions:       376

      Number of irreps:                  1
      Number of functions per irrep: [ 376 ]

      Overlap, kinetic, potential, dipole, and quadrupole integrals
        stored in file 35.

  ==> Integral Setup <==

  ==> DFJK: Density-Fitted J/K Matrices <==

    J tasked:                  Yes
    K tasked:                  Yes
    wK tasked:                  No
    OpenMP threads:              8
    Integrals threads:           8
    Memory (MB):              2861
    Algorithm:                Core
    Integral Cache:           SAVE
    Schwarz Cutoff:          0E+00
    Fitting Condition:       1E-12

   => Auxiliary Basis Set <=

  Basis Set: aug-cc-pvtz-jkfit
    Number of shells: 256
    Number of basis function: 868
    Number of Cartesian functions: 1062
    Spherical Harmonics?: true
    Max angular momentum: 4

  Minimum eigenvalue in the overlap matrix is 1.5106060653E-05.
  Using Symmetric Orthogonalization.
  SCF Guess: Core (One-Electron) Hamiltonian.

  Guess energy:  -666.33249126902206

  ==> Iterations <==

                        Total Energy        Delta E     RMS |[F,P]|

   @RHF iter   1:  -774.85639806611721   -7.74856e+02   3.05607e-02 
   @RHF iter   2:  -634.46224369269282    1.40394e+02   3.09050e-02 DIIS
   @RHF iter   3:  -841.64226815212294   -2.07180e+02   1.64612e-02 DIIS
   @RHF iter   4:  -863.93708543492119   -2.22948e+01   9.93262e-03 DIIS
   @RHF iter   5:  -849.61541429741612    1.43217e+01   1.46125e-02 DIIS
   @RHF iter   6:  -874.77062895891356   -2.51552e+01   3.17160e-03 DIIS
   @RHF iter   7:  -875.25972442500790   -4.89095e-01   1.52415e-03 DIIS
   @RHF iter   8:  -875.46707036039095   -2.07346e-01   4.71062e-04 DIIS
   @RHF iter   9:  -875.49280310495521   -2.57327e-02   1.01280e-04 DIIS
   @RHF iter  10:  -875.49410691928904   -1.30381e-03   3.08813e-05 DIIS
   @RHF iter  11:  -875.49430155481775   -1.94636e-04   1.06562e-05 DIIS
   @RHF iter  12:  -875.49432732350112   -2.57687e-05   3.40191e-06 DIIS
   @RHF iter  13:  -875.49432983518489   -2.51168e-06   9.63684e-07 DIIS
   @RHF iter  14:  -875.49433005157687   -2.16392e-07   2.79225e-07 DIIS
   @RHF iter  15:  -875.49433006941797   -1.78411e-08   9.33614e-08 DIIS
   @RHF iter  16:  -875.49433007144501   -2.02704e-09   3.17383e-08 DIIS
   @RHF iter  17:  -875.49433007175696   -3.11957e-10   1.17258e-08 DIIS
   @RHF iter  18:  -875.49433007180994   -5.29781e-11   3.58812e-09 DIIS

  ==> Post-Iterations <==

	Orbital Energies (a.u.)
	-----------------------

	Doubly Occupied:                                                      

	   1A    -91.962349     2A    -91.936103     3A    -11.258259  
	   4A    -11.250698     5A     -8.964221     6A     -8.938498  
	   7A     -6.645526     8A     -6.644514     9A     -6.643610  
	  10A     -6.619872    11A     -6.619023    12A     -6.617986  
	  13A     -1.056513    14A     -1.025589    15A     -0.879795  
	  16A     -0.859558    17A     -0.629581    18A     -0.614843  
	  19A     -0.597256    20A     -0.568561    21A     -0.536861  
	  22A     -0.522690    23A     -0.470197    24A     -0.458244  
	  25A     -0.358274    26A     -0.346725  

	Virtual:                                                              

	  27A      0.028896    28A      0.035433    29A      0.040542  
	  30A      0.046231    31A      0.056275    32A      0.060650  
	  33A      0.064723    34A      0.082171    35A      0.087154  
	  36A      0.091812    37A      0.110023    38A      0.115089  
	  39A      0.123203    40A      0.124614    41A      0.129321  
	  42A      0.131304    43A      0.135525    44A      0.148849  
	  45A      0.154813    46A      0.159731    47A      0.164746  
	  48A      0.172818    49A      0.179532    50A      0.197732  
	  51A      0.208565    52A      0.222831    53A      0.229195  
	  54A      0.242523    55A      0.248554    56A      0.252715  
	  57A      0.263431    58A      0.275056    59A      0.284123  
	  60A      0.288412    61A      0.296287    62A      0.311251  
	  63A      0.315543    64A      0.323358    65A      0.326034  
	  66A      0.335243    67A      0.349400    68A      0.354427  
	  69A      0.364606    70A      0.367641    71A      0.372445  
	  72A      0.377571    73A      0.380085    74A      0.387121  
	  75A      0.390725    76A      0.394591    77A      0.401676  
	  78A      0.408525    79A      0.411905    80A      0.414840  
	  81A      0.429489    82A      0.436503    83A      0.441014  
	  84A      0.445326    85A      0.449879    86A      0.457625  
	  87A      0.461451    88A      0.464439    89A      0.475643  
	  90A      0.477151    91A      0.496604    92A      0.511046  
	  93A      0.515053    94A      0.527462    95A      0.537013  
	  96A      0.541539    97A      0.544421    98A      0.557140  
	  99A      0.572034   100A      0.574492   101A      0.579890  
	 102A      0.596415   103A      0.615972   104A      0.640141  
	 105A      0.659955   106A      0.674947   107A      0.697071  
	 108A      0.711687   109A      0.718096   110A      0.729766  
	 111A      0.734678   112A      0.750572   113A      0.753067  
	 114A      0.756377   115A      0.770125   116A      0.785915  
	 117A      0.796850   118A      0.807220   119A      0.812027  
	 120A      0.818551   121A      0.836194   122A      0.848370  
	 123A      0.852010   124A      0.860018   125A      0.866866  
	 126A      0.873765   127A      0.877842   128A      0.886459  
	 129A      0.896275   130A      0.901492   131A      0.909913  
	 132A      0.917065   133A      0.927890   134A      0.945826  
	 135A      0.960588   136A      0.963836   137A      0.973214  
	 138A      0.981883   139A      0.987880   140A      0.998120  
	 141A      1.001755   142A      1.021964   143A      1.031633  
	 144A      1.034071   145A      1.039919   146A      1.057878  
	 147A      1.063286   148A      1.071852   149A      1.077875  
	 150A      1.083241   151A      1.094129   152A      1.108733  
	 153A      1.124864   154A      1.133156   155A      1.145383  
	 156A      1.156890   157A      1.166328   158A      1.177051  
	 159A      1.185477   160A      1.195421   161A      1.206295  
	 162A      1.214655   163A      1.224675   164A      1.238210  
	 165A      1.246415   166A      1.256452   167A      1.280038  
	 168A      1.292959   169A      1.296854   170A      1.311124  
	 171A      1.316487   172A      1.325311   173A      1.342076  
	 174A      1.352011   175A      1.360462   176A      1.368907  
	 177A      1.380417   178A      1.397573   179A      1.403309  
	 180A      1.413138   181A      1.427413   182A      1.434369  
	 183A      1.447019   184A      1.452672   185A      1.480786  
	 186A      1.492610   187A      1.498162   188A      1.511615  
	 189A      1.539531   190A      1.549683   191A      1.556549  
	 192A      1.575819   193A      1.579139   194A      1.594211  
	 195A      1.618427   196A      1.622534   197A      1.642943  
	 198A      1.659634   199A      1.673055   200A      1.681082  
	 201A      1.703063   202A      1.720090   203A      1.731968  
	 204A      1.739267   205A      1.743893   206A      1.755179  
	 207A      1.762473   208A      1.777535   209A      1.784913  
	 210A      1.802205   211A      1.813430   212A      1.824368  
	 213A      1.834879   214A      1.846235   215A      1.871389  
	 216A      1.878260   217A      1.892029   218A      1.910282  
	 219A      1.945238   220A      1.956933   221A      1.972460  
	 222A      1.982247   223A      2.014605   224A      2.022028  
	 225A      2.045654   226A      2.075352   227A      2.089407  
	 228A      2.116356   229A      2.139016   230A      2.159354  
	 231A      2.169754   232A      2.192570   233A      2.221905  
	 234A      2.244316   235A      2.264879   236A      2.277679  
	 237A      2.311463   238A      2.332860   239A      2.343168  
	 240A      2.392047   241A      2.411278   242A      2.433974  
	 243A      2.445901   244A      2.473016   245A      2.498586  
	 246A      2.519362   247A      2.547032   248A      2.561273  
	 249A      2.609059   250A      2.622749   251A      2.656549  
	 252A      2.666378   253A      2.674937   254A      2.682851  
	 255A      2.700678   256A      2.713084   257A      2.740821  
	 258A      2.772257   259A      2.774171   260A      2.801582  
	 261A      2.826708   262A      2.846324   263A      2.858160  
	 264A      2.889596   265A      3.020967   266A      3.090404  
	 267A      3.124667   268A      3.140451   269A      3.202125  
	 270A      3.233898   271A      3.292069   272A      3.329897  
	 273A      3.418099   274A      3.439110   275A      3.478930  
	 276A      3.523979   277A      3.584238   278A      3.595453  
	 279A      3.619771   280A      3.625923   281A      3.635317  
	 282A      3.655203   283A      3.667614   284A      3.681697  
	 285A      3.704020   286A      3.715046   287A      3.752913  
	 288A      3.759754   289A      3.771760   290A      3.850581  
	 291A      3.894653   292A      3.909744   293A      3.930611  
	 294A      3.953032   295A      3.976079   296A      3.990478  
	 297A      4.008925   298A      4.048464   299A      4.057728  
	 300A      4.092699   301A      4.111369   302A      4.137242  
	 303A      4.146964   304A      4.151488   305A      4.171106  
	 306A      4.195432   307A      4.202627   308A      4.213277  
	 309A      4.230509   310A      4.243878   311A      4.262256  
	 312A      4.271133   313A      4.315659   314A      4.322602  
	 315A      4.356742   316A      4.386470   317A      4.407996  
	 318A      4.481209   319A      4.498520   320A      4.507960  
	 321A      4.517673   322A      4.540396   323A      4.552794  
	 324A      4.559730   325A      4.572520   326A      4.577750  
	 327A      4.628243   328A      4.652625   329A      4.700743  
	 330A      4.723252   331A      4.761068   332A      4.773595  
	 333A      4.811006   334A      4.826904   335A      4.853596  
	 336A      4.881812   337A      4.901113   338A      4.943637  
	 339A      4.955903   340A      4.978433   341A      4.996227  
	 342A      5.013013   343A      5.060880   344A      5.099986  
	 345A      5.116963   346A      5.159056   347A      5.205717  
	 348A      5.233626   349A      5.250141   350A      5.278192  
	 351A      5.322980   352A      5.336510   353A      5.404259  
	 354A      5.436415   355A      5.562186   356A      5.595110  
	 357A      5.602225   358A      5.641687   359A      5.652979  
	 360A      5.660505   361A      5.679841   362A      5.741059  
	 363A      6.040477   364A      6.044261   365A      6.095617  
	 366A      6.128183   367A      6.134571   368A      6.218170  
	 369A      6.696513   370A      6.717889   371A      6.768095  
	 372A      6.805171   373A      8.306656   374A      8.384636  
	 375A     17.496432   376A     17.633861  

	Final Occupation by Irrep:
	          A 
	DOCC [    26 ]

  Energy converged.

  @RHF Final Energy:  -875.49433007180994

   => Energetics <=

    Nuclear Repulsion Energy =            220.9629270989367740
    One-Electron Energy =               -1646.8638221327362317
    Two-Electron Energy =                 550.4065649619919895
    DFT Exchange-Correlation Energy =       0.0000000000000000
    Empirical Dispersion Energy =           0.0000000000000000
    Total Energy =                       -875.4943300718075534



Properties will be evaluated at   0.000000,   0.000000,   0.000000 Bohr
  ==> Properties <==


Properties computed using the SCF density density matrix
  Nuclear Dipole Moment: (a.u.)
     X:     0.4761      Y:    -3.3235      Z:    -3.1721

  Electronic Dipole Moment: (a.u.)
     X:    -0.0799      Y:     2.9736      Z:     2.7752

  Dipole Moment: (a.u.)
     X:     0.3961      Y:    -0.3499      Z:    -0.3968     Total:     0.6610

  Dipole Moment: (Debye)
     X:     1.0069      Y:    -0.8894      Z:    -1.0087     Total:     1.6800


  Saving occupied orbitals to File 180.

  Saving SAPT 2-DIMER file.

*** tstop() called on node127.bme.utexas.edu at Mon May 19 16:52:36 2014
Module time:
	user time   =     284.81 seconds =       4.75 minutes
	system time =       3.25 seconds =       0.05 minutes
	total time  =         40 seconds =       0.67 minutes
Total time:
	user time   =     284.81 seconds =       4.75 minutes
	system time =       3.25 seconds =       0.05 minutes
	total time  =         40 seconds =       0.67 minutes

  //>>>>>>>>>>>>>>>>>>>>>>>>>>>>>>>>>>>//
  //            Monomer A HF           //
  //<<<<<<<<<<<<<<<<<<<<<<<<<<<<<<<<<<<//


  No DF_BASIS_SCF auxiliary basis selected, defaulting to aug-cc-pvtz-jkfit


*** tstart() called on node127.bme.utexas.edu
*** at Mon May 19 16:52:36 2014


         ---------------------------------------------------------
                                   SCF
            by Justin Turney, Rob Parrish, and Andy Simmonett
                              RHF Reference
                        8 Threads,   4000 MiB Core
         ---------------------------------------------------------

  ==> Geometry <==

    Molecular point group: c1
    Full point group: C1

    Geometry (in Angstrom), charge = 0, multiplicity = 1:

       Center              X                  Y                   Z       
    ------------   -----------------  -----------------  -----------------
           C          1.475150479625    -0.924882704554    -0.467137164527
           S          1.460608479625     0.886351295446    -0.335552164527
           H          1.878938479625     0.952153295446     0.931583835473
           H          0.734145479625    -1.370956704554     0.189998835473
           H          1.221583479625    -1.154688704554    -1.498510164527
           H          2.462799479625    -1.322245704554    -0.257117164527
           C(Gh)     -1.720625586375    -0.381550524554    -0.845272865527
           S(Gh)     -1.384415586375    -0.283723524554     0.935328134473
           H(Gh)     -0.372947586375     0.586404475446     0.829863134473
           H(Gh)     -0.857608586375    -0.755217524554    -1.388145865527
           H(Gh)     -2.018890586375     0.584039475446    -1.240596865527
           H(Gh)     -2.542320586375    -1.081673524554    -0.967625865527

  Running in c1 symmetry.

  Nuclear repulsion =   56.432684484561506

  Charge       = 0
  Multiplicity = 1
  Electrons    = 26
  Nalpha       = 13
  Nbeta        = 13

  ==> Algorithm <==

  SCF Algorithm Type is DF.
  DIIS enabled.
  MOM disabled.
  Fractional occupation disabled.
  Guess Type is CORE.
  Energy threshold   = 1.00e-08
  Density threshold  = 1.00e-08
  Integral threshold = 0.00e+00

  ==> Primary Basis <==

  Basis Set: AUG-CC-PVTZ
    Number of shells: 132
    Number of basis function: 376
    Number of Cartesian functions: 428
    Spherical Harmonics?: true
    Max angular momentum: 3

  ==> Pre-Iterations <==

   -------------------------------------------------------
    Irrep   Nso     Nmo     Nalpha   Nbeta   Ndocc  Nsocc
   -------------------------------------------------------
     A        376     376       0       0       0       0
   -------------------------------------------------------
    Total     376     376      13      13      13       0
   -------------------------------------------------------

 OEINTS: Wrapper to libmints.
   by Justin Turney

   Calculation information:
      Number of atoms:                  12
      Number of AO shells:             132
      Number of SO shells:             132
      Number of primitives:            276
      Number of atomic orbitals:       428
      Number of basis functions:       376

      Number of irreps:                  1
      Number of functions per irrep: [ 376 ]

      Overlap, kinetic, potential, dipole, and quadrupole integrals
        stored in file 35.

  ==> Integral Setup <==

  ==> DFJK: Density-Fitted J/K Matrices <==

    J tasked:                  Yes
    K tasked:                  Yes
    wK tasked:                  No
    OpenMP threads:              8
    Integrals threads:           8
    Memory (MB):              2861
    Algorithm:                Core
    Integral Cache:           LOAD
    Schwarz Cutoff:          0E+00
    Fitting Condition:       1E-12

   => Auxiliary Basis Set <=

  Basis Set: aug-cc-pvtz-jkfit
    Number of shells: 256
    Number of basis function: 868
    Number of Cartesian functions: 1062
    Spherical Harmonics?: true
    Max angular momentum: 4

  Minimum eigenvalue in the overlap matrix is 1.5106060653E-05.
  Using Symmetric Orthogonalization.
  SCF Guess: Core (One-Electron) Hamiltonian.

  Guess energy:  -332.99548946879361

  ==> Iterations <==

                        Total Energy        Delta E     RMS |[F,P]|

   @RHF iter   1:  -386.63730347171332   -3.86637e+02   2.12324e-02 
   @RHF iter   2:  -319.40242160327165    6.72349e+01   2.20945e-02 DIIS
   @RHF iter   3:  -424.40712484191795   -1.05005e+02   1.03151e-02 DIIS
   @RHF iter   4:  -435.20130176620899   -1.07942e+01   5.95075e-03 DIIS
   @RHF iter   5:  -437.44065032179765   -2.23935e+00   2.14156e-03 DIIS
   @RHF iter   6:  -437.69374944358276   -2.53099e-01   7.83058e-04 DIIS
   @RHF iter   7:  -437.75501397525960   -6.12645e-02   1.43059e-04 DIIS
   @RHF iter   8:  -437.75741357197023   -2.39960e-03   4.65228e-05 DIIS
   @RHF iter   9:  -437.75767595058448   -2.62379e-04   1.30427e-05 DIIS
   @RHF iter  10:  -437.75771468358204   -3.87330e-05   3.28154e-06 DIIS
   @RHF iter  11:  -437.75771750253341   -2.81895e-06   7.37662e-07 DIIS
   @RHF iter  12:  -437.75771763455509   -1.32022e-07   1.61638e-07 DIIS
   @RHF iter  13:  -437.75771764115768   -6.60259e-09   3.42239e-08 DIIS
   @RHF iter  14:  -437.75771764146975   -3.12070e-10   8.07499e-09 DIIS

  ==> Post-Iterations <==

	Orbital Energies (a.u.)
	-----------------------

	Doubly Occupied:                                                      

	   1A    -91.953386     2A    -11.257560     3A     -8.954328  
	   4A     -6.635726     5A     -6.634728     6A     -6.633633  
	   7A     -1.038495     8A     -0.867354     9A     -0.608912  
	  10A     -0.594096    11A     -0.528079    12A     -0.459729  
	  13A     -0.357292  

	Virtual:                                                              

	  14A      0.024252    15A      0.035676    16A      0.039050  
	  17A      0.043309    18A      0.057312    19A      0.057491  
	  20A      0.063264    21A      0.080975    22A      0.088268  
	  23A      0.089360    24A      0.102512    25A      0.107561  
	  26A      0.118064    27A      0.121149    28A      0.124612  
	  29A      0.128201    30A      0.133956    31A      0.137006  
	  32A      0.149775    33A      0.153805    34A      0.162043  
	  35A      0.166462    36A      0.175980    37A      0.186919  
	  38A      0.216194    39A      0.236548    40A      0.240252  
	  41A      0.251858    42A      0.259197    43A      0.264890  
	  44A      0.271217    45A      0.281358    46A      0.289265  
	  47A      0.297036    48A      0.302604    49A      0.310847  
	  50A      0.315018    51A      0.320862    52A      0.329208  
	  53A      0.339255    54A      0.343462    55A      0.344730  
	  56A      0.357109    57A      0.360769    58A      0.365642  
	  59A      0.379607    60A      0.383527    61A      0.396658  
	  62A      0.397154    63A      0.403839    64A      0.406499  
	  65A      0.413820    66A      0.420435    67A      0.429608  
	  68A      0.432319    69A      0.445179    70A      0.458026  
	  71A      0.460921    72A      0.462944    73A      0.464158  
	  74A      0.473223    75A      0.479588    76A      0.487357  
	  77A      0.507329    78A      0.516630    79A      0.536221  
	  80A      0.537985    81A      0.545354    82A      0.551345  
	  83A      0.556035    84A      0.575482    85A      0.577903  
	  86A      0.594519    87A      0.601459    88A      0.614946  
	  89A      0.616922    90A      0.624967    91A      0.641266  
	  92A      0.650343    93A      0.665445    94A      0.668182  
	  95A      0.683224    96A      0.703434    97A      0.707284  
	  98A      0.722274    99A      0.728919   100A      0.750611  
	 101A      0.763279   102A      0.772842   103A      0.782043  
	 104A      0.793524   105A      0.802673   106A      0.828622  
	 107A      0.845372   108A      0.869626   109A      0.876418  
	 110A      0.883537   111A      0.892682   112A      0.909483  
	 113A      0.916060   114A      0.928993   115A      0.942830  
	 116A      0.945134   117A      0.952249   118A      0.979944  
	 119A      0.984436   120A      0.991770   121A      1.014288  
	 122A      1.019109   123A      1.021623   124A      1.034595  
	 125A      1.042457   126A      1.043774   127A      1.055831  
	 128A      1.067772   129A      1.075230   130A      1.086106  
	 131A      1.092997   132A      1.096824   133A      1.101244  
	 134A      1.113598   135A      1.124294   136A      1.130996  
	 137A      1.143708   138A      1.155751   139A      1.160415  
	 140A      1.168616   141A      1.176897   142A      1.179643  
	 143A      1.194751   144A      1.202637   145A      1.211665  
	 146A      1.222133   147A      1.228552   148A      1.235701  
	 149A      1.243871   150A      1.253911   151A      1.258055  
	 152A      1.275277   153A      1.286378   154A      1.302869  
	 155A      1.312396   156A      1.331598   157A      1.332817  
	 158A      1.336380   159A      1.362492   160A      1.369800  
	 161A      1.386703   162A      1.391787   163A      1.393287  
	 164A      1.407523   165A      1.411445   166A      1.416844  
	 167A      1.436776   168A      1.441611   169A      1.449467  
	 170A      1.453394   171A      1.476846   172A      1.490452  
	 173A      1.497548   174A      1.501820   175A      1.526471  
	 176A      1.558309   177A      1.568920   178A      1.573431  
	 179A      1.589151   180A      1.594746   181A      1.629435  
	 182A      1.639222   183A      1.643762   184A      1.658968  
	 185A      1.686903   186A      1.690705   187A      1.705305  
	 188A      1.716881   189A      1.722240   190A      1.760704  
	 191A      1.765709   192A      1.781374   193A      1.784234  
	 194A      1.796342   195A      1.820640   196A      1.852637  
	 197A      1.859854   198A      1.883991   199A      1.891283  
	 200A      1.914803   201A      1.917572   202A      1.936423  
	 203A      1.974238   204A      1.977141   205A      1.992498  
	 206A      2.003592   207A      2.014594   208A      2.036072  
	 209A      2.079203   210A      2.088155   211A      2.089246  
	 212A      2.108733   213A      2.117283   214A      2.141456  
	 215A      2.150178   216A      2.173084   217A      2.195339  
	 218A      2.210810   219A      2.230174   220A      2.242917  
	 221A      2.249664   222A      2.312306   223A      2.332093  
	 224A      2.334369   225A      2.390356   226A      2.404234  
	 227A      2.432759   228A      2.454053   229A      2.498375  
	 230A      2.509978   231A      2.524336   232A      2.533060  
	 233A      2.544630   234A      2.591904   235A      2.627310  
	 236A      2.640809   237A      2.684338   238A      2.697712  
	 239A      2.722985   240A      2.753558   241A      2.771153  
	 242A      2.786302   243A      2.799727   244A      2.830089  
	 245A      2.855224   246A      3.026902   247A      3.101454  
	 248A      3.112334   249A      3.163331   250A      3.191008  
	 251A      3.243974   252A      3.281235   253A      3.314199  
	 254A      3.333865   255A      3.429571   256A      3.457320  
	 257A      3.470356   258A      3.494515   259A      3.534703  
	 260A      3.617567   261A      3.627381   262A      3.647127  
	 263A      3.674215   264A      3.699818   265A      3.710462  
	 266A      3.771982   267A      3.781421   268A      3.831796  
	 269A      3.852371   270A      3.905520   271A      3.923333  
	 272A      3.935264   273A      3.960150   274A      3.989782  
	 275A      4.002923   276A      4.010046   277A      4.034054  
	 278A      4.050723   279A      4.095259   280A      4.125516  
	 281A      4.137880   282A      4.144538   283A      4.169341  
	 284A      4.175525   285A      4.203227   286A      4.207612  
	 287A      4.224343   288A      4.243482   289A      4.276517  
	 290A      4.296798   291A      4.316266   292A      4.327129  
	 293A      4.385337   294A      4.391921   295A      4.437018  
	 296A      4.481037   297A      4.500794   298A      4.512815  
	 299A      4.518203   300A      4.532857   301A      4.541958  
	 302A      4.557124   303A      4.570730   304A      4.594203  
	 305A      4.610790   306A      4.615201   307A      4.637409  
	 308A      4.677419   309A      4.710005   310A      4.733530  
	 311A      4.760534   312A      4.800911   313A      4.812735  
	 314A      4.864026   315A      4.877018   316A      4.907963  
	 317A      4.912647   318A      4.924496   319A      4.952217  
	 320A      4.971126   321A      5.004580   322A      5.016654  
	 323A      5.028359   324A      5.046646   325A      5.085736  
	 326A      5.123754   327A      5.153479   328A      5.214186  
	 329A      5.244993   330A      5.261521   331A      5.270452  
	 332A      5.303613   333A      5.325593   334A      5.348455  
	 335A      5.389614   336A      5.400941   337A      5.482927  
	 338A      5.504240   339A      5.516614   340A      5.560359  
	 341A      5.588815   342A      5.600353   343A      5.643795  
	 344A      5.664105   345A      5.678281   346A      5.744553  
	 347A      5.796737   348A      5.895756   349A      5.914487  
	 350A      6.052010   351A      6.107330   352A      6.142437  
	 353A      6.204711   354A      6.210352   355A      6.241425  
	 356A      6.257217   357A      6.716775   358A      6.744321  
	 359A      6.783905   360A      6.860549   361A      6.943430  
	 362A      7.254665   363A      7.787659   364A      7.839005  
	 365A      7.876695   366A      8.216009   367A      8.248872  
	 368A      8.357700   369A     10.454342   370A     15.843764  
	 371A     17.498514   372A     24.575315   373A     25.101398  
	 374A     25.422970   375A     52.651951   376A    141.777418  

	Final Occupation by Irrep:
	          A 
	DOCC [    13 ]

  Energy converged.

  @RHF Final Energy:  -437.75771764146975

   => Energetics <=

    Nuclear Repulsion Energy =             56.4326844845615057
    One-Electron Energy =                -715.3341658441488562
    Two-Electron Energy =                 221.1437637181181515
    DFT Exchange-Correlation Energy =       0.0000000000000000
    Empirical Dispersion Energy =           0.0000000000000000
    Total Energy =                       -437.7577176414691849



Properties will be evaluated at   0.000000,   0.000000,   0.000000 Bohr
  ==> Properties <==


Properties computed using the SCF density density matrix
  Nuclear Dipole Moment: (a.u.)
     X:    72.7887      Y:    10.8406      Z:   -16.6404

  Electronic Dipole Moment: (a.u.)
     X:   -72.6877      Y:   -11.4470      Z:    16.8787

  Dipole Moment: (a.u.)
     X:     0.1010      Y:    -0.6064      Z:     0.2384     Total:     0.6594

  Dipole Moment: (Debye)
     X:     0.2566      Y:    -1.5414      Z:     0.6059     Total:     1.6759


  Saving occupied orbitals to File 180.

  Saving SAPT 2-MONOMER_A file.

*** tstop() called on node127.bme.utexas.edu at Mon May 19 16:53:05 2014
Module time:
	user time   =     185.00 seconds =       3.08 minutes
	system time =       2.13 seconds =       0.04 minutes
	total time  =         29 seconds =       0.48 minutes
Total time:
	user time   =     469.83 seconds =       7.83 minutes
	system time =       5.38 seconds =       0.09 minutes
	total time  =         69 seconds =       1.15 minutes

  //>>>>>>>>>>>>>>>>>>>>>>>>>>>>>>>>>>>//
  //            Monomer B HF           //
  //<<<<<<<<<<<<<<<<<<<<<<<<<<<<<<<<<<<//


  No DF_BASIS_SCF auxiliary basis selected, defaulting to aug-cc-pvtz-jkfit


*** tstart() called on node127.bme.utexas.edu
*** at Mon May 19 16:53:05 2014


         ---------------------------------------------------------
                                   SCF
            by Justin Turney, Rob Parrish, and Andy Simmonett
                              RHF Reference
                        8 Threads,   4000 MiB Core
         ---------------------------------------------------------

  ==> Geometry <==

    Molecular point group: c1
    Full point group: C1

    Geometry (in Angstrom), charge = 0, multiplicity = 1:

       Center              X                  Y                   Z       
    ------------   -----------------  -----------------  -----------------
           C(Gh)      1.475150479625    -0.924882704554    -0.467137164527
           S(Gh)      1.460608479625     0.886351295446    -0.335552164527
           H(Gh)      1.878938479625     0.952153295446     0.931583835473
           H(Gh)      0.734145479625    -1.370956704554     0.189998835473
           H(Gh)      1.221583479625    -1.154688704554    -1.498510164527
           H(Gh)      2.462799479625    -1.322245704554    -0.257117164527
           C         -1.720625586375    -0.381550524554    -0.845272865527
           S         -1.384415586375    -0.283723524554     0.935328134473
           H         -0.372947586375     0.586404475446     0.829863134473
           H         -0.857608586375    -0.755217524554    -1.388145865527
           H         -2.018890586375     0.584039475446    -1.240596865527
           H         -2.542320586375    -1.081673524554    -0.967625865527

  Running in c1 symmetry.

  Nuclear repulsion =   56.451077363382616

  Charge       = 0
  Multiplicity = 1
  Electrons    = 26
  Nalpha       = 13
  Nbeta        = 13

  ==> Algorithm <==

  SCF Algorithm Type is DF.
  DIIS enabled.
  MOM disabled.
  Fractional occupation disabled.
  Guess Type is CORE.
  Energy threshold   = 1.00e-08
  Density threshold  = 1.00e-08
  Integral threshold = 0.00e+00

  ==> Primary Basis <==

  Basis Set: AUG-CC-PVTZ
    Number of shells: 132
    Number of basis function: 376
    Number of Cartesian functions: 428
    Spherical Harmonics?: true
    Max angular momentum: 3

  ==> Pre-Iterations <==

   -------------------------------------------------------
    Irrep   Nso     Nmo     Nalpha   Nbeta   Ndocc  Nsocc
   -------------------------------------------------------
     A        376     376       0       0       0       0
   -------------------------------------------------------
    Total     376     376      13      13      13       0
   -------------------------------------------------------

 OEINTS: Wrapper to libmints.
   by Justin Turney

   Calculation information:
      Number of atoms:                  12
      Number of AO shells:             132
      Number of SO shells:             132
      Number of primitives:            276
      Number of atomic orbitals:       428
      Number of basis functions:       376

      Number of irreps:                  1
      Number of functions per irrep: [ 376 ]

      Overlap, kinetic, potential, dipole, and quadrupole integrals
        stored in file 35.

  ==> Integral Setup <==

  ==> DFJK: Density-Fitted J/K Matrices <==

    J tasked:                  Yes
    K tasked:                  Yes
    wK tasked:                  No
    OpenMP threads:              8
    Integrals threads:           8
    Memory (MB):              2861
    Algorithm:                Core
    Integral Cache:           LOAD
    Schwarz Cutoff:          0E+00
    Fitting Condition:       1E-12

   => Auxiliary Basis Set <=

  Basis Set: aug-cc-pvtz-jkfit
    Number of shells: 256
    Number of basis function: 868
    Number of Cartesian functions: 1062
    Spherical Harmonics?: true
    Max angular momentum: 4

  Minimum eigenvalue in the overlap matrix is 1.5106060653E-05.
  Using Symmetric Orthogonalization.
  SCF Guess: Core (One-Electron) Hamiltonian.

  Guess energy:  -332.93301331183750

  ==> Iterations <==

                        Total Energy        Delta E     RMS |[F,P]|

   @RHF iter   1:  -386.80365147925227   -3.86804e+02   2.11688e-02 
   @RHF iter   2:  -319.42103683135110    6.73826e+01   2.20848e-02 DIIS
   @RHF iter   3:  -424.55142569934867   -1.05130e+02   1.02681e-02 DIIS
   @RHF iter   4:  -435.23956655206655   -1.06881e+01   5.91074e-03 DIIS
   @RHF iter   5:  -437.44657512039896   -2.20701e+00   2.12058e-03 DIIS
   @RHF iter   6:  -437.69600681690736   -2.49432e-01   7.68588e-04 DIIS
   @RHF iter   7:  -437.75490794441043   -5.89011e-02   1.42999e-04 DIIS
   @RHF iter   8:  -437.75728927732047   -2.38133e-03   4.56864e-05 DIIS
   @RHF iter   9:  -437.75754092634475   -2.51649e-04   1.27553e-05 DIIS
   @RHF iter  10:  -437.75757780503500   -3.68787e-05   3.21646e-06 DIIS
   @RHF iter  11:  -437.75758050875254   -2.70372e-06   7.20297e-07 DIIS
   @RHF iter  12:  -437.75758063461126   -1.25859e-07   1.57608e-07 DIIS
   @RHF iter  13:  -437.75758064090411   -6.29285e-09   3.34698e-08 DIIS
   @RHF iter  14:  -437.75758064120225   -2.98144e-10   7.91116e-09 DIIS

  ==> Post-Iterations <==

	Orbital Energies (a.u.)
	-----------------------

	Doubly Occupied:                                                      

	   1A    -91.953757     2A    -11.257046     3A     -8.954705  
	   4A     -6.636092     5A     -6.635096     6A     -6.633999  
	   7A     -1.038781     8A     -0.867005     9A     -0.609286  
	  10A     -0.592787    11A     -0.527042    12A     -0.461366  
	  13A     -0.357314  

	Virtual:                                                              

	  14A      0.022717    15A      0.034725    16A      0.039180  
	  17A      0.044709    18A      0.055939    19A      0.060416  
	  20A      0.065464    21A      0.074505    22A      0.087678  
	  23A      0.092333    24A      0.095386    25A      0.111257  
	  26A      0.113924    27A      0.116893    28A      0.123704  
	  29A      0.126985    30A      0.129380    31A      0.143947  
	  32A      0.146893    33A      0.158759    34A      0.161814  
	  35A      0.168008    36A      0.176049    37A      0.200765  
	  38A      0.215408    39A      0.228420    40A      0.239617  
	  41A      0.240244    42A      0.260868    43A      0.266674  
	  44A      0.275108    45A      0.280391    46A      0.286380  
	  47A      0.290215    48A      0.292230    49A      0.300531  
	  50A      0.308659    51A      0.315088    52A      0.323846  
	  53A      0.328566    54A      0.339098    55A      0.355310  
	  56A      0.358277    57A      0.365388    58A      0.376312  
	  59A      0.380957    60A      0.386837    61A      0.391962  
	  62A      0.397046    63A      0.403042    64A      0.411393  
	  65A      0.414236    66A      0.418295    67A      0.431453  
	  68A      0.435715    69A      0.440023    70A      0.447258  
	  71A      0.451842    72A      0.468058    73A      0.476376  
	  74A      0.484057    75A      0.486751    76A      0.503037  
	  77A      0.515486    78A      0.521801    79A      0.532065  
	  80A      0.534976    81A      0.546517    82A      0.550037  
	  83A      0.554076    84A      0.559140    85A      0.572360  
	  86A      0.583457    87A      0.589753    88A      0.598771  
	  89A      0.611125    90A      0.618791    91A      0.626982  
	  92A      0.637164    93A      0.647606    94A      0.668007  
	  95A      0.694455    96A      0.699808    97A      0.712188  
	  98A      0.726424    99A      0.735852   100A      0.750308  
	 101A      0.751414   102A      0.764934   103A      0.781181  
	 104A      0.803078   105A      0.816730   106A      0.833677  
	 107A      0.848739   108A      0.865342   109A      0.873520  
	 110A      0.886807   111A      0.892619   112A      0.904975  
	 113A      0.919077   114A      0.923095   115A      0.936505  
	 116A      0.945152   117A      0.963371   118A      0.971896  
	 119A      0.986142   120A      1.000692   121A      1.003770  
	 122A      1.015929   123A      1.016089   124A      1.026108  
	 125A      1.039705   126A      1.048437   127A      1.051198  
	 128A      1.068235   129A      1.075070   130A      1.080782  
	 131A      1.085841   132A      1.095455   133A      1.104695  
	 134A      1.116124   135A      1.120374   136A      1.125375  
	 137A      1.138642   138A      1.146538   139A      1.157633  
	 140A      1.158124   141A      1.174531   142A      1.182047  
	 143A      1.189914   144A      1.198415   145A      1.200333  
	 146A      1.213981   147A      1.223194   148A      1.234375  
	 149A      1.245820   150A      1.258008   151A      1.266882  
	 152A      1.276855   153A      1.279285   154A      1.288751  
	 155A      1.297323   156A      1.306412   157A      1.322845  
	 158A      1.333340   159A      1.347833   160A      1.352532  
	 161A      1.371112   162A      1.375647   163A      1.391735  
	 164A      1.398689   165A      1.415250   166A      1.426246  
	 167A      1.433486   168A      1.436757   169A      1.459083  
	 170A      1.465312   171A      1.473690   172A      1.489237  
	 173A      1.494488   174A      1.510911   175A      1.523535  
	 176A      1.543245   177A      1.562694   178A      1.571433  
	 179A      1.582890   180A      1.590725   181A      1.620575  
	 182A      1.641271   183A      1.643247   184A      1.662360  
	 185A      1.675265   186A      1.705819   187A      1.718840  
	 188A      1.726502   189A      1.734503   190A      1.757574  
	 191A      1.768677   192A      1.775302   193A      1.789159  
	 194A      1.816579   195A      1.840091   196A      1.846713  
	 197A      1.860348   198A      1.881412   199A      1.884066  
	 200A      1.894704   201A      1.916043   202A      1.924790  
	 203A      1.964167   204A      1.973840   205A      1.996089  
	 206A      2.002115   207A      2.034423   208A      2.044144  
	 209A      2.051987   210A      2.084476   211A      2.095113  
	 212A      2.104828   213A      2.124842   214A      2.142136  
	 215A      2.162740   216A      2.176659   217A      2.179828  
	 218A      2.190109   219A      2.222551   220A      2.254686  
	 221A      2.279431   222A      2.286208   223A      2.338183  
	 224A      2.339506   225A      2.384117   226A      2.398342  
	 227A      2.427028   228A      2.427975   229A      2.459746  
	 230A      2.480791   231A      2.499155   232A      2.516724  
	 233A      2.532720   234A      2.565771   235A      2.598475  
	 236A      2.623474   237A      2.651993   238A      2.677631  
	 239A      2.718498   240A      2.764700   241A      2.773244  
	 242A      2.786334   243A      2.808315   244A      2.851285  
	 245A      2.892927   246A      2.966008   247A      3.079220  
	 248A      3.130791   249A      3.170574   250A      3.206674  
	 251A      3.229924   252A      3.252186   253A      3.305722  
	 254A      3.346098   255A      3.406120   256A      3.415439  
	 257A      3.432524   258A      3.492387   259A      3.516238  
	 260A      3.599894   261A      3.624315   262A      3.641722  
	 263A      3.649594   264A      3.670284   265A      3.694301  
	 266A      3.749117   267A      3.803306   268A      3.838751  
	 269A      3.867628   270A      3.880239   271A      3.885318  
	 272A      3.927397   273A      3.952513   274A      3.992690  
	 275A      4.006108   276A      4.042050   277A      4.089068  
	 278A      4.099363   279A      4.126450   280A      4.137376  
	 281A      4.144981   282A      4.153378   283A      4.184190  
	 284A      4.191212   285A      4.200249   286A      4.225004  
	 287A      4.239339   288A      4.243501   289A      4.260342  
	 290A      4.275354   291A      4.312002   292A      4.323464  
	 293A      4.342485   294A      4.363856   295A      4.393350  
	 296A      4.445244   297A      4.484771   298A      4.488705  
	 299A      4.508488   300A      4.529345   301A      4.542397  
	 302A      4.556775   303A      4.587288   304A      4.615655  
	 305A      4.641417   306A      4.645401   307A      4.692780  
	 308A      4.720223   309A      4.739150   310A      4.749546  
	 311A      4.757599   312A      4.800551   313A      4.824690  
	 314A      4.840633   315A      4.868342   316A      4.881313  
	 317A      4.908418   318A      4.944392   319A      4.951509  
	 320A      4.970967   321A      4.982838   322A      5.018651  
	 323A      5.025666   324A      5.039710   325A      5.070150  
	 326A      5.117606   327A      5.153643   328A      5.204450  
	 329A      5.213091   330A      5.239858   331A      5.275113  
	 332A      5.286498   333A      5.326318   334A      5.361500  
	 335A      5.392695   336A      5.411532   337A      5.439329  
	 338A      5.468843   339A      5.527526   340A      5.546499  
	 341A      5.596148   342A      5.603777   343A      5.638281  
	 344A      5.651619   345A      5.664719   346A      5.717748  
	 347A      5.827225   348A      5.855937   349A      5.904260  
	 350A      6.042451   351A      6.107969   352A      6.176611  
	 353A      6.211404   354A      6.237878   355A      6.255356  
	 356A      6.275829   357A      6.689009   358A      6.766830  
	 359A      6.775694   360A      6.786758   361A      6.867773  
	 362A      7.221345   363A      7.800026   364A      7.832050  
	 365A      7.875887   366A      8.214328   367A      8.266111  
	 368A      8.421187   369A     10.470124   370A     15.748350  
	 371A     17.639423   372A     24.638796   373A     25.083211  
	 374A     25.469868   375A     52.280802   376A    141.771342  

	Final Occupation by Irrep:
	          A 
	DOCC [    13 ]

  Energy converged.

  @RHF Final Energy:  -437.75758064120225

   => Energetics <=

    Nuclear Repulsion Energy =             56.4510773633826162
    One-Electron Energy =                -715.3687571372171305
    Two-Electron Energy =                 221.1600991326317001
    DFT Exchange-Correlation Energy =       0.0000000000000000
    Empirical Dispersion Energy =           0.0000000000000000
    Total Energy =                       -437.7575806412028214



Properties will be evaluated at   0.000000,   0.000000,   0.000000 Bohr
  ==> Properties <==


Properties computed using the SCF density density matrix
  Nuclear Dipole Moment: (a.u.)
     X:   -72.3126      Y:   -14.1641      Z:    13.4683

  Electronic Dipole Moment: (a.u.)
     X:    72.4228      Y:    14.3240      Z:   -14.0964

  Dipole Moment: (a.u.)
     X:     0.1102      Y:     0.1598      Z:    -0.6281     Total:     0.6575

  Dipole Moment: (Debye)
     X:     0.2802      Y:     0.4063      Z:    -1.5966     Total:     1.6711


  Saving occupied orbitals to File 180.

  Saving SAPT 2-MONOMER_B file.

*** tstop() called on node127.bme.utexas.edu at Mon May 19 16:53:30 2014
Module time:
	user time   =     183.37 seconds =       3.06 minutes
	system time =       1.86 seconds =       0.03 minutes
	total time  =         25 seconds =       0.42 minutes
Total time:
	user time   =     653.23 seconds =      10.89 minutes
	system time =       7.24 seconds =       0.12 minutes
	total time  =         94 seconds =       1.57 minutes
  No DF_BASIS_SAPT auxiliary basis selected, defaulting to aug-cc-pvtz-ri

  //>>>>>>>>>>>>>>>>>>>>>>>>>>>>>>>>>>>//
  //               SAPT2+              //
  //<<<<<<<<<<<<<<<<<<<<<<<<<<<<<<<<<<<//


*** tstart() called on node127.bme.utexas.edu
*** at Mon May 19 16:53:30 2014

        SAPT2+  
    Ed Hohenstein
     6 June 2009

      Orbital Information
  --------------------------
    NSO        =       376
    NMO        =       376
    NRI        =       874
    NOCC A     =        13
    NOCC B     =        13
    FOCC A     =         6
    FOCC B     =         6
    NVIR A     =       363
    NVIR B     =       363

    Estimated memory usage: 1455.8 MB

                                                                                                                                                                                                                                                                                                                                                                                                                                                                                                                                                                                                                                                                                                                                                                                                                                                                                                                                                                                                                                                                                                                                                                             (i =   1 of   7)        302 seconds
    (i =   2 of   7)        604 seconds
    (i =   3 of   7)        906 seconds
    (i =   4 of   7)       1208 seconds
    (i =   5 of   7)       1511 seconds
    (i =   6 of   7)       1814 seconds
    (i =   7 of   7)       2116 seconds

    Disp202 (T)         =    -0.001764998552 H

    Disp22 (T)          =    -0.003492023739 H

    SAPT Results  
  -----------------------------------------------------------------------
    Electrostatics         -25.12368513 mH     -15.76535109 kcal mol^-1
      Elst10,r             -23.62393825 mH     -14.82424568 kcal mol^-1
      Elst12,r              -1.49974687 mH      -0.94110541 kcal mol^-1

    Exchange                57.46743633 mH      36.06136224 kcal mol^-1
      Exch10                54.60567508 mH      34.26557987 kcal mol^-1
      Exch10(S^2)           53.35259008 mH      33.47925712 kcal mol^-1
      Exch11(S^2)            2.53799018 mH       1.59261295 kcal mol^-1
      Exch12(S^2)            0.32377107 mH       0.20316942 kcal mol^-1

    Induction              -10.29467199 mH      -6.46000448 kcal mol^-1
      Ind20,r              -26.79370271 mH     -16.81330299 kcal mol^-1
      Ind22                 -1.78341065 mH      -1.11910713 kcal mol^-1
      Exch-Ind20,r          22.56980553 mH      14.16276738 kcal mol^-1
      Exch-Ind22             1.50226462 mH       0.94268532 kcal mol^-1
      delta HF,r (2)        -5.78962878 mH      -3.63304706 kcal mol^-1

    Dispersion             -19.31431623 mH     -12.11991692 kcal mol^-1
      Disp20               -23.91600233 mH     -15.00751866 kcal mol^-1
      Disp21                 2.58136101 mH       1.61982856 kcal mol^-1
      Disp22 (SDQ)           1.16693087 mH       0.73226020 kcal mol^-1
      Disp22 (T)            -3.49202374 mH      -2.19127807 kcal mol^-1
      Exch-Disp20            4.34541795 mH       2.72679105 kcal mol^-1

    Total HF                20.96821086 mH      13.15775151 kcal mol^-1
    Total SAPT0              1.39762649 mH       0.87702390 kcal mol^-1
    Total SAPT2              2.47849483 mH       1.55527905 kcal mol^-1
    Total SAPT2+             2.73476297 mH       1.71608975 kcal mol^-1

*** tstop() called on node140.bme.utexas.edu at Mon May 19 16:41:41 2014
Module time:
	user time   =   43309.78 seconds =     721.83 minutes
	system time =     243.40 seconds =       4.06 minutes
	total time  =       5917 seconds =      98.62 minutes
Total time:
	user time   =   43963.95 seconds =     732.73 minutes
	system time =     250.47 seconds =       4.17 minutes
	total time  =       6009 seconds =     100.15 minutes

*** PSI4 exiting successfully. Buy a developer a beer!
