    -----------------------------------------------------------------------
          PSI4: An Open-Source Ab Initio Electronic Structure Package
                              PSI 4.0.0-beta4 Driver

    J. M. Turney, A. C. Simmonett, R. M. Parrish, E. G. Hohenstein,
    F. A. Evangelista, J. T. Fermann, B. J. Mintz, L. A. Burns, J. J. Wilke,
    M. L. Abrams, N. J. Russ, M. L. Leininger, C. L. Janssen, E. T. Seidl,
    W. D. Allen, H. F. Schaefer, R. A. King, E. F. Valeev, C. D. Sherrill,
    and T. D. Crawford, WIREs Comput. Mol. Sci., (2011) (doi: 10.1002/wcms.93)

                         Additional Contributions by
    A. E. DePrince, M. Saitow, U. Bozkaya, A. Yu. Sokolov
    -----------------------------------------------------------------------

    Process ID:   9807
    PSI4DATADIR: /home/xzhu216/psi4/psi4-install/share/psi

    Using LocalCommunicator (Number of processes = 1)

    Memory level set to 256.000 MB

  ==> Input File <==

--------------------------------------------------------------------------
#psi4
#
memory 7 gb

molecule CH3SH_CH3SH  {
0 1
    C     0.794821000    -0.002736000    -0.413600000
    S     0.780279000     1.808498000    -0.282015000
    H     1.198609000     1.874300000     0.985121000
    H     0.053816000    -0.448810000     0.243536000
    H     0.541254000    -0.232542000    -1.444973000
    H     1.782470000    -0.400099000    -0.203580000

--
0 1
    C    -3.041199000     0.410801000    -0.637946000
    S    -2.704989000     0.508628000     1.142655000
    H    -1.693521000     1.378756000     1.037190000
    H    -2.178182000     0.037134000    -1.180819000
    H    -3.339464000     1.376391000    -1.033270000
    H    -3.862894000    -0.289322000    -0.760299000

units angstrom
no_reorient  #important for SAPT in psi4, default
symmetry c1  #important for SAPT in psi4, default
}

set {
basis aug-cc-pVTZ
scf_type DF
freeze_core True
}
energy('sapt2+')
--------------------------------------------------------------------------

  Memory set to   7.000 GiB by Python script.

  //>>>>>>>>>>>>>>>>>>>>>>>>>>>>>>>>>>>//
  //              Dimer HF             //
  //<<<<<<<<<<<<<<<<<<<<<<<<<<<<<<<<<<<//


  No DF_BASIS_SCF auxiliary basis selected, defaulting to aug-cc-pvtz-jkfit


*** tstart() called on node111.bme.utexas.edu
*** at Fri May 16 18:59:42 2014


         ---------------------------------------------------------
                                   SCF
            by Justin Turney, Rob Parrish, and Andy Simmonett
                              RHF Reference
                        8 Threads,   7000 MiB Core
         ---------------------------------------------------------

  ==> Geometry <==

    Molecular point group: c1
    Full point group: C1

    Geometry (in Angstrom), charge = 0, multiplicity = 1:

       Center              X                  Y                   Z       
    ------------   -----------------  -----------------  -----------------
           C          1.795272446625    -0.859985114554    -0.544032015027
           S          1.780730446625     0.951248885446    -0.412447015027
           H          2.199060446625     1.017050885446     0.854688984973
           H          1.054267446625    -1.306059114554     0.113103984973
           H          1.541705446625    -1.089791114554    -1.575405015027
           H          2.782921446625    -1.257348114554    -0.334012015027
           C         -2.040747553375    -0.446448114554    -0.768378015027
           S         -1.704537553375    -0.348621114554     1.012222984973
           H         -0.693069553375     0.521506885446     0.906757984973
           H         -1.177730553375    -0.820115114554    -1.311251015027
           H         -2.339012553375     0.519141885446    -1.163702015027
           H         -2.862442553375    -1.146571114554    -0.890731015027

  Running in c1 symmetry.

  Nuclear repulsion =  203.759434303013450

  Charge       = 0
  Multiplicity = 1
  Electrons    = 52
  Nalpha       = 26
  Nbeta        = 26

  ==> Algorithm <==

  SCF Algorithm Type is DF.
  DIIS enabled.
  MOM disabled.
  Fractional occupation disabled.
  Guess Type is CORE.
  Energy threshold   = 1.00e-08
  Density threshold  = 1.00e-08
  Integral threshold = 0.00e+00

  ==> Primary Basis <==

  Basis Set: AUG-CC-PVTZ
    Number of shells: 132
    Number of basis function: 376
    Number of Cartesian functions: 428
    Spherical Harmonics?: true
    Max angular momentum: 3

  ==> Pre-Iterations <==

   -------------------------------------------------------
    Irrep   Nso     Nmo     Nalpha   Nbeta   Ndocc  Nsocc
   -------------------------------------------------------
     A        376     376       0       0       0       0
   -------------------------------------------------------
    Total     376     376      26      26      26       0
   -------------------------------------------------------

 OEINTS: Wrapper to libmints.
   by Justin Turney

   Calculation information:
      Number of atoms:                  12
      Number of AO shells:             132
      Number of SO shells:             132
      Number of primitives:            276
      Number of atomic orbitals:       428
      Number of basis functions:       376

      Number of irreps:                  1
      Number of functions per irrep: [ 376 ]

      Overlap, kinetic, potential, dipole, and quadrupole integrals
        stored in file 35.

  ==> Integral Setup <==

  ==> DFJK: Density-Fitted J/K Matrices <==

    J tasked:                  Yes
    K tasked:                  Yes
    wK tasked:                  No
    OpenMP threads:              8
    Integrals threads:           8
    Memory (MB):              5006
    Algorithm:                Core
    Integral Cache:           SAVE
    Schwarz Cutoff:          0E+00
    Fitting Condition:       1E-12

   => Auxiliary Basis Set <=

  Basis Set: aug-cc-pvtz-jkfit
    Number of shells: 256
    Number of basis function: 868
    Number of Cartesian functions: 1062
    Spherical Harmonics?: true
    Max angular momentum: 4

  Minimum eigenvalue in the overlap matrix is 2.2932272630E-05.
  Using Symmetric Orthogonalization.
  SCF Guess: Core (One-Electron) Hamiltonian.

  Guess energy:  -665.57406644037690

  ==> Iterations <==

                        Total Energy        Delta E     RMS |[F,P]|

   @RHF iter   1:  -775.11876183303798   -7.75119e+02   2.96395e-02 
   @RHF iter   2:  -636.98961192913612    1.38129e+02   3.08488e-02 DIIS
   @RHF iter   3:  -845.87252048779396   -2.08883e+02   1.50950e-02 DIIS
   @RHF iter   4:  -862.84929755409530   -1.69768e+01   1.02282e-02 DIIS
   @RHF iter   5:  -856.67388139924651    6.17542e+00   9.08610e-03 DIIS
   @RHF iter   6:  -860.12886498899229   -3.45498e+00   9.11191e-03 DIIS
   @RHF iter   7:  -875.35404023009983   -1.52252e+01   1.50398e-03 DIIS
   @RHF iter   8:  -875.46698072017602   -1.12940e-01   7.04650e-04 DIIS
   @RHF iter   9:  -875.50655016527185   -3.95694e-02   2.48289e-04 DIIS
   @RHF iter  10:  -875.51333097322436   -6.78081e-03   7.85648e-05 DIIS
   @RHF iter  11:  -875.51402480435104   -6.93831e-04   2.81529e-05 DIIS
   @RHF iter  12:  -875.51414217103184   -1.17367e-04   7.28512e-06 DIIS
   @RHF iter  13:  -875.51415111115443   -8.94012e-06   1.51583e-06 DIIS
   @RHF iter  14:  -875.51415162881972   -5.17665e-07   4.22113e-07 DIIS
   @RHF iter  15:  -875.51415167591722   -4.70975e-08   1.23376e-07 DIIS
   @RHF iter  16:  -875.51415167970003   -3.78282e-09   4.24327e-08 DIIS
   @RHF iter  17:  -875.51415168016206   -4.62023e-10   1.29259e-08 DIIS
   @RHF iter  18:  -875.51415168021026   -4.82032e-11   4.46141e-09 DIIS

  ==> Post-Iterations <==

	Orbital Energies (a.u.)
	-----------------------

	Doubly Occupied:                                                      

	   1A    -91.959470     2A    -91.947384     3A    -11.260087  
	   4A    -11.254029     5A     -8.960733     6A     -8.948773  
	   7A     -6.642133     8A     -6.641120     9A     -6.640078  
	  10A     -6.630174    11A     -6.629223    12A     -6.628166  
	  13A     -1.045133    14A     -1.034037    15A     -0.872867  
	  16A     -0.863267    17A     -0.614792    18A     -0.611004  
	  19A     -0.597577    20A     -0.583828    21A     -0.533422  
	  22A     -0.523168    23A     -0.465858    24A     -0.457813  
	  25A     -0.363608    26A     -0.353666  

	Virtual:                                                              

	  27A      0.028654    28A      0.035317    29A      0.040455  
	  30A      0.045662    31A      0.054960    32A      0.058881  
	  33A      0.064428    34A      0.083594    35A      0.085162  
	  36A      0.092412    37A      0.106411    38A      0.111549  
	  39A      0.122959    40A      0.125403    41A      0.128142  
	  42A      0.130700    43A      0.136045    44A      0.147582  
	  45A      0.153610    46A      0.156909    47A      0.162525  
	  48A      0.171222    49A      0.180949    50A      0.187298  
	  51A      0.208743    52A      0.217106    53A      0.218577  
	  54A      0.232676    55A      0.242515    56A      0.247850  
	  57A      0.252491    58A      0.260669    59A      0.275134  
	  60A      0.281384    61A      0.290388    62A      0.309740  
	  63A      0.312558    64A      0.313542    65A      0.322582  
	  66A      0.333427    67A      0.343100    68A      0.345951  
	  69A      0.359735    70A      0.361134    71A      0.366074  
	  72A      0.369074    73A      0.373489    74A      0.375055  
	  75A      0.385938    76A      0.388368    77A      0.392962  
	  78A      0.398641    79A      0.404473    80A      0.412057  
	  81A      0.418488    82A      0.422459    83A      0.429998  
	  84A      0.430237    85A      0.441192    86A      0.448731  
	  87A      0.452543    88A      0.453630    89A      0.461535  
	  90A      0.467577    91A      0.482097    92A      0.491316  
	  93A      0.498144    94A      0.508723    95A      0.513005  
	  96A      0.522904    97A      0.536271    98A      0.539738  
	  99A      0.550458   100A      0.556412   101A      0.567561  
	 102A      0.576931   103A      0.598169   104A      0.624986  
	 105A      0.654269   106A      0.668782   107A      0.687122  
	 108A      0.695594   109A      0.705403   110A      0.712572  
	 111A      0.724096   112A      0.732487   113A      0.743292  
	 114A      0.749366   115A      0.767504   116A      0.782322  
	 117A      0.788330   118A      0.795445   119A      0.801378  
	 120A      0.807754   121A      0.826188   122A      0.831783  
	 123A      0.840828   124A      0.850934   125A      0.860378  
	 126A      0.864182   127A      0.870900   128A      0.881556  
	 129A      0.888351   130A      0.891154   131A      0.895971  
	 132A      0.906275   133A      0.921109   134A      0.923777  
	 135A      0.931376   136A      0.936161   137A      0.946040  
	 138A      0.960409   139A      0.961741   140A      0.977329  
	 141A      0.983537   142A      0.988957   143A      0.999005  
	 144A      1.006585   145A      1.022316   146A      1.028691  
	 147A      1.031298   148A      1.034897   149A      1.052719  
	 150A      1.059511   151A      1.066404   152A      1.069342  
	 153A      1.081162   154A      1.104834   155A      1.117705  
	 156A      1.122588   157A      1.131289   158A      1.134054  
	 159A      1.143774   160A      1.145372   161A      1.154547  
	 162A      1.177975   163A      1.184849   164A      1.199374  
	 165A      1.204473   166A      1.221306   167A      1.229185  
	 168A      1.236737   169A      1.237734   170A      1.252736  
	 171A      1.271451   172A      1.276995   173A      1.294004  
	 174A      1.316629   175A      1.339041   176A      1.341123  
	 177A      1.346211   178A      1.349828   179A      1.360465  
	 180A      1.371336   181A      1.375695   182A      1.394055  
	 183A      1.400386   184A      1.412895   185A      1.425728  
	 186A      1.433151   187A      1.437042   188A      1.451646  
	 189A      1.479899   190A      1.491641   191A      1.501337  
	 192A      1.526066   193A      1.540028   194A      1.570512  
	 195A      1.597790   196A      1.616071   197A      1.627291  
	 198A      1.639791   199A      1.646142   200A      1.654083  
	 201A      1.673694   202A      1.680654   203A      1.687507  
	 204A      1.695914   205A      1.698380   206A      1.710976  
	 207A      1.730534   208A      1.737364   209A      1.753382  
	 210A      1.759773   211A      1.777020   212A      1.783928  
	 213A      1.789271   214A      1.804164   215A      1.821249  
	 216A      1.830687   217A      1.839328   218A      1.875770  
	 219A      1.883998   220A      1.919696   221A      1.936491  
	 222A      1.963478   223A      1.973625   224A      1.995717  
	 225A      2.000395   226A      2.038703   227A      2.049064  
	 228A      2.071925   229A      2.074996   230A      2.101571  
	 231A      2.115760   232A      2.153763   233A      2.181488  
	 234A      2.198197   235A      2.214055   236A      2.215099  
	 237A      2.229476   238A      2.251994   239A      2.260381  
	 240A      2.305145   241A      2.341878   242A      2.381719  
	 243A      2.393075   244A      2.401465   245A      2.420524  
	 246A      2.454231   247A      2.459533   248A      2.493187  
	 249A      2.527411   250A      2.571274   251A      2.582611  
	 252A      2.607177   253A      2.621182   254A      2.645735  
	 255A      2.674046   256A      2.699417   257A      2.707033  
	 258A      2.727199   259A      2.734008   260A      2.758772  
	 261A      2.776359   262A      2.784452   263A      2.809250  
	 264A      2.834457   265A      2.949242   266A      2.983121  
	 267A      3.080631   268A      3.081032   269A      3.121998  
	 270A      3.161956   271A      3.191094   272A      3.212611  
	 273A      3.389476   274A      3.412941   275A      3.439398  
	 276A      3.451668   277A      3.567630   278A      3.575544  
	 279A      3.585027   280A      3.591143   281A      3.612008  
	 282A      3.628671   283A      3.629914   284A      3.642107  
	 285A      3.656992   286A      3.663965   287A      3.681849  
	 288A      3.689819   289A      3.734567   290A      3.750709  
	 291A      3.840551   292A      3.865042   293A      3.873695  
	 294A      3.889008   295A      3.946953   296A      3.955167  
	 297A      3.966485   298A      3.978896   299A      4.015426  
	 300A      4.046979   301A      4.090164   302A      4.106525  
	 303A      4.125844   304A      4.130149   305A      4.136122  
	 306A      4.148142   307A      4.160114   308A      4.175995  
	 309A      4.191025   310A      4.203031   311A      4.214656  
	 312A      4.238789   313A      4.258834   314A      4.267040  
	 315A      4.280834   316A      4.344010   317A      4.389983  
	 318A      4.445074   319A      4.471580   320A      4.482673  
	 321A      4.493618   322A      4.501949   323A      4.512374  
	 324A      4.517578   325A      4.560023   326A      4.575509  
	 327A      4.585604   328A      4.605847   329A      4.607812  
	 330A      4.642538   331A      4.676685   332A      4.731745  
	 333A      4.779882   334A      4.790219   335A      4.804265  
	 336A      4.836493   337A      4.867216   338A      4.896347  
	 339A      4.917951   340A      4.929999   341A      4.941978  
	 342A      4.952067   343A      5.000683   344A      5.010303  
	 345A      5.035690   346A      5.073966   347A      5.178532  
	 348A      5.184883   349A      5.214959   350A      5.248331  
	 351A      5.278537   352A      5.296948   353A      5.352008  
	 354A      5.370206   355A      5.562477   356A      5.570970  
	 357A      5.576711   358A      5.587306   359A      5.619321  
	 360A      5.631708   361A      5.643844   362A      5.665539  
	 363A      6.000231   364A      6.019567   365A      6.087455  
	 366A      6.097738   367A      6.104479   368A      6.144280  
	 369A      6.673690   370A      6.687143   371A      6.707094  
	 372A      6.745499   373A      7.916777   374A      8.000127  
	 375A     17.227260   376A     17.347738  

	Final Occupation by Irrep:
	          A 
	DOCC [    26 ]

  Energy converged.

  @RHF Final Energy:  -875.51415168021026

   => Energetics <=

    Nuclear Repulsion Energy =            203.7594343030134496
    One-Electron Energy =               -1612.4243469661610106
    Two-Electron Energy =                 533.1507609829370722
    DFT Exchange-Correlation Energy =       0.0000000000000000
    Empirical Dispersion Energy =           0.0000000000000000
    Total Energy =                       -875.5141516802104888



Properties will be evaluated at   0.000000,   0.000000,   0.000000 Bohr
  ==> Properties <==


Properties computed using the SCF density density matrix
  Nuclear Dipole Moment: (a.u.)
     X:     0.4761      Y:    -3.3235      Z:    -3.1721

  Electronic Dipole Moment: (a.u.)
     X:    -0.1782      Y:     2.9282      Z:     2.7856

  Dipole Moment: (a.u.)
     X:     0.2979      Y:    -0.3953      Z:    -0.3865     Total:     0.6280

  Dipole Moment: (Debye)
     X:     0.7573      Y:    -1.0048      Z:    -0.9823     Total:     1.5962


  Saving occupied orbitals to File 180.

  Saving SAPT 2-DIMER file.

*** tstop() called on node111.bme.utexas.edu at Fri May 16 19:00:22 2014
Module time:
	user time   =     283.88 seconds =       4.73 minutes
	system time =       3.21 seconds =       0.05 minutes
	total time  =         40 seconds =       0.67 minutes
Total time:
	user time   =     283.88 seconds =       4.73 minutes
	system time =       3.21 seconds =       0.05 minutes
	total time  =         40 seconds =       0.67 minutes

  //>>>>>>>>>>>>>>>>>>>>>>>>>>>>>>>>>>>//
  //            Monomer A HF           //
  //<<<<<<<<<<<<<<<<<<<<<<<<<<<<<<<<<<<//


  No DF_BASIS_SCF auxiliary basis selected, defaulting to aug-cc-pvtz-jkfit


*** tstart() called on node111.bme.utexas.edu
*** at Fri May 16 19:00:22 2014


         ---------------------------------------------------------
                                   SCF
            by Justin Turney, Rob Parrish, and Andy Simmonett
                              RHF Reference
                        8 Threads,   7000 MiB Core
         ---------------------------------------------------------

  ==> Geometry <==

    Molecular point group: c1
    Full point group: C1

    Geometry (in Angstrom), charge = 0, multiplicity = 1:

       Center              X                  Y                   Z       
    ------------   -----------------  -----------------  -----------------
           C          1.795272446625    -0.859985114554    -0.544032015027
           S          1.780730446625     0.951248885446    -0.412447015027
           H          2.199060446625     1.017050885446     0.854688984973
           H          1.054267446625    -1.306059114554     0.113103984973
           H          1.541705446625    -1.089791114554    -1.575405015027
           H          2.782921446625    -1.257348114554    -0.334012015027
           C(Gh)     -2.040747553375    -0.446448114554    -0.768378015027
           S(Gh)     -1.704537553375    -0.348621114554     1.012222984973
           H(Gh)     -0.693069553375     0.521506885446     0.906757984973
           H(Gh)     -1.177730553375    -0.820115114554    -1.311251015027
           H(Gh)     -2.339012553375     0.519141885446    -1.163702015027
           H(Gh)     -2.862442553375    -1.146571114554    -0.890731015027

  Running in c1 symmetry.

  Nuclear repulsion =   56.432684484561506

  Charge       = 0
  Multiplicity = 1
  Electrons    = 26
  Nalpha       = 13
  Nbeta        = 13

  ==> Algorithm <==

  SCF Algorithm Type is DF.
  DIIS enabled.
  MOM disabled.
  Fractional occupation disabled.
  Guess Type is CORE.
  Energy threshold   = 1.00e-08
  Density threshold  = 1.00e-08
  Integral threshold = 0.00e+00

  ==> Primary Basis <==

  Basis Set: AUG-CC-PVTZ
    Number of shells: 132
    Number of basis function: 376
    Number of Cartesian functions: 428
    Spherical Harmonics?: true
    Max angular momentum: 3

  ==> Pre-Iterations <==

   -------------------------------------------------------
    Irrep   Nso     Nmo     Nalpha   Nbeta   Ndocc  Nsocc
   -------------------------------------------------------
     A        376     376       0       0       0       0
   -------------------------------------------------------
    Total     376     376      13      13      13       0
   -------------------------------------------------------

 OEINTS: Wrapper to libmints.
   by Justin Turney

   Calculation information:
      Number of atoms:                  12
      Number of AO shells:             132
      Number of SO shells:             132
      Number of primitives:            276
      Number of atomic orbitals:       428
      Number of basis functions:       376

      Number of irreps:                  1
      Number of functions per irrep: [ 376 ]

      Overlap, kinetic, potential, dipole, and quadrupole integrals
        stored in file 35.

  ==> Integral Setup <==

  ==> DFJK: Density-Fitted J/K Matrices <==

    J tasked:                  Yes
    K tasked:                  Yes
    wK tasked:                  No
    OpenMP threads:              8
    Integrals threads:           8
    Memory (MB):              5006
    Algorithm:                Core
    Integral Cache:           LOAD
    Schwarz Cutoff:          0E+00
    Fitting Condition:       1E-12

   => Auxiliary Basis Set <=

  Basis Set: aug-cc-pvtz-jkfit
    Number of shells: 256
    Number of basis function: 868
    Number of Cartesian functions: 1062
    Spherical Harmonics?: true
    Max angular momentum: 4

  Minimum eigenvalue in the overlap matrix is 2.2932272630E-05.
  Using Symmetric Orthogonalization.
  SCF Guess: Core (One-Electron) Hamiltonian.

  Guess energy:  -332.87059485104191

  ==> Iterations <==

                        Total Energy        Delta E     RMS |[F,P]|

   @RHF iter   1:  -387.10441849299946   -3.87104e+02   2.07550e-02 
   @RHF iter   2:  -319.44939346833132    6.76550e+01   2.20246e-02 DIIS
   @RHF iter   3:  -427.42661833835319   -1.07977e+02   9.48591e-03 DIIS
   @RHF iter   4:  -436.03984986953697   -8.61323e+00   4.95981e-03 DIIS
   @RHF iter   5:  -437.42838989494339   -1.38854e+00   2.11924e-03 DIIS
   @RHF iter   6:  -437.71074714766007   -2.82357e-01   6.61428e-04 DIIS
   @RHF iter   7:  -437.75610745263907   -4.53603e-02   1.10183e-04 DIIS
   @RHF iter   8:  -437.75748266977592   -1.37522e-03   3.82250e-05 DIIS
   @RHF iter   9:  -437.75766060637324   -1.77937e-04   1.03540e-05 DIIS
   @RHF iter  10:  -437.75768440168656   -2.37953e-05   2.38892e-06 DIIS
   @RHF iter  11:  -437.75768585931166   -1.45763e-06   5.33634e-07 DIIS
   @RHF iter  12:  -437.75768592835527   -6.90436e-08   1.23983e-07 DIIS
   @RHF iter  13:  -437.75768593161087   -3.25559e-09   2.33843e-08 DIIS
   @RHF iter  14:  -437.75768593174280   -1.31934e-10   5.15994e-09 DIIS

  ==> Post-Iterations <==

	Orbital Energies (a.u.)
	-----------------------

	Doubly Occupied:                                                      

	   1A    -91.953207     2A    -11.257559     3A     -8.954284  
	   4A     -6.635683     5A     -6.634676     6A     -6.633591  
	   7A     -1.038504     8A     -0.867361     9A     -0.608919  
	  10A     -0.594101    11A     -0.528088    12A     -0.459736  
	  13A     -0.357290  

	Virtual:                                                              

	  14A      0.023612    15A      0.035187    16A      0.038694  
	  17A      0.043039    18A      0.055393    19A      0.055700  
	  20A      0.062745    21A      0.080461    22A      0.087051  
	  23A      0.088702    24A      0.101125    25A      0.103379  
	  26A      0.115266    27A      0.118833    28A      0.123857  
	  29A      0.127797    30A      0.133371    31A      0.136175  
	  32A      0.146363    33A      0.151240    34A      0.158374  
	  35A      0.166485    36A      0.171251    37A      0.185606  
	  38A      0.216461    39A      0.226250    40A      0.229400  
	  41A      0.242633    42A      0.255175    43A      0.259268  
	  44A      0.264283    45A      0.275504    46A      0.281478  
	  47A      0.291950    48A      0.298766    49A      0.308990  
	  50A      0.310278    51A      0.314555    52A      0.325244  
	  53A      0.330582    54A      0.337453    55A      0.343663  
	  56A      0.352021    57A      0.359495    58A      0.364767  
	  59A      0.371421    60A      0.376437    61A      0.380414  
	  62A      0.382550    63A      0.391298    64A      0.398179  
	  65A      0.405720    66A      0.408865    67A      0.416366  
	  68A      0.423010    69A      0.433138    70A      0.441458  
	  71A      0.443396    72A      0.452029    73A      0.454039  
	  74A      0.460741    75A      0.463751    76A      0.474400  
	  77A      0.488379    78A      0.501273    79A      0.512684  
	  80A      0.519185    81A      0.528889    82A      0.540660  
	  83A      0.544770    84A      0.554074    85A      0.564225  
	  86A      0.575310    87A      0.583075    88A      0.591731  
	  89A      0.603210    90A      0.610821    91A      0.625386  
	  92A      0.640783    93A      0.648127    94A      0.656889  
	  95A      0.676721    96A      0.692078    97A      0.700340  
	  98A      0.703800    99A      0.712335   100A      0.724920  
	 101A      0.744756   102A      0.761364   103A      0.774351  
	 104A      0.787550   105A      0.799959   106A      0.813383  
	 107A      0.833284   108A      0.851502   109A      0.863727  
	 110A      0.866866   111A      0.880072   112A      0.894952  
	 113A      0.905574   114A      0.910809   115A      0.926261  
	 116A      0.931116   117A      0.944533   118A      0.961681  
	 119A      0.973671   120A      0.978878   121A      0.990752  
	 122A      0.996507   123A      1.005967   124A      1.015731  
	 125A      1.026989   126A      1.029421   127A      1.039010  
	 128A      1.045141   129A      1.054265   130A      1.057187  
	 131A      1.064014   132A      1.072001   133A      1.077697  
	 134A      1.087271   135A      1.093148   136A      1.103961  
	 137A      1.113507   138A      1.124883   139A      1.133787  
	 140A      1.140234   141A      1.144397   142A      1.161392  
	 143A      1.164450   144A      1.170645   145A      1.178483  
	 146A      1.184712   147A      1.193702   148A      1.200552  
	 149A      1.210845   150A      1.217551   151A      1.230026  
	 152A      1.243493   153A      1.254828   154A      1.256480  
	 155A      1.262341   156A      1.272513   157A      1.285806  
	 158A      1.296515   159A      1.321055   160A      1.325489  
	 161A      1.331738   162A      1.343451   163A      1.348442  
	 164A      1.354647   165A      1.369536   166A      1.372705  
	 167A      1.383871   168A      1.392752   169A      1.405233  
	 170A      1.417228   171A      1.420640   172A      1.430244  
	 173A      1.447928   174A      1.455288   175A      1.463014  
	 176A      1.470822   177A      1.494515   178A      1.507423  
	 179A      1.527468   180A      1.544027   181A      1.550885  
	 182A      1.573881   183A      1.591544   184A      1.608143  
	 185A      1.626389   186A      1.649038   187A      1.652021  
	 188A      1.679713   189A      1.696922   190A      1.706140  
	 191A      1.726724   192A      1.734576   193A      1.743846  
	 194A      1.765310   195A      1.777571   196A      1.790955  
	 197A      1.809685   198A      1.837193   199A      1.858925  
	 200A      1.872789   201A      1.878428   202A      1.897774  
	 203A      1.914428   204A      1.938300   205A      1.952343  
	 206A      1.958069   207A      1.991370   208A      2.001004  
	 209A      2.014338   210A      2.025345   211A      2.043907  
	 212A      2.050690   213A      2.089905   214A      2.095490  
	 215A      2.099548   216A      2.123642   217A      2.144060  
	 218A      2.154743   219A      2.178168   220A      2.220952  
	 221A      2.224271   222A      2.255808   223A      2.270761  
	 224A      2.283366   225A      2.326665   226A      2.342273  
	 227A      2.385847   228A      2.399180   229A      2.421729  
	 230A      2.428109   231A      2.457348   232A      2.484488  
	 233A      2.500955   234A      2.513584   235A      2.566736  
	 236A      2.593778   237A      2.617782   238A      2.652560  
	 239A      2.685677   240A      2.701718   241A      2.740177  
	 242A      2.742478   243A      2.768139   244A      2.787600  
	 245A      2.824738   246A      2.939980   247A      2.987040  
	 248A      3.074317   249A      3.130712   250A      3.145363  
	 251A      3.188115   252A      3.205852   253A      3.224388  
	 254A      3.290295   255A      3.385634   256A      3.391043  
	 257A      3.421761   258A      3.458572   259A      3.484635  
	 260A      3.594326   261A      3.602453   262A      3.620043  
	 263A      3.629158   264A      3.633095   265A      3.648840  
	 266A      3.698564   267A      3.715026   268A      3.758878  
	 269A      3.795932   270A      3.850388   271A      3.856143  
	 272A      3.862257   273A      3.877094   274A      3.929018  
	 275A      3.936566   276A      3.967449   277A      3.976398  
	 278A      4.030193   279A      4.057738   280A      4.077589  
	 281A      4.098957   282A      4.101083   283A      4.120699  
	 284A      4.136824   285A      4.154593   286A      4.176894  
	 287A      4.178535   288A      4.197849   289A      4.206714  
	 290A      4.228185   291A      4.245423   292A      4.267995  
	 293A      4.317331   294A      4.357125   295A      4.401494  
	 296A      4.417294   297A      4.451133   298A      4.474187  
	 299A      4.490380   300A      4.499559   301A      4.509175  
	 302A      4.533186   303A      4.543139   304A      4.546522  
	 305A      4.568280   306A      4.585937   307A      4.604811  
	 308A      4.617898   309A      4.683718   310A      4.696431  
	 311A      4.714175   312A      4.723064   313A      4.776336  
	 314A      4.792565   315A      4.840700   316A      4.851779  
	 317A      4.869062   318A      4.881498   319A      4.910225  
	 320A      4.927963   321A      4.948404   322A      4.964466  
	 323A      4.983214   324A      4.996633   325A      5.005237  
	 326A      5.023625   327A      5.070033   328A      5.112144  
	 329A      5.192442   330A      5.215526   331A      5.226193  
	 332A      5.251918   333A      5.285190   334A      5.296757  
	 335A      5.343315   336A      5.361498   337A      5.395557  
	 338A      5.453038   339A      5.490924   340A      5.501581  
	 341A      5.525915   342A      5.572972   343A      5.587361  
	 344A      5.643372   345A      5.652453   346A      5.659572  
	 347A      5.726669   348A      5.842307   349A      5.879936  
	 350A      6.020978   351A      6.096239   352A      6.106318  
	 353A      6.161781   354A      6.191592   355A      6.216193  
	 356A      6.226925   357A      6.686336   358A      6.722936  
	 359A      6.732705   360A      6.792636   361A      6.871031  
	 362A      7.183208   363A      7.759570   364A      7.803871  
	 365A      7.844488   366A      8.008213   367A      8.199628  
	 368A      8.206283   369A     10.369238   370A     15.216119  
	 371A     17.289056   372A     24.422497   373A     25.021363  
	 374A     25.329834   375A     51.960218   376A    141.730508  

	Final Occupation by Irrep:
	          A 
	DOCC [    13 ]

  Energy converged.

  @RHF Final Energy:  -437.75768593174280

   => Energetics <=

    Nuclear Repulsion Energy =             56.4326844845615057
    One-Electron Energy =                -715.3347397465170161
    Two-Electron Energy =                 221.1443693302122711
    DFT Exchange-Correlation Energy =       0.0000000000000000
    Empirical Dispersion Energy =           0.0000000000000000
    Total Energy =                       -437.7576859317432536



Properties will be evaluated at   0.000000,   0.000000,   0.000000 Bohr
  ==> Properties <==


Properties computed using the SCF density density matrix
  Nuclear Dipole Moment: (a.u.)
     X:    88.5172      Y:    14.0292      Z:   -20.4184

  Electronic Dipole Moment: (a.u.)
     X:   -88.4162      Y:   -14.6356      Z:    20.6568

  Dipole Moment: (a.u.)
     X:     0.1010      Y:    -0.6064      Z:     0.2384     Total:     0.6594

  Dipole Moment: (Debye)
     X:     0.2566      Y:    -1.5414      Z:     0.6060     Total:     1.6760


  Saving occupied orbitals to File 180.

  Saving SAPT 2-MONOMER_A file.

*** tstop() called on node111.bme.utexas.edu at Fri May 16 19:00:49 2014
Module time:
	user time   =     186.24 seconds =       3.10 minutes
	system time =       1.97 seconds =       0.03 minutes
	total time  =         27 seconds =       0.45 minutes
Total time:
	user time   =     470.14 seconds =       7.84 minutes
	system time =       5.18 seconds =       0.09 minutes
	total time  =         67 seconds =       1.12 minutes

  //>>>>>>>>>>>>>>>>>>>>>>>>>>>>>>>>>>>//
  //            Monomer B HF           //
  //<<<<<<<<<<<<<<<<<<<<<<<<<<<<<<<<<<<//


  No DF_BASIS_SCF auxiliary basis selected, defaulting to aug-cc-pvtz-jkfit


*** tstart() called on node111.bme.utexas.edu
*** at Fri May 16 19:00:49 2014


         ---------------------------------------------------------
                                   SCF
            by Justin Turney, Rob Parrish, and Andy Simmonett
                              RHF Reference
                        8 Threads,   7000 MiB Core
         ---------------------------------------------------------

  ==> Geometry <==

    Molecular point group: c1
    Full point group: C1

    Geometry (in Angstrom), charge = 0, multiplicity = 1:

       Center              X                  Y                   Z       
    ------------   -----------------  -----------------  -----------------
           C(Gh)      1.795272446625    -0.859985114554    -0.544032015027
           S(Gh)      1.780730446625     0.951248885446    -0.412447015027
           H(Gh)      2.199060446625     1.017050885446     0.854688984973
           H(Gh)      1.054267446625    -1.306059114554     0.113103984973
           H(Gh)      1.541705446625    -1.089791114554    -1.575405015027
           H(Gh)      2.782921446625    -1.257348114554    -0.334012015027
           C         -2.040747553375    -0.446448114554    -0.768378015027
           S         -1.704537553375    -0.348621114554     1.012222984973
           H         -0.693069553375     0.521506885446     0.906757984973
           H         -1.177730553375    -0.820115114554    -1.311251015027
           H         -2.339012553375     0.519141885446    -1.163702015027
           H         -2.862442553375    -1.146571114554    -0.890731015027

  Running in c1 symmetry.

  Nuclear repulsion =   56.451077363382637

  Charge       = 0
  Multiplicity = 1
  Electrons    = 26
  Nalpha       = 13
  Nbeta        = 13

  ==> Algorithm <==

  SCF Algorithm Type is DF.
  DIIS enabled.
  MOM disabled.
  Fractional occupation disabled.
  Guess Type is CORE.
  Energy threshold   = 1.00e-08
  Density threshold  = 1.00e-08
  Integral threshold = 0.00e+00

  ==> Primary Basis <==

  Basis Set: AUG-CC-PVTZ
    Number of shells: 132
    Number of basis function: 376
    Number of Cartesian functions: 428
    Spherical Harmonics?: true
    Max angular momentum: 3

  ==> Pre-Iterations <==

   -------------------------------------------------------
    Irrep   Nso     Nmo     Nalpha   Nbeta   Ndocc  Nsocc
   -------------------------------------------------------
     A        376     376       0       0       0       0
   -------------------------------------------------------
    Total     376     376      13      13      13       0
   -------------------------------------------------------

 OEINTS: Wrapper to libmints.
   by Justin Turney

   Calculation information:
      Number of atoms:                  12
      Number of AO shells:             132
      Number of SO shells:             132
      Number of primitives:            276
      Number of atomic orbitals:       428
      Number of basis functions:       376

      Number of irreps:                  1
      Number of functions per irrep: [ 376 ]

      Overlap, kinetic, potential, dipole, and quadrupole integrals
        stored in file 35.

  ==> Integral Setup <==

  ==> DFJK: Density-Fitted J/K Matrices <==

    J tasked:                  Yes
    K tasked:                  Yes
    wK tasked:                  No
    OpenMP threads:              8
    Integrals threads:           8
    Memory (MB):              5006
    Algorithm:                Core
    Integral Cache:           LOAD
    Schwarz Cutoff:          0E+00
    Fitting Condition:       1E-12

   => Auxiliary Basis Set <=

  Basis Set: aug-cc-pvtz-jkfit
    Number of shells: 256
    Number of basis function: 868
    Number of Cartesian functions: 1062
    Spherical Harmonics?: true
    Max angular momentum: 4

  Minimum eigenvalue in the overlap matrix is 2.2932272630E-05.
  Using Symmetric Orthogonalization.
  SCF Guess: Core (One-Electron) Hamiltonian.

  Guess energy:  -332.82216685739627

  ==> Iterations <==

                        Total Energy        Delta E     RMS |[F,P]|

   @RHF iter   1:  -387.23668793379471   -3.87237e+02   2.06115e-02 
   @RHF iter   2:  -319.46535889249344    6.77713e+01   2.20143e-02 DIIS
   @RHF iter   3:  -427.75056635787780   -1.08285e+02   9.26854e-03 DIIS
   @RHF iter   4:  -436.03673902324772   -8.28617e+00   4.93754e-03 DIIS
   @RHF iter   5:  -437.46205541359143   -1.42532e+00   2.01648e-03 DIIS
   @RHF iter   6:  -437.71393279217136   -2.51877e-01   6.37610e-04 DIIS
   @RHF iter   7:  -437.75592772622360   -4.19949e-02   1.10327e-04 DIIS
   @RHF iter   8:  -437.75735135141753   -1.42363e-03   3.75969e-05 DIIS
   @RHF iter   9:  -437.75752097753463   -1.69626e-04   1.00617e-05 DIIS
   @RHF iter  10:  -437.75754349109053   -2.25136e-05   2.30511e-06 DIIS
   @RHF iter  11:  -437.75754484820845   -1.35712e-06   5.20873e-07 DIIS
   @RHF iter  12:  -437.75754491284079   -6.46323e-08   1.17469e-07 DIIS
   @RHF iter  13:  -437.75754491582160   -2.98081e-09   2.25854e-08 DIIS
   @RHF iter  14:  -437.75754491594637   -1.24771e-10   4.85538e-09 DIIS

  ==> Post-Iterations <==

	Orbital Energies (a.u.)
	-----------------------

	Doubly Occupied:                                                      

	   1A    -91.953627     2A    -11.257057     3A     -8.954683  
	   4A     -6.636064     5A     -6.635069     6A     -6.633976  
	   7A     -1.038794     8A     -0.867016     9A     -0.609296  
	  10A     -0.592795    11A     -0.527051    12A     -0.461377  
	  13A     -0.357312  

	Virtual:                                                              

	  14A      0.021779    15A      0.034154    16A      0.038814  
	  17A      0.044075    18A      0.054463    19A      0.058184  
	  20A      0.064694    21A      0.075050    22A      0.085651  
	  23A      0.091464    24A      0.094364    25A      0.107524  
	  26A      0.110260    27A      0.116584    28A      0.123071  
	  29A      0.125950    30A      0.128523    31A      0.140533  
	  32A      0.144753    33A      0.155613    34A      0.157813  
	  35A      0.164445    36A      0.175194    37A      0.191521  
	  38A      0.214367    39A      0.227662    40A      0.231374  
	  41A      0.242253    42A      0.255324    43A      0.257030  
	  44A      0.268251    45A      0.273768    46A      0.276668  
	  47A      0.284452    48A      0.285619    49A      0.294196  
	  50A      0.304282    51A      0.307728    52A      0.320750  
	  53A      0.326915    54A      0.332722    55A      0.341425  
	  56A      0.351831    57A      0.364601    58A      0.367551  
	  59A      0.370487    60A      0.372422    61A      0.380322  
	  62A      0.390626    63A      0.396897    64A      0.399429  
	  65A      0.405584    66A      0.408785    67A      0.416991  
	  68A      0.425342    69A      0.430794    70A      0.432190  
	  71A      0.445079    72A      0.453669    73A      0.459705  
	  74A      0.461046    75A      0.478369    76A      0.490485  
	  77A      0.495455    78A      0.500314    79A      0.511989  
	  80A      0.522493    81A      0.533142    82A      0.534900  
	  83A      0.536764    84A      0.548276    85A      0.555976  
	  86A      0.566564    87A      0.571601    88A      0.585251  
	  89A      0.597462    90A      0.606836    91A      0.613375  
	  92A      0.625999    93A      0.642974    94A      0.661598  
	  95A      0.672504    96A      0.684119    97A      0.695329  
	  98A      0.703254    99A      0.720561   100A      0.728650  
	 101A      0.752484   102A      0.756644   103A      0.762322  
	 104A      0.795703   105A      0.802951   106A      0.815308  
	 107A      0.836218   108A      0.853152   109A      0.861217  
	 110A      0.863370   111A      0.874976   112A      0.888586  
	 113A      0.905953   114A      0.916108   115A      0.923834  
	 116A      0.935863   117A      0.944029   118A      0.949892  
	 119A      0.955218   120A      0.978547   121A      0.984318  
	 122A      0.996083   123A      1.004111   124A      1.014832  
	 125A      1.016037   126A      1.018026   127A      1.032525  
	 128A      1.039695   129A      1.042792   130A      1.051520  
	 131A      1.062950   132A      1.070401   133A      1.074508  
	 134A      1.088755   135A      1.099368   136A      1.101160  
	 137A      1.113938   138A      1.120749   139A      1.122822  
	 140A      1.136897   141A      1.142096   142A      1.153508  
	 143A      1.156928   144A      1.164382   145A      1.170691  
	 146A      1.180760   147A      1.186715   148A      1.203896  
	 149A      1.213560   150A      1.225248   151A      1.227860  
	 152A      1.233773   153A      1.248236   154A      1.257617  
	 155A      1.265306   156A      1.273383   157A      1.289132  
	 158A      1.292950   159A      1.304915   160A      1.315884  
	 161A      1.325267   162A      1.331830   163A      1.335379  
	 164A      1.357868   165A      1.368359   166A      1.374273  
	 167A      1.384122   168A      1.391084   169A      1.400141  
	 170A      1.412090   171A      1.424877   172A      1.434667  
	 173A      1.454989   174A      1.457134   175A      1.467645  
	 176A      1.481469   177A      1.492765   178A      1.505245  
	 179A      1.519794   180A      1.540378   181A      1.567680  
	 182A      1.578456   183A      1.593367   184A      1.612659  
	 185A      1.638602   186A      1.653249   187A      1.669703  
	 188A      1.690811   189A      1.697342   190A      1.714512  
	 191A      1.717784   192A      1.725764   193A      1.755265  
	 194A      1.758390   195A      1.771488   196A      1.792011  
	 197A      1.810341   198A      1.829834   199A      1.834605  
	 200A      1.861417   201A      1.872683   202A      1.882708  
	 203A      1.898141   204A      1.923211   205A      1.952743  
	 206A      1.956883   207A      1.976641   208A      2.010880  
	 209A      2.017270   210A      2.028228   211A      2.038828  
	 212A      2.063990   213A      2.074257   214A      2.076210  
	 215A      2.095873   216A      2.111683   217A      2.131398  
	 218A      2.158727   219A      2.185208   220A      2.205513  
	 221A      2.223623   222A      2.247510   223A      2.267298  
	 224A      2.295964   225A      2.320723   226A      2.335556  
	 227A      2.346025   228A      2.370127   229A      2.408418  
	 230A      2.412703   231A      2.450995   232A      2.467172  
	 233A      2.483783   234A      2.505078   235A      2.536564  
	 236A      2.583989   237A      2.597123   238A      2.638078  
	 239A      2.697859   240A      2.719693   241A      2.735914  
	 242A      2.756043   243A      2.771472   244A      2.782285  
	 245A      2.825857   246A      2.931450   247A      2.962148  
	 248A      3.077940   249A      3.133806   250A      3.150911  
	 251A      3.193448   252A      3.216000   253A      3.268735  
	 254A      3.283257   255A      3.373862   256A      3.388485  
	 257A      3.399926   258A      3.443475   259A      3.476280  
	 260A      3.583070   261A      3.594532   262A      3.615239  
	 263A      3.619086   264A      3.631581   265A      3.667625  
	 266A      3.689369   267A      3.729333   268A      3.750686  
	 269A      3.805508   270A      3.823564   271A      3.848174  
	 272A      3.870089   273A      3.890812   274A      3.925831  
	 275A      3.950244   276A      3.967985   277A      3.996808  
	 278A      4.066154   279A      4.076348   280A      4.085232  
	 281A      4.096061   282A      4.125514   283A      4.139098  
	 284A      4.153167   285A      4.164081   286A      4.175099  
	 287A      4.183488   288A      4.201233   289A      4.210729  
	 290A      4.211051   291A      4.249690   292A      4.265041  
	 293A      4.300701   294A      4.331628   295A      4.360773  
	 296A      4.407222   297A      4.447960   298A      4.461661  
	 299A      4.480984   300A      4.492510   301A      4.498935  
	 302A      4.510129   303A      4.542371   304A      4.578674  
	 305A      4.582243   306A      4.608916   307A      4.611964  
	 308A      4.628397   309A      4.685502   310A      4.702992  
	 311A      4.710816   312A      4.723356   313A      4.749470  
	 314A      4.802921   315A      4.838091   316A      4.840777  
	 317A      4.868290   318A      4.871833   319A      4.921037  
	 320A      4.931983   321A      4.937363   322A      4.962927  
	 323A      4.970098   324A      4.986447   325A      5.006147  
	 326A      5.015238   327A      5.061755   328A      5.111878  
	 329A      5.167570   330A      5.192494   331A      5.216177  
	 332A      5.234342   333A      5.283466   334A      5.297560  
	 335A      5.355189   336A      5.356357   337A      5.376702  
	 338A      5.396486   339A      5.480220   340A      5.503105  
	 341A      5.559729   342A      5.573387   343A      5.593810  
	 344A      5.619033   345A      5.630367   346A      5.657662  
	 347A      5.751039   348A      5.832408   349A      5.873755  
	 350A      6.005448   351A      6.093582   352A      6.125912  
	 353A      6.155884   354A      6.190259   355A      6.214794  
	 356A      6.248054   357A      6.671045   358A      6.711882  
	 359A      6.738171   360A      6.757001   361A      6.811693  
	 362A      7.190834   363A      7.746876   364A      7.812121  
	 365A      7.844529   366A      7.927252   367A      8.205774  
	 368A      8.231624   369A     10.373969   370A     15.328860  
	 371A     17.288786   372A     24.468906   373A     24.992027  
	 374A     25.363220   375A     51.939651   376A    141.741083  

	Final Occupation by Irrep:
	          A 
	DOCC [    13 ]

  Energy converged.

  @RHF Final Energy:  -437.75754491594637

   => Energetics <=

    Nuclear Repulsion Energy =             56.4510773633826375
    One-Electron Energy =                -715.3690096408843146
    Two-Electron Energy =                 221.1603873615545979
    DFT Exchange-Correlation Energy =       0.0000000000000000
    Empirical Dispersion Energy =           0.0000000000000000
    Total Energy =                       -437.7575449159470509



Properties will be evaluated at   0.000000,   0.000000,   0.000000 Bohr
  ==> Properties <==


Properties computed using the SCF density density matrix
  Nuclear Dipole Moment: (a.u.)
     X:   -88.0411      Y:   -17.3527      Z:    17.2463

  Electronic Dipole Moment: (a.u.)
     X:    88.1514      Y:    17.5125      Z:   -17.8745

  Dipole Moment: (a.u.)
     X:     0.1103      Y:     0.1598      Z:    -0.6282     Total:     0.6575

  Dipole Moment: (Debye)
     X:     0.2804      Y:     0.4062      Z:    -1.5966     Total:     1.6712


  Saving occupied orbitals to File 180.

  Saving SAPT 2-MONOMER_B file.

*** tstop() called on node111.bme.utexas.edu at Fri May 16 19:01:15 2014
Module time:
	user time   =     184.95 seconds =       3.08 minutes
	system time =       1.86 seconds =       0.03 minutes
	total time  =         26 seconds =       0.43 minutes
Total time:
	user time   =     655.11 seconds =      10.92 minutes
	system time =       7.04 seconds =       0.12 minutes
	total time  =         93 seconds =       1.55 minutes
  No DF_BASIS_SAPT auxiliary basis selected, defaulting to aug-cc-pvtz-ri

  //>>>>>>>>>>>>>>>>>>>>>>>>>>>>>>>>>>>//
  //               SAPT2+              //
  //<<<<<<<<<<<<<<<<<<<<<<<<<<<<<<<<<<<//


*** tstart() called on node111.bme.utexas.edu
*** at Fri May 16 19:01:15 2014

        SAPT2+  
    Ed Hohenstein
     6 June 2009

      Orbital Information
  --------------------------
    NSO        =       376
    NMO        =       376
    NRI        =       874
    NOCC A     =        13
    NOCC B     =        13
    FOCC A     =         6
    FOCC B     =         6
    NVIR A     =       363
    NVIR B     =       363

    Estimated memory usage: 1455.8 MB

    Elst10,r            =    -0.005024213374 H
    Exch10 (S^2)        =     0.007739712142 H
    Exch10              =     0.007772648989 H
    Ind20,r (A<-B)      =    -0.001642941478 H
    Ind20,r (B<-A)      =    -0.001392380657 H
    Ind20,r             =    -0.003035322135 H
    Exch-Ind20,r (A<-B) =     0.001268562171 H
    Exch-Ind20,r (B<-A) =     0.001113716711 H
    Exch-Ind20,r        =     0.002382278882 H
    Disp20              =    -0.007526684077 H
    Exch-Disp20         =     0.000876656358 H
    Elst12,r            =    -0.000291585368 H
    Exch11              =     0.000455281075 H
    Exch12              =     0.000212338940 H
    Ind22               =    -0.000235359994 H
    Disp21              =     0.000797035451 H
    Disp22 (SDQ)        =     0.000366538747 H

    (i =   1 of   7)        302 seconds
    (i =   2 of   7)        604 seconds
    (i =   3 of   7)        906 seconds
    (i =   4 of   7)       1208 seconds
    (i =   5 of   7)       1511 seconds
    (i =   6 of   7)       1813 seconds
    (i =   7 of   7)       2115 seconds

    Disp220 (T)         =    -0.000593811851 H

    (i =   1 of   7)        303 seconds
    (i =   2 of   7)        605 seconds
    (i =   3 of   7)        908 seconds
    (i =   4 of   7)       1210 seconds
    (i =   5 of   7)       1512 seconds
    (i =   6 of   7)       1815 seconds
    (i =   7 of   7)       2117 seconds

    Disp202 (T)         =    -0.000606097380 H

    Disp22 (T)          =    -0.001199909230 H

    SAPT Results  
  -----------------------------------------------------------------------
    Electrostatics          -5.31579874 mH      -3.33571421 kcal mol^-1
      Elst10,r              -5.02421337 mH      -3.15274162 kcal mol^-1
      Elst12,r              -0.29158537 mH      -0.18297259 kcal mol^-1

    Exchange                 8.44026900 mH       5.29634898 kcal mol^-1
      Exch10                 7.77264899 mH       4.87741108 kcal mol^-1
      Exch10(S^2)            7.73971214 mH       4.85674290 kcal mol^-1
      Exch11(S^2)            0.45528108 mH       0.28569320 kcal mol^-1
      Exch12(S^2)            0.21233894 mH       0.13324470 kcal mol^-1

    Induction               -1.71990535 mH      -1.07925695 kcal mol^-1
      Ind20,r               -3.03532214 mH      -1.90469348 kcal mol^-1
      Ind22                 -0.23535999 mH      -0.14769063 kcal mol^-1
      Exch-Ind20,r           2.38227888 mH       1.49490263 kcal mol^-1
      Exch-Ind22             0.18472278 mH       0.11591530 kcal mol^-1
      delta HF,r (2)        -1.01622488 mH      -0.63769077 kcal mol^-1

    Dispersion              -6.68636275 mH      -4.19575615 kcal mol^-1
      Disp20                -7.52668408 mH      -4.72306576 kcal mol^-1
      Disp21                 0.79703545 mH       0.50014732 kcal mol^-1
      Disp22 (SDQ)           0.36653875 mH       0.23000655 kcal mol^-1
      Disp22 (T)            -1.19990923 mH      -0.75295444 kcal mol^-1
      Exch-Disp20            0.87665636 mH       0.55011019 kcal mol^-1

    Total HF                 1.07916748 mH       0.67718785 kcal mol^-1
    Total SAPT0             -5.57086024 mH      -3.49576772 kcal mol^-1
    Total SAPT2             -5.24546281 mH      -3.29157774 kcal mol^-1
    Total SAPT2+            -5.28179784 mH      -3.31437832 kcal mol^-1

*** tstop() called on node111.bme.utexas.edu at Fri May 16 20:37:55 2014
Module time:
	user time   =   43402.05 seconds =     723.37 minutes
	system time =     231.89 seconds =       3.86 minutes
	total time  =       5800 seconds =      96.67 minutes
Total time:
	user time   =   44057.17 seconds =     734.29 minutes
	system time =     238.93 seconds =       3.98 minutes
	total time  =       5893 seconds =      98.22 minutes

*** PSI4 exiting successfully. Buy a developer a beer!
