
    -----------------------------------------------------------------------
          Psi4: An Open-Source Ab Initio Electronic Structure Package
                               Psi4 1.4a2.dev224 

                         Git: Rev {master} e453b16 


    R. M. Parrish, L. A. Burns, D. G. A. Smith, A. C. Simmonett,
    A. E. DePrince III, E. G. Hohenstein, U. Bozkaya, A. Yu. Sokolov,
    R. Di Remigio, R. M. Richard, J. F. Gonthier, A. M. James,
    H. R. McAlexander, A. Kumar, M. Saitow, X. Wang, B. P. Pritchard,
    P. Verma, H. F. Schaefer III, K. Patkowski, R. A. King, E. F. Valeev,
    F. A. Evangelista, J. M. Turney, T. D. Crawford, and C. D. Sherrill,
    J. Chem. Theory Comput. 13(7) pp 3185--3197 (2017).
    (doi: 10.1021/acs.jctc.7b00174)


                         Additional Contributions by
    P. Kraus, H. Kruse, M. H. Lechner, M. C. Schieber, R. A. Shaw,
    A. Alenaizan, R. Galvelis, Z. L. Glick, S. Lehtola, and J. P. Misiewicz

    -----------------------------------------------------------------------


    Psi4 started on: Thursday, 23 April 2020 05:30PM

    Process ID: 6924
    Host:       node73.bme.utexas.edu
    PSIDATADIR: /home/liuchw/anaconda3/envs/psi4env/share/psi4
    Memory:     500.0 MiB
    Threads:    8
    
  ==> Input File <==

--------------------------------------------------------------------------
#Generated by lconvert.py for sapt job

memory 50 GB

molecule  {
0 1
  C       0.794820   -0.002740   -0.413600
  S       0.780280    1.808500   -0.282020
  H       1.198610    1.874300    0.985120
  H       0.053820   -0.448810    0.243540
  H       0.541250   -0.232540   -1.444970
  H       1.782470   -0.400100   -0.203580
--
0 1
  C      -4.860660    0.041950   -0.200900
  S      -4.524450    0.139770    1.579700
  H      -3.512980    1.009900    1.474230
  H      -3.997640   -0.331720   -0.743780
  H      -5.158920    1.007540   -0.596230
  H      -5.682350   -0.658180   -0.323260
units angstrom
no_reorient
symmetry c1
}

set {
scf_type DF
basis aug-cc-pvtz
freeze_core True
guess SAD
}
energy('sapt2+')
--------------------------------------------------------------------------

  Memory set to  46.566 GiB by Python driver.

Scratch directory: /scratch/liuchw/

  //>>>>>>>>>>>>>>>>>>>>>>>>>>>>>>>>>>>//
  //              Dimer HF             //
  //<<<<<<<<<<<<<<<<<<<<<<<<<<<<<<<<<<<//


*** tstart() called on node73.bme.utexas.edu
*** at Thu Apr 23 17:30:28 2020

   => Loading Basis Set <=

    Name: AUG-CC-PVTZ
    Role: ORBITAL
    Keyword: BASIS
    atoms 1, 7      entry C          line   239 file /home/liuchw/anaconda3/envs/psi4env/share/psi4/basis/aug-cc-pvtz.gbs 
    atoms 2, 8      entry S          line   906 file /home/liuchw/anaconda3/envs/psi4env/share/psi4/basis/aug-cc-pvtz.gbs 
    atoms 3-6, 9-12 entry H          line    40 file /home/liuchw/anaconda3/envs/psi4env/share/psi4/basis/aug-cc-pvtz.gbs 


         ---------------------------------------------------------
                                   SCF
               by Justin Turney, Rob Parrish, Andy Simmonett
                          and Daniel G. A. Smith
                              RHF Reference
                        8 Threads,  47683 MiB Core
         ---------------------------------------------------------

  ==> Geometry <==

    Molecular point group: c1
    Full point group: C1

    Geometry (in Angstrom), charge = 0, multiplicity = 1:

       Center              X                  Y                   Z               Mass       
    ------------   -----------------  -----------------  -----------------  -----------------
         C            2.705001570498    -0.675561303625    -0.762552808054    12.000000000000
         S            2.690461570498     1.135678696375    -0.630972808054    31.972071174400
         H            3.108791570498     1.201478696375     0.636167191946     1.007825032230
         H            1.964001570498    -1.121631303625    -0.105412808054     1.007825032230
         H            2.451431570498    -0.905361303625    -1.793922808054     1.007825032230
         H            3.692651570498    -1.072921303625    -0.552532808054     1.007825032230
         C           -2.950478429502    -0.630871303625    -0.549852808054    12.000000000000
         S           -2.614268429502    -0.533051303625     1.230747191946    31.972071174400
         H           -1.602798429502     0.337078696375     1.125277191946     1.007825032230
         H           -2.087458429502    -1.004541303625    -1.092732808054     1.007825032230
         H           -3.248738429502     0.334718696375    -0.945182808054     1.007825032230
         H           -3.772168429502    -1.331001303625    -0.672212808054     1.007825032230

  Running in c1 symmetry.

  Rotational constants: A =      0.21378  B =      0.02081  C =      0.02050 [cm^-1]
  Rotational constants: A =   6408.86154  B =    623.98567  C =    614.68313 [MHz]
  Nuclear repulsion =  174.850452982133305

  Charge       = 0
  Multiplicity = 1
  Electrons    = 52
  Nalpha       = 26
  Nbeta        = 26

  ==> Algorithm <==

  SCF Algorithm Type is DF.
  DIIS enabled.
  MOM disabled.
  Fractional occupation disabled.
  Guess Type is SAD.
  Energy threshold   = 1.00e-08
  Density threshold  = 1.00e-08
  Integral threshold = 0.00e+00

  ==> Primary Basis <==

  Basis Set: AUG-CC-PVTZ
    Blend: AUG-CC-PVTZ
    Number of shells: 132
    Number of basis function: 376
    Number of Cartesian functions: 428
    Spherical Harmonics?: true
    Max angular momentum: 3

   => Loading Basis Set <=

    Name: (AUG-CC-PVTZ AUX)
    Role: JKFIT
    Keyword: DF_BASIS_SCF
    atoms 1, 7      entry C          line   162 file /home/liuchw/anaconda3/envs/psi4env/share/psi4/basis/aug-cc-pvtz-jkfit.gbs 
    atoms 2, 8      entry S          line   730 file /home/liuchw/anaconda3/envs/psi4env/share/psi4/basis/aug-cc-pvtz-jkfit.gbs 
    atoms 3-6, 9-12 entry H          line    70 file /home/liuchw/anaconda3/envs/psi4env/share/psi4/basis/aug-cc-pvtz-jkfit.gbs 

  ==> Pre-Iterations <==

   -------------------------------------------------------
    Irrep   Nso     Nmo     Nalpha   Nbeta   Ndocc  Nsocc
   -------------------------------------------------------
     A        376     376       0       0       0       0
   -------------------------------------------------------
    Total     376     376      26      26      26       0
   -------------------------------------------------------

  ==> Integral Setup <==

  ==> DiskDFJK: Density-Fitted J/K Matrices <==

    J tasked:                  Yes
    K tasked:                  Yes
    wK tasked:                  No
    OpenMP threads:              8
    Integrals threads:           8
    Memory [MiB]:            35762
    Algorithm:                Core
    Integral Cache:           SAVE
    Schwarz Cutoff:          1E-12
    Fitting Condition:       1E-10

   => Auxiliary Basis Set <=

  Basis Set: (AUG-CC-PVTZ AUX)
    Blend: AUG-CC-PVTZ-JKFIT
    Number of shells: 256
    Number of basis function: 868
    Number of Cartesian functions: 1062
    Spherical Harmonics?: true
    Max angular momentum: 4

  Minimum eigenvalue in the overlap matrix is 6.1590201260E-05.
  Using Symmetric Orthogonalization.

  SCF Guess: Superposition of Atomic Densities via on-the-fly atomic UHF.

  ==> Iterations <==

                           Total Energy        Delta E     RMS |[F,P]|

   @DF-RHF iter SAD:  -874.57208621807297   -8.74572e+02   0.00000e+00 
   @DF-RHF iter   1:  -875.38454402560751   -8.12458e-01   1.19516e-03 DIIS
   @DF-RHF iter   2:  -875.49448061317685   -1.09937e-01   4.92761e-04 DIIS
   @DF-RHF iter   3:  -875.51320122226412   -1.87206e-02   1.19641e-04 DIIS
   @DF-RHF iter   4:  -875.51541897543416   -2.21775e-03   3.22523e-05 DIIS
   @DF-RHF iter   5:  -875.51559022943718   -1.71254e-04   7.54809e-06 DIIS
   @DF-RHF iter   6:  -875.51560218118368   -1.19517e-05   2.05053e-06 DIIS
   @DF-RHF iter   7:  -875.51560319763200   -1.01645e-06   5.92171e-07 DIIS
   @DF-RHF iter   8:  -875.51560328731910   -8.96871e-08   1.14737e-07 DIIS
   @DF-RHF iter   9:  -875.51560329085589   -3.53680e-09   2.14606e-08 DIIS
   @DF-RHF iter  10:  -875.51560329097015   -1.14255e-10   6.24160e-09 DIIS
  Energy and wave function converged.


  ==> Post-Iterations <==

    Orbital Energies [Eh]
    ---------------------

    Doubly Occupied:                                                      

       1A    -91.955870     2A    -91.952576     3A    -11.259765  
       4A    -11.256276     5A     -8.957096     6A     -8.953757  
       7A     -6.638497     8A     -6.637485     9A     -6.636416  
      10A     -6.635142    11A     -6.634150    12A     -6.633072  
      13A     -1.041071    14A     -1.037936    15A     -0.869864  
      16A     -0.866147    17A     -0.611321    18A     -0.608362  
      19A     -0.596334    20A     -0.591966    21A     -0.530631  
      22A     -0.526105    23A     -0.462444    24A     -0.460538  
      25A     -0.360211    26A     -0.356616  

    Virtual:                                                              

      27A      0.027039    28A      0.034355    29A      0.038900  
      30A      0.044883    31A      0.050965    32A      0.053605  
      33A      0.061263    34A      0.077413    35A      0.085911  
      36A      0.092322    37A      0.096964    38A      0.100686  
      39A      0.116100    40A      0.120486    41A      0.127063  
      42A      0.132354    43A      0.134013    44A      0.141139  
      45A      0.146309    46A      0.150464    47A      0.152686  
      48A      0.166131    49A      0.171280    50A      0.181549  
      51A      0.201907    52A      0.203117    53A      0.215124  
      54A      0.218271    55A      0.226615    56A      0.239751  
      57A      0.242948    58A      0.253543    59A      0.263553  
      60A      0.266147    61A      0.271035    62A      0.279811  
      63A      0.290629    64A      0.292626    65A      0.301616  
      66A      0.309375    67A      0.321303    68A      0.328347  
      69A      0.337575    70A      0.342706    71A      0.347907  
      72A      0.363219    73A      0.365146    74A      0.370442  
      75A      0.373929    76A      0.381822    77A      0.384344  
      78A      0.387682    79A      0.395619    80A      0.399623  
      81A      0.403719    82A      0.407351    83A      0.409208  
      84A      0.418327    85A      0.420217    86A      0.423318  
      87A      0.429795    88A      0.432177    89A      0.437824  
      90A      0.439696    91A      0.445834    92A      0.447781  
      93A      0.455692    94A      0.464193    95A      0.466240  
      96A      0.477873    97A      0.484223    98A      0.493535  
      99A      0.502655   100A      0.513649   101A      0.518587  
     102A      0.524221   103A      0.546198   104A      0.568477  
     105A      0.629854   106A      0.638490   107A      0.650489  
     108A      0.665905   109A      0.673810   110A      0.686028  
     111A      0.688605   112A      0.697495   113A      0.709552  
     114A      0.713375   115A      0.716459   116A      0.735211  
     117A      0.754049   118A      0.772643   119A      0.778694  
     120A      0.785635   121A      0.801364   122A      0.811273  
     123A      0.823866   124A      0.836272   125A      0.844451  
     126A      0.849296   127A      0.855536   128A      0.861420  
     129A      0.869485   130A      0.870888   131A      0.880296  
     132A      0.884907   133A      0.890496   134A      0.898664  
     135A      0.913067   136A      0.915893   137A      0.927137  
     138A      0.938861   139A      0.944956   140A      0.951751  
     141A      0.957587   142A      0.961366   143A      0.974908  
     144A      0.978617   145A      0.987225   146A      0.993126  
     147A      1.001683   148A      1.002086   149A      1.012911  
     150A      1.020435   151A      1.021091   152A      1.029004  
     153A      1.034307   154A      1.037539   155A      1.054245  
     156A      1.063428   157A      1.078234   158A      1.081978  
     159A      1.089634   160A      1.092038   161A      1.103739  
     162A      1.113600   163A      1.114510   164A      1.129307  
     165A      1.132907   166A      1.144846   167A      1.148091  
     168A      1.167177   169A      1.174523   170A      1.187379  
     171A      1.192085   172A      1.204844   173A      1.208975  
     174A      1.219338   175A      1.230072   176A      1.238530  
     177A      1.259469   178A      1.269089   179A      1.286689  
     180A      1.298560   181A      1.307131   182A      1.317685  
     183A      1.328534   184A      1.337056   185A      1.350441  
     186A      1.359604   187A      1.366645   188A      1.372360  
     189A      1.399547   190A      1.404727   191A      1.405293  
     192A      1.424221   193A      1.479856   194A      1.488466  
     195A      1.576326   196A      1.583932   197A      1.593819  
     198A      1.600147   199A      1.624844   200A      1.633667  
     201A      1.640465   202A      1.642517   203A      1.652156  
     204A      1.657249   205A      1.670690   206A      1.678529  
     207A      1.684173   208A      1.688011   209A      1.694527  
     210A      1.702822   211A      1.711123   212A      1.716751  
     213A      1.725620   214A      1.733123   215A      1.752940  
     216A      1.760457   217A      1.779225   218A      1.791395  
     219A      1.812793   220A      1.820424   221A      1.892902  
     222A      1.904133   223A      1.936824   224A      1.946114  
     225A      1.955241   226A      1.960122   227A      2.003505  
     228A      2.013235   229A      2.034956   230A      2.045377  
     231A      2.073214   232A      2.084383   233A      2.138507  
     234A      2.147365   235A      2.158622   236A      2.169688  
     237A      2.188986   238A      2.191261   239A      2.201480  
     240A      2.207229   241A      2.232909   242A      2.255371  
     243A      2.294156   244A      2.302120   245A      2.352481  
     246A      2.364403   247A      2.393979   248A      2.399740  
     249A      2.461135   250A      2.475878   251A      2.504094  
     252A      2.522693   253A      2.550950   254A      2.555458  
     255A      2.584323   256A      2.595400   257A      2.647443  
     258A      2.651153   259A      2.668810   260A      2.678210  
     261A      2.710612   262A      2.714871   263A      2.755081  
     264A      2.763603   265A      2.823550   266A      2.835298  
     267A      3.020285   268A      3.035213   269A      3.068466  
     270A      3.073307   271A      3.084588   272A      3.118224  
     273A      3.354614   274A      3.359240   275A      3.361038  
     276A      3.373208   277A      3.515986   278A      3.531306  
     279A      3.533300   280A      3.543532   281A      3.578943  
     282A      3.583112   283A      3.593012   284A      3.595893  
     285A      3.603002   286A      3.606687   287A      3.614610  
     288A      3.632072   289A      3.661325   290A      3.669030  
     291A      3.778460   292A      3.787990   293A      3.803189  
     294A      3.807392   295A      3.929199   296A      3.937422  
     297A      3.938740   298A      3.946539   299A      3.998656  
     300A      4.005824   301A      4.009545   302A      4.021381  
     303A      4.077904   304A      4.086601   305A      4.109167  
     306A      4.117322   307A      4.121567   308A      4.123412  
     309A      4.127545   310A      4.135400   311A      4.173601  
     312A      4.180935   313A      4.200510   314A      4.203043  
     315A      4.242365   316A      4.245349   317A      4.370105  
     318A      4.384719   319A      4.444648   320A      4.450206  
     321A      4.473338   322A      4.476277   323A      4.486052  
     324A      4.486483   325A      4.510996   326A      4.520288  
     327A      4.553797   328A      4.555124   329A      4.562342  
     330A      4.572307   331A      4.660898   332A      4.670337  
     333A      4.752242   334A      4.757259   335A      4.765970  
     336A      4.769897   337A      4.805758   338A      4.810328  
     339A      4.897558   340A      4.910606   341A      4.920499  
     342A      4.929068   343A      4.967610   344A      4.972402  
     345A      5.002549   346A      5.006708   347A      5.149687  
     348A      5.160527   349A      5.181801   350A      5.185011  
     351A      5.247030   352A      5.256319   353A      5.315136  
     354A      5.323477   355A      5.548461   356A      5.553385  
     357A      5.565464   358A      5.576511   359A      5.584984  
     360A      5.588289   361A      5.619200   362A      5.631537  
     363A      5.972425   364A      5.979379   365A      6.068242  
     366A      6.084160   367A      6.089366   368A      6.094849  
     369A      6.621121   370A      6.634830   371A      6.659234  
     372A      6.676048   373A      7.704228   374A      7.715345  
     375A     17.024763   376A     17.055738  

    Final Occupation by Irrep:
              A 
    DOCC [    26 ]

  @DF-RHF Final Energy:  -875.51560329097015

   => Energetics <=

    Nuclear Repulsion Energy =            174.8504529821333051
    One-Electron Energy =               -1554.5928150362351516
    Two-Electron Energy =                 504.2267587631318406
    Total Energy =                       -875.5156032909701480

Computation Completed


Properties will be evaluated at   0.000000,   0.000000,   0.000000 [a0]

Properties computed using the SCF density matrix

  Nuclear Dipole Moment: [e a0]
     X:     0.4761      Y:    -3.3235      Z:    -3.1721

  Electronic Dipole Moment: [e a0]
     X:    -0.2431      Y:     2.8904      Z:     2.7838

  Dipole Moment: [e a0]
     X:     0.2330      Y:    -0.4332      Z:    -0.3882     Total:     0.6266

  Dipole Moment: [D]
     X:     0.5922      Y:    -1.1010      Z:    -0.9868     Total:     1.5927


*** tstop() called on node73.bme.utexas.edu at Thu Apr 23 17:30:38 2020
Module time:
	user time   =      62.35 seconds =       1.04 minutes
	system time =       1.93 seconds =       0.03 minutes
	total time  =         10 seconds =       0.17 minutes
Total time:
	user time   =      62.35 seconds =       1.04 minutes
	system time =       1.93 seconds =       0.03 minutes
	total time  =         10 seconds =       0.17 minutes

  //>>>>>>>>>>>>>>>>>>>>>>>>>>>>>>>>>>>//
  //            Monomer A HF           //
  //<<<<<<<<<<<<<<<<<<<<<<<<<<<<<<<<<<<//


*** tstart() called on node73.bme.utexas.edu
*** at Thu Apr 23 17:30:38 2020

   => Loading Basis Set <=

    Name: AUG-CC-PVTZ
    Role: ORBITAL
    Keyword: BASIS
    atoms 1, 7      entry C          line   239 file /home/liuchw/anaconda3/envs/psi4env/share/psi4/basis/aug-cc-pvtz.gbs 
    atoms 2, 8      entry S          line   906 file /home/liuchw/anaconda3/envs/psi4env/share/psi4/basis/aug-cc-pvtz.gbs 
    atoms 3-6, 9-12 entry H          line    40 file /home/liuchw/anaconda3/envs/psi4env/share/psi4/basis/aug-cc-pvtz.gbs 


         ---------------------------------------------------------
                                   SCF
               by Justin Turney, Rob Parrish, Andy Simmonett
                          and Daniel G. A. Smith
                              RHF Reference
                        8 Threads,  47683 MiB Core
         ---------------------------------------------------------

  ==> Geometry <==

    Molecular point group: c1
    Full point group: C1

    Geometry (in Angstrom), charge = 0, multiplicity = 1:

       Center              X                  Y                   Z               Mass       
    ------------   -----------------  -----------------  -----------------  -----------------
         C            2.705001570498    -0.675561303625    -0.762552808054    12.000000000000
         S            2.690461570498     1.135678696375    -0.630972808054    31.972071174400
         H            3.108791570498     1.201478696375     0.636167191946     1.007825032230
         H            1.964001570498    -1.121631303625    -0.105412808054     1.007825032230
         H            2.451431570498    -0.905361303625    -1.793922808054     1.007825032230
         H            3.692651570498    -1.072921303625    -0.552532808054     1.007825032230
      Gh(C)          -2.950478429502    -0.630871303625    -0.549852808054    12.000000000000
      Gh(S)          -2.614268429502    -0.533051303625     1.230747191946    31.972071174400
      Gh(H)          -1.602798429502     0.337078696375     1.125277191946     1.007825032230
      Gh(H)          -2.087458429502    -1.004541303625    -1.092732808054     1.007825032230
      Gh(H)          -3.248738429502     0.334718696375    -0.945182808054     1.007825032230
      Gh(H)          -3.772168429502    -1.331001303625    -0.672212808054     1.007825032230

  Running in c1 symmetry.

  Rotational constants: A =      0.21378  B =      0.02081  C =      0.02050 [cm^-1]
  Rotational constants: A =   6408.86154  B =    623.98567  C =    614.68313 [MHz]
  Nuclear repulsion =   56.432594269834887

  Charge       = 0
  Multiplicity = 1
  Electrons    = 26
  Nalpha       = 13
  Nbeta        = 13

  ==> Algorithm <==

  SCF Algorithm Type is DF.
  DIIS enabled.
  MOM disabled.
  Fractional occupation disabled.
  Guess Type is SAD.
  Energy threshold   = 1.00e-08
  Density threshold  = 1.00e-08
  Integral threshold = 0.00e+00

  ==> Primary Basis <==

  Basis Set: AUG-CC-PVTZ
    Blend: AUG-CC-PVTZ
    Number of shells: 132
    Number of basis function: 376
    Number of Cartesian functions: 428
    Spherical Harmonics?: true
    Max angular momentum: 3

   => Loading Basis Set <=

    Name: (AUG-CC-PVTZ AUX)
    Role: JKFIT
    Keyword: DF_BASIS_SCF
    atoms 1, 7      entry C          line   162 file /home/liuchw/anaconda3/envs/psi4env/share/psi4/basis/aug-cc-pvtz-jkfit.gbs 
    atoms 2, 8      entry S          line   730 file /home/liuchw/anaconda3/envs/psi4env/share/psi4/basis/aug-cc-pvtz-jkfit.gbs 
    atoms 3-6, 9-12 entry H          line    70 file /home/liuchw/anaconda3/envs/psi4env/share/psi4/basis/aug-cc-pvtz-jkfit.gbs 

  ==> Pre-Iterations <==

   -------------------------------------------------------
    Irrep   Nso     Nmo     Nalpha   Nbeta   Ndocc  Nsocc
   -------------------------------------------------------
     A        376     376       0       0       0       0
   -------------------------------------------------------
    Total     376     376      13      13      13       0
   -------------------------------------------------------

  ==> Integral Setup <==

  ==> DiskDFJK: Density-Fitted J/K Matrices <==

    J tasked:                  Yes
    K tasked:                  Yes
    wK tasked:                  No
    OpenMP threads:              8
    Integrals threads:           8
    Memory [MiB]:            35762
    Algorithm:                Core
    Integral Cache:           LOAD
    Schwarz Cutoff:          1E-12
    Fitting Condition:       1E-10

   => Auxiliary Basis Set <=

  Basis Set: (AUG-CC-PVTZ AUX)
    Blend: AUG-CC-PVTZ-JKFIT
    Number of shells: 256
    Number of basis function: 868
    Number of Cartesian functions: 1062
    Spherical Harmonics?: true
    Max angular momentum: 4

  Minimum eigenvalue in the overlap matrix is 6.1590201260E-05.
  Using Symmetric Orthogonalization.

  SCF Guess: Superposition of Atomic Densities via on-the-fly atomic UHF.

  ==> Iterations <==

                           Total Energy        Delta E     RMS |[F,P]|

   @DF-RHF iter SAD:  -437.28338228357592   -4.37283e+02   0.00000e+00 
   @DF-RHF iter   1:  -437.69202791193760   -4.08646e-01   8.45174e-04 DIIS
   @DF-RHF iter   2:  -437.74711114351413   -5.50832e-02   3.47865e-04 DIIS
   @DF-RHF iter   3:  -437.75643607707934   -9.32493e-03   8.42966e-05 DIIS
   @DF-RHF iter   4:  -437.75754052522643   -1.10445e-03   2.27332e-05 DIIS
   @DF-RHF iter   5:  -437.75762524329775   -8.47181e-05   5.34599e-06 DIIS
   @DF-RHF iter   6:  -437.75763118145142   -5.93815e-06   1.45853e-06 DIIS
   @DF-RHF iter   7:  -437.75763169585542   -5.14404e-07   4.19852e-07 DIIS
   @DF-RHF iter   8:  -437.75763174113905   -4.52836e-08   8.12107e-08 DIIS
   @DF-RHF iter   9:  -437.75763174291774   -1.77869e-09   1.45848e-08 DIIS
   @DF-RHF iter  10:  -437.75763174297288   -5.51381e-11   3.37624e-09 DIIS
  Energy and wave function converged.


  ==> Post-Iterations <==

    Orbital Energies [Eh]
    ---------------------

    Doubly Occupied:                                                      

       1A    -91.953077     2A    -11.257583     3A     -8.954292  
       4A     -6.635689     5A     -6.634676     6A     -6.633600  
       7A     -1.038544     8A     -0.867399     9A     -0.608956  
      10A     -0.594128    11A     -0.528123    12A     -0.459776  
      13A     -0.357297  

    Virtual:                                                              

      14A      0.022035    15A      0.033543    16A      0.037866  
      17A      0.043259    18A      0.049569    19A      0.052117  
      20A      0.059182    21A      0.074627    22A      0.085562  
      23A      0.088187    24A      0.094270    25A      0.098783  
      26A      0.108808    27A      0.112118    28A      0.118193  
      29A      0.125532    30A      0.130869    31A      0.135670  
      32A      0.140070    33A      0.146317    34A      0.150825  
      35A      0.157620    36A      0.166024    37A      0.180096  
      38A      0.205243    39A      0.208711    40A      0.220069  
      41A      0.230399    42A      0.244711    43A      0.253362  
      44A      0.257688    45A      0.270051    46A      0.274101  
      47A      0.279225    48A      0.286701    49A      0.287680  
      50A      0.298537    51A      0.299662    52A      0.304827  
      53A      0.314156    54A      0.318418    55A      0.322615  
      56A      0.331834    57A      0.339827    58A      0.342806  
      59A      0.346185    60A      0.350612    61A      0.361436  
      62A      0.376973    63A      0.380100    64A      0.384508  
      65A      0.386813    66A      0.393466    67A      0.399245  
      68A      0.403174    69A      0.410607    70A      0.417926  
      71A      0.419391    72A      0.422485    73A      0.425796  
      74A      0.437526    75A      0.439930    76A      0.445044  
      77A      0.450693    78A      0.461734    79A      0.466417  
      80A      0.471538    81A      0.479559    82A      0.485764  
      83A      0.499481    84A      0.513513    85A      0.514970  
      86A      0.530953    87A      0.543472    88A      0.544558  
      89A      0.557628    90A      0.568874    91A      0.572227  
      92A      0.607485    93A      0.612490    94A      0.631008  
      95A      0.640764    96A      0.657915    97A      0.672018  
      98A      0.675530    99A      0.678868   100A      0.702806  
     101A      0.711839   102A      0.714090   103A      0.738416  
     104A      0.744093   105A      0.764445   106A      0.784656  
     107A      0.806703   108A      0.836006   109A      0.847254  
     110A      0.853364   111A      0.865994   112A      0.876993  
     113A      0.881408   114A      0.901866   115A      0.918067  
     116A      0.924518   117A      0.937468   118A      0.942232  
     119A      0.954447   120A      0.959025   121A      0.964417  
     122A      0.975775   123A      0.976681   124A      0.985629  
     125A      0.994804   126A      1.000323   127A      1.001943  
     128A      1.013425   129A      1.022915   130A      1.028488  
     131A      1.034775   132A      1.036182   133A      1.040929  
     134A      1.050534   135A      1.061496   136A      1.071579  
     137A      1.076406   138A      1.080105   139A      1.088435  
     140A      1.091774   141A      1.102918   142A      1.107279  
     143A      1.114957   144A      1.119257   145A      1.127842  
     146A      1.132981   147A      1.143515   148A      1.144234  
     149A      1.154227   150A      1.164523   151A      1.169610  
     152A      1.181786   153A      1.185108   154A      1.190861  
     155A      1.201810   156A      1.208713   157A      1.214029  
     158A      1.220622   159A      1.225182   160A      1.242786  
     161A      1.250025   162A      1.251140   163A      1.270174  
     164A      1.273464   165A      1.287333   166A      1.298468  
     167A      1.303659   168A      1.308519   169A      1.328968  
     170A      1.345167   171A      1.354093   172A      1.357272  
     173A      1.369158   174A      1.377767   175A      1.384708  
     176A      1.390235   177A      1.397648   178A      1.407892  
     179A      1.414721   180A      1.422191   181A      1.445603  
     182A      1.464599   183A      1.483680   184A      1.518527  
     185A      1.587641   186A      1.600695   187A      1.605948  
     188A      1.641195   189A      1.650060   190A      1.655579  
     191A      1.674954   192A      1.687054   193A      1.701747  
     194A      1.707841   195A      1.715466   196A      1.718649  
     197A      1.727502   198A      1.754499   199A      1.775694  
     200A      1.803515   201A      1.813900   202A      1.844969  
     203A      1.850353   204A      1.869011   205A      1.898453  
     206A      1.920278   207A      1.947074   208A      1.954997  
     209A      1.967049   210A      1.976448   211A      1.989446  
     212A      2.005029   213A      2.007606   214A      2.043661  
     215A      2.062900   216A      2.076338   217A      2.081323  
     218A      2.088752   219A      2.128764   220A      2.139191  
     221A      2.160114   222A      2.178002   223A      2.193132  
     224A      2.206848   225A      2.241040   226A      2.259342  
     227A      2.293021   228A      2.307569   229A      2.352395  
     230A      2.368518   231A      2.401180   232A      2.431837  
     233A      2.442160   234A      2.462946   235A      2.483637  
     236A      2.501263   237A      2.508554   238A      2.556369  
     239A      2.588265   240A      2.652507   241A      2.679298  
     242A      2.710981   243A      2.719240   244A      2.725688  
     245A      2.760586   246A      2.825127   247A      2.898065  
     248A      3.026174   249A      3.067678   250A      3.086681  
     251A      3.092944   252A      3.109653   253A      3.141331  
     254A      3.180030   255A      3.309703   256A      3.355007  
     257A      3.358583   258A      3.374714   259A      3.446898  
     260A      3.524929   261A      3.536711   262A      3.581573  
     263A      3.596647   264A      3.602513   265A      3.622219  
     266A      3.643142   267A      3.645954   268A      3.664633  
     269A      3.711004   270A      3.718387   271A      3.783401  
     272A      3.803272   273A      3.829816   274A      3.836902  
     275A      3.912669   276A      3.937201   277A      3.942873  
     278A      4.002409   279A      4.011929   280A      4.043157  
     281A      4.069936   282A      4.080514   283A      4.086670  
     284A      4.108659   285A      4.118291   286A      4.119703  
     287A      4.128302   288A      4.131012   289A      4.153704  
     290A      4.176563   291A      4.191258   292A      4.204541  
     293A      4.245161   294A      4.299890   295A      4.319462  
     296A      4.372261   297A      4.408164   298A      4.418601  
     299A      4.425471   300A      4.441558   301A      4.452544  
     302A      4.473828   303A      4.485696   304A      4.501055  
     305A      4.510964   306A      4.518953   307A      4.555394  
     308A      4.558548   309A      4.646209   310A      4.650855  
     311A      4.664292   312A      4.694568   313A      4.705301  
     314A      4.757146   315A      4.767723   316A      4.803523  
     317A      4.812919   318A      4.823462   319A      4.895425  
     320A      4.898010   321A      4.900263   322A      4.926477  
     323A      4.931070   324A      4.947755   325A      4.973046  
     326A      4.985908   327A      5.006683   328A      5.042567  
     329A      5.139172   330A      5.153700   331A      5.186247  
     332A      5.206717   333A      5.249289   334A      5.277439  
     335A      5.316887   336A      5.328283   337A      5.336450  
     338A      5.367026   339A      5.463600   340A      5.482586  
     341A      5.496642   342A      5.550802   343A      5.567653  
     344A      5.587943   345A      5.623824   346A      5.634088  
     347A      5.663385   348A      5.811275   349A      5.867312  
     350A      5.978253   351A      6.071647   352A      6.091373  
     353A      6.130031   354A      6.173320   355A      6.187412  
     356A      6.211768   357A      6.629522   358A      6.671552  
     359A      6.694612   360A      6.709087   361A      6.793918  
     362A      7.132907   363A      7.712701   364A      7.739109  
     365A      7.764586   366A      7.816636   367A      8.154092  
     368A      8.176229   369A     10.303783   370A     14.922515  
     371A     17.035957   372A     24.210703   373A     24.947932  
     374A     25.253459   375A     51.476199   376A    141.695464  

    Final Occupation by Irrep:
              A 
    DOCC [    13 ]

  @DF-RHF Final Energy:  -437.75763174297288

   => Energetics <=

    Nuclear Repulsion Energy =             56.4325942698348868
    One-Electron Energy =                -715.3341690583748687
    Two-Electron Energy =                 221.1439430455670845
    Total Energy =                       -437.7576317429728761

Computation Completed


Properties will be evaluated at   0.000000,   0.000000,   0.000000 [a0]

Properties computed using the SCF density matrix

  Nuclear Dipole Moment: [e a0]
     X:   133.2149      Y:    23.0907      Z:   -31.1551

  Electronic Dipole Moment: [e a0]
     X:  -133.1139      Y:   -23.6972      Z:    31.3936

  Dipole Moment: [e a0]
     X:     0.1010      Y:    -0.6065      Z:     0.2384     Total:     0.6595

  Dipole Moment: [D]
     X:     0.2567      Y:    -1.5416      Z:     0.6061     Total:     1.6762


*** tstop() called on node73.bme.utexas.edu at Thu Apr 23 17:30:43 2020
Module time:
	user time   =      35.06 seconds =       0.58 minutes
	system time =       1.25 seconds =       0.02 minutes
	total time  =          5 seconds =       0.08 minutes
Total time:
	user time   =      97.46 seconds =       1.62 minutes
	system time =       3.19 seconds =       0.05 minutes
	total time  =         15 seconds =       0.25 minutes

  //>>>>>>>>>>>>>>>>>>>>>>>>>>>>>>>>>>>//
  //            Monomer B HF           //
  //<<<<<<<<<<<<<<<<<<<<<<<<<<<<<<<<<<<//


*** tstart() called on node73.bme.utexas.edu
*** at Thu Apr 23 17:30:43 2020

   => Loading Basis Set <=

    Name: AUG-CC-PVTZ
    Role: ORBITAL
    Keyword: BASIS
    atoms 1, 7      entry C          line   239 file /home/liuchw/anaconda3/envs/psi4env/share/psi4/basis/aug-cc-pvtz.gbs 
    atoms 2, 8      entry S          line   906 file /home/liuchw/anaconda3/envs/psi4env/share/psi4/basis/aug-cc-pvtz.gbs 
    atoms 3-6, 9-12 entry H          line    40 file /home/liuchw/anaconda3/envs/psi4env/share/psi4/basis/aug-cc-pvtz.gbs 


         ---------------------------------------------------------
                                   SCF
               by Justin Turney, Rob Parrish, Andy Simmonett
                          and Daniel G. A. Smith
                              RHF Reference
                        8 Threads,  47683 MiB Core
         ---------------------------------------------------------

  ==> Geometry <==

    Molecular point group: c1
    Full point group: C1

    Geometry (in Angstrom), charge = 0, multiplicity = 1:

       Center              X                  Y                   Z               Mass       
    ------------   -----------------  -----------------  -----------------  -----------------
      Gh(C)           2.705001570498    -0.675561303625    -0.762552808054    12.000000000000
      Gh(S)           2.690461570498     1.135678696375    -0.630972808054    31.972071174400
      Gh(H)           3.108791570498     1.201478696375     0.636167191946     1.007825032230
      Gh(H)           1.964001570498    -1.121631303625    -0.105412808054     1.007825032230
      Gh(H)           2.451431570498    -0.905361303625    -1.793922808054     1.007825032230
      Gh(H)           3.692651570498    -1.072921303625    -0.552532808054     1.007825032230
         C           -2.950478429502    -0.630871303625    -0.549852808054    12.000000000000
         S           -2.614268429502    -0.533051303625     1.230747191946    31.972071174400
         H           -1.602798429502     0.337078696375     1.125277191946     1.007825032230
         H           -2.087458429502    -1.004541303625    -1.092732808054     1.007825032230
         H           -3.248738429502     0.334718696375    -0.945182808054     1.007825032230
         H           -3.772168429502    -1.331001303625    -0.672212808054     1.007825032230

  Running in c1 symmetry.

  Rotational constants: A =      0.21378  B =      0.02081  C =      0.02050 [cm^-1]
  Rotational constants: A =   6408.86154  B =    623.98567  C =    614.68313 [MHz]
  Nuclear repulsion =   56.451040754526275

  Charge       = 0
  Multiplicity = 1
  Electrons    = 26
  Nalpha       = 13
  Nbeta        = 13

  ==> Algorithm <==

  SCF Algorithm Type is DF.
  DIIS enabled.
  MOM disabled.
  Fractional occupation disabled.
  Guess Type is SAD.
  Energy threshold   = 1.00e-08
  Density threshold  = 1.00e-08
  Integral threshold = 0.00e+00

  ==> Primary Basis <==

  Basis Set: AUG-CC-PVTZ
    Blend: AUG-CC-PVTZ
    Number of shells: 132
    Number of basis function: 376
    Number of Cartesian functions: 428
    Spherical Harmonics?: true
    Max angular momentum: 3

   => Loading Basis Set <=

    Name: (AUG-CC-PVTZ AUX)
    Role: JKFIT
    Keyword: DF_BASIS_SCF
    atoms 1, 7      entry C          line   162 file /home/liuchw/anaconda3/envs/psi4env/share/psi4/basis/aug-cc-pvtz-jkfit.gbs 
    atoms 2, 8      entry S          line   730 file /home/liuchw/anaconda3/envs/psi4env/share/psi4/basis/aug-cc-pvtz-jkfit.gbs 
    atoms 3-6, 9-12 entry H          line    70 file /home/liuchw/anaconda3/envs/psi4env/share/psi4/basis/aug-cc-pvtz-jkfit.gbs 

  ==> Pre-Iterations <==

   -------------------------------------------------------
    Irrep   Nso     Nmo     Nalpha   Nbeta   Ndocc  Nsocc
   -------------------------------------------------------
     A        376     376       0       0       0       0
   -------------------------------------------------------
    Total     376     376      13      13      13       0
   -------------------------------------------------------

  ==> Integral Setup <==

  ==> DiskDFJK: Density-Fitted J/K Matrices <==

    J tasked:                  Yes
    K tasked:                  Yes
    wK tasked:                  No
    OpenMP threads:              8
    Integrals threads:           8
    Memory [MiB]:            35762
    Algorithm:                Core
    Integral Cache:           LOAD
    Schwarz Cutoff:          1E-12
    Fitting Condition:       1E-10

   => Auxiliary Basis Set <=

  Basis Set: (AUG-CC-PVTZ AUX)
    Blend: AUG-CC-PVTZ-JKFIT
    Number of shells: 256
    Number of basis function: 868
    Number of Cartesian functions: 1062
    Spherical Harmonics?: true
    Max angular momentum: 4

  Minimum eigenvalue in the overlap matrix is 6.1590201260E-05.
  Using Symmetric Orthogonalization.

  SCF Guess: Superposition of Atomic Densities via on-the-fly atomic UHF.

  ==> Iterations <==

                           Total Energy        Delta E     RMS |[F,P]|

   @DF-RHF iter SAD:  -437.28554731757595   -4.37286e+02   0.00000e+00 
   @DF-RHF iter   1:  -437.69176541548308   -4.06218e-01   8.46483e-04 DIIS
   @DF-RHF iter   2:  -437.74693154696951   -5.51661e-02   3.48897e-04 DIIS
   @DF-RHF iter   3:  -437.75630375477442   -9.37221e-03   8.43702e-05 DIIS
   @DF-RHF iter   4:  -437.75741256057432   -1.10881e-03   2.28164e-05 DIIS
   @DF-RHF iter   5:  -437.75749819491273   -8.56343e-05   5.39060e-06 DIIS
   @DF-RHF iter   6:  -437.75750425187942   -6.05697e-06   1.46918e-06 DIIS
   @DF-RHF iter   7:  -437.75750477535661   -5.23477e-07   4.21367e-07 DIIS
   @DF-RHF iter   8:  -437.75750482086073   -4.55041e-08   8.09961e-08 DIIS
   @DF-RHF iter   9:  -437.75750482262669   -1.76595e-09   1.44379e-08 DIIS
   @DF-RHF iter  10:  -437.75750482268006   -5.33760e-11   3.24528e-09 DIIS
  Energy and wave function converged.


  ==> Post-Iterations <==

    Orbital Energies [Eh]
    ---------------------

    Doubly Occupied:                                                      

       1A    -91.953535     2A    -11.257076     3A     -8.954690  
       4A     -6.636070     5A     -6.635073     6A     -6.633987  
       7A     -1.038824     8A     -0.867043     9A     -0.609322  
      10A     -0.592813    11A     -0.527078    12A     -0.461409  
      13A     -0.357320  

    Virtual:                                                              

      14A      0.019830    15A      0.032793    16A      0.037768  
      17A      0.043163    18A      0.050190    19A      0.052247  
      20A      0.060681    21A      0.074689    22A      0.080041  
      23A      0.086841    24A      0.094883    25A      0.099427  
      26A      0.103474    27A      0.113107    28A      0.120691  
      29A      0.123950    30A      0.126412    31A      0.131115  
      32A      0.141532    33A      0.143709    34A      0.150259  
      35A      0.163589    36A      0.166406    37A      0.176761  
      38A      0.207451    39A      0.215019    40A      0.217918  
      41A      0.228743    42A      0.246211    43A      0.253412  
      44A      0.262657    45A      0.265862    46A      0.268796  
      47A      0.277509    48A      0.280728    49A      0.285764  
      50A      0.293357    51A      0.299743    52A      0.306194  
      53A      0.308731    54A      0.313779    55A      0.319549  
      56A      0.324987    57A      0.330319    58A      0.339812  
      59A      0.345883    60A      0.350208    61A      0.363778  
      62A      0.364706    63A      0.379317    64A      0.380801  
      65A      0.393493    66A      0.396836    67A      0.403254  
      68A      0.407098    69A      0.409784    70A      0.411868  
      71A      0.419601    72A      0.423002    73A      0.429227  
      74A      0.432240    75A      0.436762    76A      0.446358  
      77A      0.457748    78A      0.459625    79A      0.464100  
      80A      0.474013    81A      0.482113    82A      0.494018  
      83A      0.498573    84A      0.515150    85A      0.521479  
      86A      0.528777    87A      0.533933    88A      0.547191  
      89A      0.557649    90A      0.564504    91A      0.576920  
      92A      0.606572    93A      0.613246    94A      0.620831  
      95A      0.635343    96A      0.644853    97A      0.657159  
      98A      0.676745    99A      0.681882   100A      0.689013  
     101A      0.705207   102A      0.712967   103A      0.729670  
     104A      0.755086   105A      0.774586   106A      0.782618  
     107A      0.812737   108A      0.835477   109A      0.851114  
     110A      0.854457   111A      0.863974   112A      0.872603  
     113A      0.889047   114A      0.897854   115A      0.910735  
     116A      0.918860   117A      0.932703   118A      0.936120  
     119A      0.946163   120A      0.956887   121A      0.960438  
     122A      0.966633   123A      0.973882   124A      0.981751  
     125A      0.987823   126A      1.000264   127A      1.010980  
     128A      1.016718   129A      1.018713   130A      1.025028  
     131A      1.031122   132A      1.037363   133A      1.043554  
     134A      1.057557   135A      1.061311   136A      1.067083  
     137A      1.077002   138A      1.083692   139A      1.091760  
     140A      1.099121   141A      1.099957   142A      1.103203  
     143A      1.108914   144A      1.118467   145A      1.125001  
     146A      1.127068   147A      1.132978   148A      1.137931  
     149A      1.158896   150A      1.163429   151A      1.166291  
     152A      1.183780   153A      1.183884   154A      1.193174  
     155A      1.196158   156A      1.201687   157A      1.213036  
     158A      1.221581   159A      1.229873   160A      1.241980  
     161A      1.249696   162A      1.254238   163A      1.259225  
     164A      1.272658   165A      1.284390   166A      1.293107  
     167A      1.309637   168A      1.319939   169A      1.329527  
     170A      1.335238   171A      1.348800   172A      1.355797  
     173A      1.360848   174A      1.376824   175A      1.380708  
     176A      1.392001   177A      1.400464   178A      1.403842  
     179A      1.415847   180A      1.428841   181A      1.449895  
     182A      1.463634   183A      1.486451   184A      1.510135  
     185A      1.580709   186A      1.591976   187A      1.600548  
     188A      1.627467   189A      1.650064   190A      1.651886  
     191A      1.679139   192A      1.685052   193A      1.706561  
     194A      1.711221   195A      1.717247   196A      1.720780  
     197A      1.729342   198A      1.757045   199A      1.780793  
     200A      1.796873   201A      1.823042   202A      1.840472  
     203A      1.850516   204A      1.868454   205A      1.897924  
     206A      1.917971   207A      1.943254   208A      1.949533  
     209A      1.954458   210A      1.962245   211A      1.974996  
     212A      1.996763   213A      2.019638   214A      2.036903  
     215A      2.057386   216A      2.070087   217A      2.076912  
     218A      2.108391   219A      2.117960   220A      2.148447  
     221A      2.155612   222A      2.168561   223A      2.193074  
     224A      2.200067   225A      2.254034   226A      2.263703  
     227A      2.285971   228A      2.300809   229A      2.349157  
     230A      2.363289   231A      2.393560   232A      2.432460  
     233A      2.439384   234A      2.458619   235A      2.474339  
     236A      2.482007   237A      2.518300   238A      2.553458  
     239A      2.595182   240A      2.645950   241A      2.667351  
     242A      2.711124   243A      2.718255   244A      2.729159  
     245A      2.761478   246A      2.832294   247A      2.895108  
     248A      3.031902   249A      3.071941   250A      3.086901  
     251A      3.104805   252A      3.117505   253A      3.143232  
     254A      3.181467   255A      3.313731   256A      3.353669  
     257A      3.360255   258A      3.362954   259A      3.443259  
     260A      3.529868   261A      3.533368   262A      3.586550  
     263A      3.595560   264A      3.603819   265A      3.619861  
     266A      3.642594   267A      3.648387   268A      3.661937  
     269A      3.704310   270A      3.720590   271A      3.789435  
     272A      3.800189   273A      3.818804   274A      3.833920  
     275A      3.912503   276A      3.931497   277A      3.942533  
     278A      4.003020   279A      4.013019   280A      4.042501  
     281A      4.061587   282A      4.078731   283A      4.084499  
     284A      4.110374   285A      4.117518   286A      4.122962  
     287A      4.125901   288A      4.135541   289A      4.151346  
     290A      4.179748   291A      4.184910   292A      4.200447  
     293A      4.242592   294A      4.293416   295A      4.311215  
     296A      4.380663   297A      4.387238   298A      4.417330  
     299A      4.423509   300A      4.435616   301A      4.445764  
     302A      4.475002   303A      4.485138   304A      4.496362  
     305A      4.518629   306A      4.526602   307A      4.561414  
     308A      4.570395   309A      4.632191   310A      4.658563  
     311A      4.668324   312A      4.687325   313A      4.699686  
     314A      4.754425   315A      4.769590   316A      4.803029  
     317A      4.806609   318A      4.812044   319A      4.891526  
     320A      4.895977   321A      4.909916   322A      4.919778  
     323A      4.929114   324A      4.947206   325A      4.968105  
     326A      4.984203   327A      5.004459   328A      5.031499  
     329A      5.129595   330A      5.159181   331A      5.180593  
     332A      5.200382   333A      5.255104   334A      5.280454  
     335A      5.312989   336A      5.322594   337A      5.343102  
     338A      5.356854   339A      5.455668   340A      5.484158  
     341A      5.500093   342A      5.552859   343A      5.575741  
     344A      5.586899   345A      5.610573   346A      5.617837  
     347A      5.676159   348A      5.813319   349A      5.856687  
     350A      5.975238   351A      6.083072   352A      6.092412  
     353A      6.123398   354A      6.165554   355A      6.180356  
     356A      6.227086   357A      6.627101   358A      6.661861  
     359A      6.693565   360A      6.697857   361A      6.776095  
     362A      7.136735   363A      7.704343   364A      7.736124  
     365A      7.760698   366A      7.817024   367A      8.147129  
     368A      8.182048   369A     10.296989   370A     14.934050  
     371A     17.045815   372A     24.232253   373A     24.919628  
     374A     25.255948   375A     51.461422   376A    141.693458  

    Final Occupation by Irrep:
              A 
    DOCC [    13 ]

  @DF-RHF Final Energy:  -437.75750482268006

   => Energetics <=

    Nuclear Repulsion Energy =             56.4510407545262751
    One-Electron Energy =                -715.3686102221706733
    Two-Electron Energy =                 221.1600646449643364
    Total Energy =                       -437.7575048226800618

Computation Completed


Properties will be evaluated at   0.000000,   0.000000,   0.000000 [a0]

Properties computed using the SCF density matrix

  Nuclear Dipole Moment: [e a0]
     X:  -132.7388      Y:   -26.4142      Z:    27.9830

  Electronic Dipole Moment: [e a0]
     X:   132.8490      Y:    26.5740      Z:   -28.6113

  Dipole Moment: [e a0]
     X:     0.1102      Y:     0.1598      Z:    -0.6283     Total:     0.6576

  Dipole Moment: [D]
     X:     0.2802      Y:     0.4062      Z:    -1.5969     Total:     1.6714


*** tstop() called on node73.bme.utexas.edu at Thu Apr 23 17:30:49 2020
Module time:
	user time   =      35.00 seconds =       0.58 minutes
	system time =       1.10 seconds =       0.02 minutes
	total time  =          6 seconds =       0.10 minutes
Total time:
	user time   =     132.53 seconds =       2.21 minutes
	system time =       4.30 seconds =       0.07 minutes
	total time  =         21 seconds =       0.35 minutes
  Constructing Basis Sets for SAPT...

   => Loading Basis Set <=

    Name: (AUG-CC-PVTZ AUX)
    Role: RIFIT
    Keyword: DF_BASIS_SAPT
    atoms 1, 7      entry C          line   148 file /home/liuchw/anaconda3/envs/psi4env/share/psi4/basis/aug-cc-pvtz-ri.gbs 
    atoms 2, 8      entry S          line   666 file /home/liuchw/anaconda3/envs/psi4env/share/psi4/basis/aug-cc-pvtz-ri.gbs 
    atoms 3-6, 9-12 entry H          line    30 file /home/liuchw/anaconda3/envs/psi4env/share/psi4/basis/aug-cc-pvtz-ri.gbs 


  //>>>>>>>>>>>>>>>>>>>>>>>>>>>>>>>>>>>//
  //               SAPT2+              //
  //<<<<<<<<<<<<<<<<<<<<<<<<<<<<<<<<<<<//


*** tstart() called on node73.bme.utexas.edu
*** at Thu Apr 23 17:30:49 2020

        SAPT2+  
    Ed Hohenstein
     6 June 2009

      Orbital Information
  --------------------------
    NSO        =       376
    NMO        =       376
    NRI        =       874
    NOCC A     =        13
    NOCC B     =        13
    FOCC A     =         6
    FOCC B     =         6
    NVIR A     =       363
    NVIR B     =       363

    Estimated memory usage: 1455.8 MB

    Natural Orbital Cutoff:   1.000E-06
    Disp(T3) Truncation:            Yes
    CCD (vv|vv) Truncation:         Yes
    MBPT T2 Truncation:             Yes

    Monomer A: 207 virtual orbitals dropped
    Monomer B: 207 virtual orbitals dropped

    Elst10,r            =    -0.000460135769 [Eh]
    Exch10 (S^2)        =     0.000019944331 [Eh]
    Exch10              =     0.000019944704 [Eh]
    Ind20,r (A<-B)      =    -0.000013729930 [Eh]
    Ind20,r (B<-A)      =    -0.000013879365 [Eh]
    Ind20,r             =    -0.000027609295 [Eh]
    Exch-Ind20,r (A<-B) =     0.000002438067 [Eh]
    Exch-Ind20,r (B<-A) =     0.000001474984 [Eh]
    Exch-Ind20,r        =     0.000003913052 [Eh]
    Disp20              =    -0.000494937318 [Eh]
    Disp20 (NO)         =    -0.000471674607 [Eh]
    Exch-Disp20         =     0.000004152324 [Eh]
    Elst12,r            =     0.000021549243 [Eh]
    Exch11              =     0.000001099137 [Eh]
    Exch12              =     0.000002004625 [Eh]
    Ind22               =     0.000000064714 [Eh]
    Disp21              =     0.000082155060 [Eh]
    Disp22 (SDQ)        =     0.000024011986 [Eh]

    (i =   1 of   7)          7 seconds
    (i =   2 of   7)         13 seconds
    (i =   3 of   7)         19 seconds
    (i =   4 of   7)         26 seconds
    (i =   5 of   7)         32 seconds
    (i =   6 of   7)         39 seconds
    (i =   7 of   7)         45 seconds

    Disp220 (T)         =    -0.000040578682 [Eh]

    (i =   1 of   7)          7 seconds
    (i =   2 of   7)         13 seconds
    (i =   3 of   7)         19 seconds
    (i =   4 of   7)         26 seconds
    (i =   5 of   7)         32 seconds
    (i =   6 of   7)         39 seconds
    (i =   7 of   7)         45 seconds

    Disp202 (T)         =    -0.000041359635 [Eh]

    Disp22 (T)          =    -0.000081938317 [Eh]

    Est. Disp220 (T)    =    -0.000042579998 [Eh]
    Est. Disp202 (T)    =    -0.000043399468 [Eh]

    Est. Disp22 (T)     =    -0.000085979466 [Eh]

    SAPT Results 
  --------------------------------------------------------------------------------------------------------
    Electrostatics                 -0.43858653 [mEh]      -0.27521720 [kcal/mol]      -1.15150877 [kJ/mol]
      Elst10,r                     -0.46013577 [mEh]      -0.28873955 [kcal/mol]      -1.20808629 [kJ/mol]
      Elst12,r                      0.02154924 [mEh]       0.01352235 [kcal/mol]       0.05657753 [kJ/mol]

    Exchange                        0.02304847 [mEh]       0.01446313 [kcal/mol]       0.06051374 [kJ/mol]
      Exch10                        0.01994470 [mEh]       0.01251549 [kcal/mol]       0.05236481 [kJ/mol]
      Exch10(S^2)                   0.01994433 [mEh]       0.01251526 [kcal/mol]       0.05236383 [kJ/mol]
      Exch11(S^2)                   0.00109914 [mEh]       0.00068972 [kcal/mol]       0.00288578 [kJ/mol]
      Exch12(S^2)                   0.00200463 [mEh]       0.00125792 [kcal/mol]       0.00526314 [kJ/mol]

    Induction                      -0.02647871 [mEh]      -0.01661564 [kcal/mol]      -0.06951984 [kJ/mol]
      Ind20,r                      -0.02760929 [mEh]      -0.01732509 [kcal/mol]      -0.07248819 [kJ/mol]
      Ind22                         0.00006471 [mEh]       0.00004061 [kcal/mol]       0.00016991 [kJ/mol]
      Exch-Ind20,r                  0.00391305 [mEh]       0.00245548 [kcal/mol]       0.01027372 [kJ/mol]
      Exch-Ind22                   -0.00000917 [mEh]      -0.00000576 [kcal/mol]      -0.00002408 [kJ/mol]
      delta HF,r (2)               -0.00283801 [mEh]      -0.00178088 [kcal/mol]      -0.00745119 [kJ/mol]

    Dispersion                     -0.47059742 [mEh]      -0.29530434 [kcal/mol]      -1.23555334 [kJ/mol]
      Disp20                       -0.49493732 [mEh]      -0.31057786 [kcal/mol]      -1.29945775 [kJ/mol]
      Disp21                        0.08215506 [mEh]       0.05155308 [kcal/mol]       0.21569808 [kJ/mol]
      Disp22 (SDQ)                  0.02401199 [mEh]       0.01506775 [kcal/mol]       0.06304346 [kJ/mol]
      Disp22 (T)                   -0.08193832 [mEh]      -0.05141707 [kcal/mol]      -0.21512902 [kJ/mol]
      Est. Disp22 (T)              -0.08597947 [mEh]      -0.05395293 [kcal/mol]      -0.22573906 [kJ/mol]
      Exch-Disp20                   0.00415232 [mEh]       0.00260562 [kcal/mol]       0.01090192 [kJ/mol]

  Total HF                         -0.46672532 [mEh]      -0.29287456 [kcal/mol]      -1.22538715 [kJ/mol]
  Total SAPT0                      -0.95751031 [mEh]      -0.60084679 [kcal/mol]      -2.51394298 [kJ/mol]
  Total SAPT2                      -0.93280176 [mEh]      -0.58534194 [kcal/mol]      -2.44907069 [kJ/mol]
  Total SAPT2+                     -0.91261419 [mEh]      -0.57267405 [kcal/mol]      -2.39606821 [kJ/mol]

  Special recipe for scaled SAPT0 (see Manual):
    Electrostatics sSAPT0          -0.46013577 [mEh]      -0.28873955 [kcal/mol]      -1.20808629 [kJ/mol]
    Exchange sSAPT0                 0.01994470 [mEh]       0.01251549 [kcal/mol]       0.05236481 [kJ/mol]
    Induction sSAPT0               -0.02653403 [mEh]      -0.01665036 [kcal/mol]      -0.06966509 [kJ/mol]
    Dispersion sSAPT0              -0.49078476 [mEh]      -0.30797209 [kcal/mol]      -1.28855521 [kJ/mol]
  Total sSAPT0                     -0.95750986 [mEh]      -0.60084651 [kcal/mol]      -2.51394179 [kJ/mol]
  --------------------------------------------------------------------------------------------------------

*** tstop() called on node73.bme.utexas.edu at Thu Apr 23 17:33:57 2020
Module time:
	user time   =    1348.42 seconds =      22.47 minutes
	system time =      53.36 seconds =       0.89 minutes
	total time  =        188 seconds =       3.13 minutes
Total time:
	user time   =    1481.89 seconds =      24.70 minutes
	system time =      57.71 seconds =       0.96 minutes
	total time  =        209 seconds =       3.48 minutes

    Psi4 stopped on: Thursday, 23 April 2020 05:33PM
    Psi4 wall time for execution: 0:03:28.87

*** Psi4 exiting successfully. Buy a developer a beer!
