    -----------------------------------------------------------------------
          PSI4: An Open-Source Ab Initio Electronic Structure Package
                              PSI 4.0.0-beta4 Driver

    J. M. Turney, A. C. Simmonett, R. M. Parrish, E. G. Hohenstein,
    F. A. Evangelista, J. T. Fermann, B. J. Mintz, L. A. Burns, J. J. Wilke,
    M. L. Abrams, N. J. Russ, M. L. Leininger, C. L. Janssen, E. T. Seidl,
    W. D. Allen, H. F. Schaefer, R. A. King, E. F. Valeev, C. D. Sherrill,
    and T. D. Crawford, WIREs Comput. Mol. Sci., (2011) (doi: 10.1002/wcms.93)

                         Additional Contributions by
    A. E. DePrince, M. Saitow, U. Bozkaya, A. Yu. Sokolov
    -----------------------------------------------------------------------

    Process ID:  41419
    PSI4DATADIR: /home/xzhu216/psi4/psi4-install/share/psi

    Using LocalCommunicator (Number of processes = 1)

    Memory level set to 256.000 MB

  ==> Input File <==

--------------------------------------------------------------------------
#psi4
#
memory 7 gb

molecule DMSO_Water {
0 1
    C    -3.546776000    -0.481931000     0.591520000
    O    -1.627661000     0.158046000    -1.132406000
    S    -2.263925000     0.691077000     0.115119000
    C    -1.152926000     0.298441000     1.478987000
    H    -3.959576000    -0.193985000     1.555567000
    H    -4.312989000    -0.438873000    -0.178064000
    H    -3.103695000    -1.475720000     0.616603000
    H    -1.627579000     0.566204000     2.420108000
    H    -0.916338000    -0.762663000     1.427498000
    H    -0.250773000     0.885377000     1.327912000
--
0 1
    O    -3.770897698     2.412167526     2.666543396
    H    -3.597354698     2.838994526     1.823249396
    H    -4.189023698     3.097830526     3.191588396
units angstrom
no_reorient  #important for SAPT in psi4, default
symmetry c1  #important for SAPT in psi4, default
}

set {
basis aug-cc-pVTZ
scf_type DF
guess GWH
freeze_core True
}
energy('sapt2+')
--------------------------------------------------------------------------

  Memory set to   7.000 GiB by Python script.

  //>>>>>>>>>>>>>>>>>>>>>>>>>>>>>>>>>>>//
  //              Dimer HF             //
  //<<<<<<<<<<<<<<<<<<<<<<<<<<<<<<<<<<<//


  No DF_BASIS_SCF auxiliary basis selected, defaulting to aug-cc-pvtz-jkfit


*** tstart() called on node37.bme.utexas.edu
*** at Thu Jun  5 12:25:27 2014


         ---------------------------------------------------------
                                   SCF
            by Justin Turney, Rob Parrish, and Andy Simmonett
                              RHF Reference
                        4 Threads,   7000 MiB Core
         ---------------------------------------------------------

  ==> Geometry <==

    Molecular point group: c1
    Full point group: C1

    Geometry (in Angstrom), charge = 0, multiplicity = 1:

       Center              X                  Y                   Z       
    ------------   -----------------  -----------------  -----------------
           C         -1.075975066361    -1.164633232116    -0.088982150646
           O          0.843139933639    -0.524656232116    -1.812908150646
           S          0.206875933639     0.008374767884    -0.565383150646
           C          1.317874933639    -0.384261232116     0.798484849354
           H         -1.488775066361    -0.876687232116     0.875064849354
           H         -1.842188066361    -1.121575232116    -0.858566150646
           H         -0.632894066361    -2.158422232116    -0.063899150646
           H          0.843221933639    -0.116498232116     1.739605849354
           H          1.554462933639    -1.445365232116     0.746995849354
           H          2.220027933639     0.202674767884     0.647409849354
           O         -1.300096764361     1.729465293884     1.986041245354
           H         -1.126553764361     2.156292293884     1.142747245354
           H         -1.718222764361     2.415128293884     2.511086245354

  Running in c1 symmetry.

  Nuclear repulsion =  252.669771079644363

  Charge       = 0
  Multiplicity = 1
  Electrons    = 52
  Nalpha       = 26
  Nbeta        = 26

  ==> Algorithm <==

  SCF Algorithm Type is DF.
  DIIS enabled.
  MOM disabled.
  Fractional occupation disabled.
  Guess Type is GWH.
  Energy threshold   = 1.00e-08
  Density threshold  = 1.00e-08
  Integral threshold = 0.00e+00

  ==> Primary Basis <==

  Basis Set: AUG-CC-PVTZ
    Number of shells: 144
    Number of basis function: 418
    Number of Cartesian functions: 479
    Spherical Harmonics?: true
    Max angular momentum: 3

  ==> Pre-Iterations <==

   -------------------------------------------------------
    Irrep   Nso     Nmo     Nalpha   Nbeta   Ndocc  Nsocc
   -------------------------------------------------------
     A        418     418       0       0       0       0
   -------------------------------------------------------
    Total     418     418      26      26      26       0
   -------------------------------------------------------

 OEINTS: Wrapper to libmints.
   by Justin Turney

   Calculation information:
      Number of atoms:                  13
      Number of AO shells:             144
      Number of SO shells:             144
      Number of primitives:            272
      Number of atomic orbitals:       479
      Number of basis functions:       418

      Number of irreps:                  1
      Number of functions per irrep: [ 418 ]

      Overlap, kinetic, potential, dipole, and quadrupole integrals
        stored in file 35.

  ==> Integral Setup <==

  ==> DFJK: Density-Fitted J/K Matrices <==

    J tasked:                  Yes
    K tasked:                  Yes
    wK tasked:                  No
    OpenMP threads:              4
    Integrals threads:           4
    Memory (MB):              5006
    Algorithm:                Core
    Integral Cache:           SAVE
    Schwarz Cutoff:          0E+00
    Fitting Condition:       1E-12

   => Auxiliary Basis Set <=

  Basis Set: aug-cc-pvtz-jkfit
    Number of shells: 274
    Number of basis function: 930
    Number of Cartesian functions: 1144
    Spherical Harmonics?: true
    Max angular momentum: 4

  Minimum eigenvalue in the overlap matrix is 1.9389561015E-05.
  Using Symmetric Orthogonalization.
  SCF Guess: Generalized Wolfsberg-Helmholtz.

  Guess energy:  -461.49833950539193

  ==> Iterations <==

                        Total Energy        Delta E     RMS |[F,P]|

   @RHF iter   1:  -581.48906314705869   -5.81489e+02   2.56049e-02 
   @RHF iter   2:  -491.14076437271291    9.03483e+01   2.77786e-02 DIIS
   @RHF iter   3:  -588.63141013324321   -9.74906e+01   1.15736e-02 DIIS
   @RHF iter   4:  -519.17154840066405    6.94599e+01   2.82193e-02 DIIS
   @RHF iter   5:  -533.36135954589736   -1.41898e+01   2.56350e-02 DIIS
   @RHF iter   6:  -536.21998758913060   -2.85863e+00   2.49043e-02 DIIS
   @RHF iter   7:  -540.11703457728686   -3.89705e+00   2.42712e-02 DIIS
   @RHF iter   8:  -540.91192255949477   -7.94888e-01   2.42238e-02 DIIS
   @RHF iter   9:  -540.94075273186968   -2.88302e-02   2.42045e-02 DIIS
   @RHF iter  10:  -541.59799139032793   -6.57239e-01   2.40891e-02 DIIS
   @RHF iter  11:  -542.03820407039325   -4.40213e-01   2.40577e-02 DIIS
   @RHF iter  12:  -542.11702171646471   -7.88176e-02   2.40491e-02 DIIS
   @RHF iter  13:  -539.74622615280350    2.37080e+00   2.42575e-02 DIIS
   @RHF iter  14:  -540.04513416391296   -2.98908e-01   2.42020e-02 DIIS
   @RHF iter  15:  -567.96848703905994   -2.79234e+01   2.11609e-02 DIIS
   @RHF iter  16:  -585.68689918905011   -1.77184e+01   1.68342e-02 DIIS
   @RHF iter  17:  -607.21145599174270   -2.15246e+01   1.20016e-02 DIIS
   @RHF iter  18:  -616.69315958032257   -9.48170e+00   9.22726e-03 DIIS
   @RHF iter  19:  -623.72084864749127   -7.02769e+00   5.15716e-03 DIIS
   @RHF iter  20:  -627.56426942139024   -3.84342e+00   1.34491e-03 DIIS
   @RHF iter  21:  -627.70375279500104   -1.39483e-01   3.94277e-04 DIIS
   @RHF iter  22:  -627.71667468887154   -1.29219e-02   8.09519e-05 DIIS
   @RHF iter  23:  -627.71763340243592   -9.58714e-04   2.75794e-05 DIIS
   @RHF iter  24:  -627.71774045103007   -1.07049e-04   6.38414e-06 DIIS
   @RHF iter  25:  -627.71774998730962   -9.53628e-06   2.48782e-06 DIIS
   @RHF iter  26:  -627.71775132987705   -1.34257e-06   9.98842e-07 DIIS
   @RHF iter  27:  -627.71775153505496   -2.05178e-07   2.45936e-07 DIIS
   @RHF iter  28:  -627.71775155240152   -1.73466e-08   6.42922e-08 DIIS
   @RHF iter  29:  -627.71775155334331   -9.41782e-10   2.46869e-08 DIIS
   @RHF iter  30:  -627.71775155345472   -1.11413e-10   9.39996e-09 DIIS

  ==> Post-Iterations <==

	Orbital Energies (a.u.)
	-----------------------

	Doubly Occupied:                                                      

	   1A    -92.063949     2A    -20.583235     3A    -20.498000  
	   4A    -11.253497     5A    -11.253486     6A     -9.050825  
	   7A     -6.732603     8A     -6.732421     9A     -6.731067  
	  10A     -1.369014    11A     -1.328872    12A     -1.060197  
	  13A     -0.968915    14A     -0.810018    15A     -0.732238  
	  16A     -0.638623    17A     -0.624884    18A     -0.614334  
	  19A     -0.600677    20A     -0.580054    21A     -0.556254  
	  22A     -0.538155    23A     -0.526347    24A     -0.509113  
	  25A     -0.413014    26A     -0.364104  

	Virtual:                                                              

	  27A      0.022043    28A      0.036670    29A      0.038738  
	  30A      0.043380    31A      0.056996    32A      0.062863  
	  33A      0.063714    34A      0.064974    35A      0.090507  
	  36A      0.117718    37A      0.118744    38A      0.123186  
	  39A      0.125958    40A      0.135765    41A      0.137700  
	  42A      0.144811    43A      0.145130    44A      0.154682  
	  45A      0.155032    46A      0.176302    47A      0.186952  
	  48A      0.189837    49A      0.198881    50A      0.204034  
	  51A      0.206767    52A      0.218537    53A      0.226795  
	  54A      0.241569    55A      0.244425    56A      0.257916  
	  57A      0.263462    58A      0.271636    59A      0.282422  
	  60A      0.298459    61A      0.305355    62A      0.305803  
	  63A      0.315308    64A      0.320658    65A      0.324635  
	  66A      0.336764    67A      0.343450    68A      0.348627  
	  69A      0.355905    70A      0.361245    71A      0.364774  
	  72A      0.382075    73A      0.382618    74A      0.390271  
	  75A      0.395614    76A      0.400937    77A      0.406419  
	  78A      0.410230    79A      0.416086    80A      0.422219  
	  81A      0.422436    82A      0.427902    83A      0.438894  
	  84A      0.451328    85A      0.451537    86A      0.461707  
	  87A      0.465380    88A      0.470112    89A      0.472905  
	  90A      0.486399    91A      0.491803    92A      0.516217  
	  93A      0.525252    94A      0.534987    95A      0.537571  
	  96A      0.539188    97A      0.553910    98A      0.566434  
	  99A      0.583689   100A      0.589378   101A      0.612587  
	 102A      0.623077   103A      0.627004   104A      0.639572  
	 105A      0.658710   106A      0.677434   107A      0.683630  
	 108A      0.690687   109A      0.698582   110A      0.711969  
	 111A      0.727987   112A      0.740964   113A      0.751490  
	 114A      0.766522   115A      0.771775   116A      0.782547  
	 117A      0.796037   118A      0.800859   119A      0.802316  
	 120A      0.824358   121A      0.832132   122A      0.851368  
	 123A      0.861754   124A      0.864042   125A      0.872577  
	 126A      0.875160   127A      0.879207   128A      0.890151  
	 129A      0.890862   130A      0.903060   131A      0.914835  
	 132A      0.923959   133A      0.933894   134A      0.935397  
	 135A      0.939330   136A      0.975441   137A      0.976691  
	 138A      0.981626   139A      0.985690   140A      0.995804  
	 141A      1.005300   142A      1.015643   143A      1.017346  
	 144A      1.035062   145A      1.036818   146A      1.042606  
	 147A      1.051840   148A      1.064321   149A      1.073846  
	 150A      1.081336   151A      1.081529   152A      1.087020  
	 153A      1.104130   154A      1.112474   155A      1.120286  
	 156A      1.134709   157A      1.134978   158A      1.143926  
	 159A      1.159528   160A      1.178826   161A      1.180710  
	 162A      1.186282   163A      1.188103   164A      1.220815  
	 165A      1.226902   166A      1.228830   167A      1.252330  
	 168A      1.255850   169A      1.264088   170A      1.270091  
	 171A      1.277419   172A      1.298967   173A      1.301656  
	 174A      1.320318   175A      1.338670   176A      1.344252  
	 177A      1.372836   178A      1.377898   179A      1.380076  
	 180A      1.389560   181A      1.396795   182A      1.427065  
	 183A      1.432263   184A      1.439847   185A      1.454102  
	 186A      1.485064   187A      1.499582   188A      1.506614  
	 189A      1.515371   190A      1.558091   191A      1.566515  
	 192A      1.573006   193A      1.585612   194A      1.596285  
	 195A      1.610574   196A      1.638154   197A      1.646331  
	 198A      1.656686   199A      1.659710   200A      1.675712  
	 201A      1.688635   202A      1.691256   203A      1.700503  
	 204A      1.720193   205A      1.729220   206A      1.741285  
	 207A      1.764494   208A      1.775915   209A      1.777528  
	 210A      1.792266   211A      1.804856   212A      1.807769  
	 213A      1.820422   214A      1.833254   215A      1.839471  
	 216A      1.849245   217A      1.869135   218A      1.903517  
	 219A      1.904225   220A      1.921771   221A      1.961926  
	 222A      1.991590   223A      1.995125   224A      2.034013  
	 225A      2.047285   226A      2.063075   227A      2.093281  
	 228A      2.097764   229A      2.122636   230A      2.135614  
	 231A      2.159996   232A      2.188720   233A      2.220634  
	 234A      2.223883   235A      2.252930   236A      2.259688  
	 237A      2.278925   238A      2.290102   239A      2.308864  
	 240A      2.318939   241A      2.334990   242A      2.361883  
	 243A      2.364468   244A      2.383915   245A      2.397925  
	 246A      2.400038   247A      2.439796   248A      2.457884  
	 249A      2.464697   250A      2.482430   251A      2.517436  
	 252A      2.530239   253A      2.535231   254A      2.576398  
	 255A      2.581488   256A      2.592854   257A      2.629108  
	 258A      2.637494   259A      2.684588   260A      2.690232  
	 261A      2.709490   262A      2.730633   263A      2.771904  
	 264A      2.772032   265A      2.803434   266A      2.805487  
	 267A      2.837911   268A      2.838776   269A      2.843866  
	 270A      2.849048   271A      2.884481   272A      2.909669  
	 273A      2.917021   274A      2.949424   275A      2.953148  
	 276A      3.059878   277A      3.098531   278A      3.174687  
	 279A      3.358003   280A      3.378265   281A      3.442112  
	 282A      3.469792   283A      3.483779   284A      3.488563  
	 285A      3.560014   286A      3.562875   287A      3.562919  
	 288A      3.591262   289A      3.595260   290A      3.618295  
	 291A      3.639707   292A      3.678273   293A      3.703170  
	 294A      3.709843   295A      3.722315   296A      3.749841  
	 297A      3.764542   298A      3.772954   299A      3.793277  
	 300A      3.817035   301A      3.830073   302A      3.861659  
	 303A      3.911233   304A      3.938718   305A      3.959069  
	 306A      3.975258   307A      3.985866   308A      4.040065  
	 309A      4.056602   310A      4.074108   311A      4.088611  
	 312A      4.128791   313A      4.138780   314A      4.154207  
	 315A      4.166380   316A      4.180347   317A      4.181738  
	 318A      4.219788   319A      4.229754   320A      4.234088  
	 321A      4.246460   322A      4.287206   323A      4.304565  
	 324A      4.359970   325A      4.360385   326A      4.395377  
	 327A      4.415338   328A      4.446527   329A      4.465618  
	 330A      4.492173   331A      4.530089   332A      4.532228  
	 333A      4.533389   334A      4.560491   335A      4.581228  
	 336A      4.600263   337A      4.607713   338A      4.626797  
	 339A      4.666754   340A      4.713914   341A      4.771576  
	 342A      4.774527   343A      4.826139   344A      4.835699  
	 345A      4.848020   346A      4.861736   347A      4.902432  
	 348A      4.928190   349A      4.957218   350A      4.974894  
	 351A      5.007442   352A      5.009061   353A      5.044866  
	 354A      5.112549   355A      5.138743   356A      5.152742  
	 357A      5.172906   358A      5.194864   359A      5.211274  
	 360A      5.243010   361A      5.249766   362A      5.272684  
	 363A      5.312355   364A      5.320304   365A      5.327031  
	 366A      5.362997   367A      5.521742   368A      5.529490  
	 369A      5.537098   370A      5.560222   371A      5.606534  
	 372A      5.638779   373A      5.704157   374A      5.721614  
	 375A      5.767543   376A      5.787387   377A      5.839905  
	 378A      5.976915   379A      6.004282   380A      6.066134  
	 381A      6.080318   382A      6.083367   383A      6.113857  
	 384A      6.229618   385A      6.587504   386A      6.682436  
	 387A      6.689679   388A      6.723641   389A      6.733975  
	 390A      6.748850   391A      6.760687   392A      6.826814  
	 393A      6.902683   394A      6.944655   395A      6.952220  
	 396A      6.973121   397A      6.993125   398A      7.037371  
	 399A      7.153213   400A      7.283442   401A      7.307266  
	 402A      7.322008   403A      7.323662   404A      7.341973  
	 405A      7.430201   406A      7.434741   407A      7.562158  
	 408A      7.610244   409A      7.629864   410A      7.650713  
	 411A      7.917715   412A      7.972416   413A      8.830002  
	 414A      9.641327   415A     12.621499   416A     15.938360  
	 417A     17.329310   418A     17.417434  

	Final Occupation by Irrep:
	          A 
	DOCC [    26 ]

  Energy converged.

  @RHF Final Energy:  -627.71775155345472

   => Energetics <=

    Nuclear Repulsion Energy =            252.6697710796443630
    One-Electron Energy =               -1366.5072454805924735
    Two-Electron Energy =                 486.1197228474931080
    DFT Exchange-Correlation Energy =       0.0000000000000000
    Empirical Dispersion Energy =           0.0000000000000000
    Total Energy =                       -627.7177515534550594



Properties will be evaluated at   0.000000,   0.000000,   0.000000 Bohr
  ==> Properties <==


Properties computed using the SCF density density matrix
  Nuclear Dipole Moment: (a.u.)
     X:    -2.0507      Y:    -0.8794      Z:     6.3049

  Electronic Dipole Moment: (a.u.)
     X:     1.2336      Y:     1.5239      Z:    -4.6676

  Dipole Moment: (a.u.)
     X:    -0.8170      Y:     0.6445      Z:     1.6373     Total:     1.9400

  Dipole Moment: (Debye)
     X:    -2.0767      Y:     1.6382      Z:     4.1615     Total:     4.9309


  Saving occupied orbitals to File 180.

  Saving SAPT 2-DIMER file.

*** tstop() called on node37.bme.utexas.edu at Thu Jun  5 12:26:25 2014
Module time:
	user time   =     181.63 seconds =       3.03 minutes
	system time =       1.88 seconds =       0.03 minutes
	total time  =         58 seconds =       0.97 minutes
Total time:
	user time   =     181.63 seconds =       3.03 minutes
	system time =       1.88 seconds =       0.03 minutes
	total time  =         58 seconds =       0.97 minutes

  //>>>>>>>>>>>>>>>>>>>>>>>>>>>>>>>>>>>//
  //            Monomer A HF           //
  //<<<<<<<<<<<<<<<<<<<<<<<<<<<<<<<<<<<//


  No DF_BASIS_SCF auxiliary basis selected, defaulting to aug-cc-pvtz-jkfit


*** tstart() called on node37.bme.utexas.edu
*** at Thu Jun  5 12:26:25 2014


         ---------------------------------------------------------
                                   SCF
            by Justin Turney, Rob Parrish, and Andy Simmonett
                              RHF Reference
                        4 Threads,   7000 MiB Core
         ---------------------------------------------------------

  ==> Geometry <==

    Molecular point group: c1
    Full point group: C1

    Geometry (in Angstrom), charge = 0, multiplicity = 1:

       Center              X                  Y                   Z       
    ------------   -----------------  -----------------  -----------------
           C         -1.075975066361    -1.164633232116    -0.088982150646
           O          0.843139933639    -0.524656232116    -1.812908150646
           S          0.206875933639     0.008374767884    -0.565383150646
           C          1.317874933639    -0.384261232116     0.798484849354
           H         -1.488775066361    -0.876687232116     0.875064849354
           H         -1.842188066361    -1.121575232116    -0.858566150646
           H         -0.632894066361    -2.158422232116    -0.063899150646
           H          0.843221933639    -0.116498232116     1.739605849354
           H          1.554462933639    -1.445365232116     0.746995849354
           H          2.220027933639     0.202674767884     0.647409849354
           O(Gh)     -1.300096764361     1.729465293884     1.986041245354
           H(Gh)     -1.126553764361     2.156292293884     1.142747245354
           H(Gh)     -1.718222764361     2.415128293884     2.511086245354

  Running in c1 symmetry.

  Nuclear repulsion =  184.468153201581600

  Charge       = 0
  Multiplicity = 1
  Electrons    = 42
  Nalpha       = 21
  Nbeta        = 21

  ==> Algorithm <==

  SCF Algorithm Type is DF.
  DIIS enabled.
  MOM disabled.
  Fractional occupation disabled.
  Guess Type is GWH.
  Energy threshold   = 1.00e-08
  Density threshold  = 1.00e-08
  Integral threshold = 0.00e+00

  ==> Primary Basis <==

  Basis Set: AUG-CC-PVTZ
    Number of shells: 144
    Number of basis function: 418
    Number of Cartesian functions: 479
    Spherical Harmonics?: true
    Max angular momentum: 3

  ==> Pre-Iterations <==

   -------------------------------------------------------
    Irrep   Nso     Nmo     Nalpha   Nbeta   Ndocc  Nsocc
   -------------------------------------------------------
     A        418     418       0       0       0       0
   -------------------------------------------------------
    Total     418     418      21      21      21       0
   -------------------------------------------------------

 OEINTS: Wrapper to libmints.
   by Justin Turney

   Calculation information:
      Number of atoms:                  13
      Number of AO shells:             144
      Number of SO shells:             144
      Number of primitives:            272
      Number of atomic orbitals:       479
      Number of basis functions:       418

      Number of irreps:                  1
      Number of functions per irrep: [ 418 ]

      Overlap, kinetic, potential, dipole, and quadrupole integrals
        stored in file 35.

  ==> Integral Setup <==

  ==> DFJK: Density-Fitted J/K Matrices <==

    J tasked:                  Yes
    K tasked:                  Yes
    wK tasked:                  No
    OpenMP threads:              4
    Integrals threads:           4
    Memory (MB):              5006
    Algorithm:                Core
    Integral Cache:           LOAD
    Schwarz Cutoff:          0E+00
    Fitting Condition:       1E-12

   => Auxiliary Basis Set <=

  Basis Set: aug-cc-pvtz-jkfit
    Number of shells: 274
    Number of basis function: 930
    Number of Cartesian functions: 1144
    Spherical Harmonics?: true
    Max angular momentum: 4

  Minimum eigenvalue in the overlap matrix is 1.9389561016E-05.
  Using Symmetric Orthogonalization.
  SCF Guess: Generalized Wolfsberg-Helmholtz.

  Guess energy:  -357.86708183100836

  ==> Iterations <==

                        Total Energy        Delta E     RMS |[F,P]|

   @RHF iter   1:  -454.12875557628718   -4.54129e+02   9.47551e-02 
   @RHF iter   2:  -511.67621026885058   -5.75475e+01   1.16179e-02 DIIS
   @RHF iter   3:  -471.41627979260875    4.02599e+01   2.92823e-02 DIIS
   @RHF iter   4:  -501.08833742747174   -2.96721e+01   2.04262e-02 DIIS
   @RHF iter   5:  -515.93350686050110   -1.48452e+01   1.77350e-02 DIIS
   @RHF iter   6:  -522.85235901846409   -6.91885e+00   1.59460e-02 DIIS
   @RHF iter   7:  -530.35314749067584   -7.50079e+00   1.36643e-02 DIIS
   @RHF iter   8:  -541.92385334794471   -1.15707e+01   9.93822e-03 DIIS
   @RHF iter   9:  -545.70851076239558   -3.78466e+00   7.49085e-03 DIIS
   @RHF iter  10:  -550.48528478758919   -4.77677e+00   3.27194e-03 DIIS
   @RHF iter  11:  -551.49512656629997   -1.00984e+00   1.10371e-03 DIIS
   @RHF iter  12:  -551.62914236188021   -1.34016e-01   4.41429e-04 DIIS
   @RHF iter  13:  -551.65162894358650   -2.24866e-02   1.17593e-04 DIIS
   @RHF iter  14:  -551.65312366210128   -1.49472e-03   4.49819e-05 DIIS
   @RHF iter  15:  -551.65350747891819   -3.83817e-04   1.63150e-05 DIIS
   @RHF iter  16:  -551.65357138623438   -6.39073e-05   5.31957e-06 DIIS
   @RHF iter  17:  -551.65358003949757   -8.65326e-06   1.90299e-06 DIIS
   @RHF iter  18:  -551.65358108146540   -1.04197e-06   6.76826e-07 DIIS
   @RHF iter  19:  -551.65358124321676   -1.61751e-07   1.93425e-07 DIIS
   @RHF iter  20:  -551.65358125591604   -1.26993e-08   4.69419e-08 DIIS
   @RHF iter  21:  -551.65358125671003   -7.93989e-10   1.20337e-08 DIIS
   @RHF iter  22:  -551.65358125675027   -4.02451e-11   2.84492e-09 DIIS

  ==> Post-Iterations <==

	Orbital Energies (a.u.)
	-----------------------

	Doubly Occupied:                                                      

	   1A    -92.069036     2A    -20.503152     3A    -11.262624  
	   4A    -11.262613     5A     -9.055902     6A     -6.737628  
	   7A     -6.737444     8A     -6.736044     9A     -1.333834  
	  10A     -1.067901    11A     -0.977601    12A     -0.816575  
	  13A     -0.646162    14A     -0.631260    15A     -0.622231  
	  16A     -0.588757    17A     -0.562701    18A     -0.545447  
	  19A     -0.514357    20A     -0.418804    21A     -0.368156  

	Virtual:                                                              

	  22A      0.020227    23A      0.035181    24A      0.035626  
	  25A      0.042723    26A      0.055266    27A      0.058400  
	  28A      0.062430    29A      0.066349    30A      0.090327  
	  31A      0.100817    32A      0.116432    33A      0.119206  
	  34A      0.125741    35A      0.128352    36A      0.131188  
	  37A      0.136896    38A      0.141739    39A      0.150908  
	  40A      0.151606    41A      0.161721    42A      0.172604  
	  43A      0.182960    44A      0.187636    45A      0.197336  
	  46A      0.200480    47A      0.213146    48A      0.224957  
	  49A      0.233257    50A      0.240551    51A      0.260946  
	  52A      0.262047    53A      0.277188    54A      0.278754  
	  55A      0.302074    56A      0.303658    57A      0.308465  
	  58A      0.315416    59A      0.322473    60A      0.324610  
	  61A      0.334146    62A      0.342172    63A      0.342446  
	  64A      0.348128    65A      0.353946    66A      0.355241  
	  67A      0.373136    68A      0.384445    69A      0.385527  
	  70A      0.386894    71A      0.392312    72A      0.394807  
	  73A      0.404628    74A      0.408605    75A      0.411175  
	  76A      0.417643    77A      0.422733    78A      0.425058  
	  79A      0.444304    80A      0.445113    81A      0.451501  
	  82A      0.457623    83A      0.460210    84A      0.465832  
	  85A      0.471275    86A      0.489433    87A      0.512525  
	  88A      0.516232    89A      0.519144    90A      0.536215  
	  91A      0.538180    92A      0.547504    93A      0.551434  
	  94A      0.578950    95A      0.581496    96A      0.607641  
	  97A      0.622291    98A      0.628738    99A      0.634109  
	 100A      0.645628   101A      0.669970   102A      0.681000  
	 103A      0.698251   104A      0.699010   105A      0.710487  
	 106A      0.750588   107A      0.753231   108A      0.771097  
	 109A      0.772377   110A      0.776420   111A      0.791429  
	 112A      0.799215   113A      0.803292   114A      0.809779  
	 115A      0.818604   116A      0.824123   117A      0.848639  
	 118A      0.849746   119A      0.853536   120A      0.866900  
	 121A      0.867647   122A      0.875139   123A      0.879346  
	 124A      0.888849   125A      0.893442   126A      0.905416  
	 127A      0.908621   128A      0.927803   129A      0.930220  
	 130A      0.939535   131A      0.949937   132A      0.954559  
	 133A      0.965403   134A      0.982392   135A      0.987204  
	 136A      1.003300   137A      1.004052   138A      1.009931  
	 139A      1.014582   140A      1.025444   141A      1.028535  
	 142A      1.053336   143A      1.056644   144A      1.067820  
	 145A      1.075885   146A      1.087273   147A      1.097090  
	 148A      1.105849   149A      1.109487   150A      1.125607  
	 151A      1.135983   152A      1.144606   153A      1.146285  
	 154A      1.149947   155A      1.169367   156A      1.176971  
	 157A      1.192428   158A      1.202492   159A      1.223873  
	 160A      1.227602   161A      1.240204   162A      1.255947  
	 163A      1.257737   164A      1.271795   165A      1.275453  
	 166A      1.289522   167A      1.309654   168A      1.312856  
	 169A      1.320771   170A      1.333959   171A      1.345387  
	 172A      1.353912   173A      1.378147   174A      1.385385  
	 175A      1.395707   176A      1.414628   177A      1.419037  
	 178A      1.430537   179A      1.437314   180A      1.448843  
	 181A      1.477217   182A      1.497717   183A      1.507695  
	 184A      1.517328   185A      1.526831   186A      1.546885  
	 187A      1.573549   188A      1.574991   189A      1.590735  
	 190A      1.625180   191A      1.644550   192A      1.648519  
	 193A      1.657037   194A      1.667829   195A      1.689185  
	 196A      1.696717   197A      1.697148   198A      1.709374  
	 199A      1.714940   200A      1.731933   201A      1.744831  
	 202A      1.762622   203A      1.767563   204A      1.774444  
	 205A      1.774932   206A      1.797194   207A      1.801090  
	 208A      1.806828   209A      1.829317   210A      1.835015  
	 211A      1.841112   212A      1.850542   213A      1.859655  
	 214A      1.905280   215A      1.906478   216A      1.936769  
	 217A      1.973601   218A      1.984445   219A      2.007558  
	 220A      2.054658   221A      2.055481   222A      2.084249  
	 223A      2.085852   224A      2.112141   225A      2.120051  
	 226A      2.127707   227A      2.184476   228A      2.218234  
	 229A      2.218266   230A      2.251047   231A      2.259337  
	 232A      2.277787   233A      2.290053   234A      2.300161  
	 235A      2.313315   236A      2.351752   237A      2.376783  
	 238A      2.389879   239A      2.394327   240A      2.413653  
	 241A      2.421936   242A      2.444034   243A      2.508349  
	 244A      2.532315   245A      2.534848   246A      2.546788  
	 247A      2.551340   248A      2.590563   249A      2.591341  
	 250A      2.600732   251A      2.644049   252A      2.649457  
	 253A      2.677804   254A      2.688404   255A      2.698961  
	 256A      2.729109   257A      2.734461   258A      2.777215  
	 259A      2.795811   260A      2.802708   261A      2.828507  
	 262A      2.837749   263A      2.844160   264A      2.852381  
	 265A      2.875826   266A      2.905233   267A      3.003450  
	 268A      3.043307   269A      3.091366   270A      3.157074  
	 271A      3.206022   272A      3.218012   273A      3.315373  
	 274A      3.315534   275A      3.349970   276A      3.356948  
	 277A      3.412205   278A      3.435290   279A      3.465838  
	 280A      3.506131   281A      3.517758   282A      3.532290  
	 283A      3.555518   284A      3.559751   285A      3.590070  
	 286A      3.593244   287A      3.593770   288A      3.631744  
	 289A      3.634844   290A      3.679123   291A      3.696076  
	 292A      3.707532   293A      3.717180   294A      3.721986  
	 295A      3.765703   296A      3.777236   297A      3.791378  
	 298A      3.817208   299A      3.857052   300A      3.873128  
	 301A      3.922976   302A      3.952115   303A      3.964126  
	 304A      3.979203   305A      4.041222   306A      4.050562  
	 307A      4.081546   308A      4.116472   309A      4.131117  
	 310A      4.155779   311A      4.168441   312A      4.174597  
	 313A      4.206684   314A      4.221877   315A      4.243138  
	 316A      4.277640   317A      4.311037   318A      4.375087  
	 319A      4.390878   320A      4.400918   321A      4.475988  
	 322A      4.483330   323A      4.503400   324A      4.520545  
	 325A      4.521929   326A      4.529349   327A      4.561153  
	 328A      4.583943   329A      4.596649   330A      4.603849  
	 331A      4.672576   332A      4.713894   333A      4.741178  
	 334A      4.770181   335A      4.781281   336A      4.813502  
	 337A      4.829620   338A      4.837943   339A      4.877110  
	 340A      4.901173   341A      4.920019   342A      4.921794  
	 343A      4.966639   344A      4.976899   345A      4.993889  
	 346A      5.022447   347A      5.027525   348A      5.049569  
	 349A      5.103616   350A      5.143648   351A      5.171739  
	 352A      5.197331   353A      5.202416   354A      5.239245  
	 355A      5.272828   356A      5.282441   357A      5.292832  
	 358A      5.318717   359A      5.514539   360A      5.524679  
	 361A      5.544006   362A      5.554994   363A      5.578372  
	 364A      5.624992   365A      5.626604   366A      5.693393  
	 367A      5.714587   368A      5.745899   369A      5.805476  
	 370A      5.831427   371A      5.867468   372A      5.970225  
	 373A      5.998634   374A      6.056038   375A      6.070582  
	 376A      6.076184   377A      6.104700   378A      6.159874  
	 379A      6.397515   380A      6.676505   381A      6.678589  
	 382A      6.707584   383A      6.718522   384A      6.730971  
	 385A      6.762517   386A      6.818557   387A      6.899391  
	 388A      6.940098   389A      6.965518   390A      6.988025  
	 391A      7.029184   392A      7.097774   393A      7.279358  
	 394A      7.310101   395A      7.564163   396A      7.608959  
	 397A      7.643476   398A      7.701767   399A      7.844097  
	 400A      8.058868   401A      8.176999   402A      8.291426  
	 403A      8.791649   404A      8.852562   405A      9.626809  
	 406A      9.756767   407A      9.930137   408A     10.027762  
	 409A     10.240747   410A     11.241060   411A     11.660706  
	 412A     12.115365   413A     12.616905   414A     13.582990  
	 415A     13.860771   416A     17.320659   417A     17.409162  
	 418A     64.922106  

	Final Occupation by Irrep:
	          A 
	DOCC [    21 ]

  Energy converged.

  @RHF Final Energy:  -551.65358125675027

   => Energetics <=

    Nuclear Repulsion Energy =            184.4681532015816003
    One-Electron Energy =               -1125.3270127604091613
    Two-Electron Energy =                 389.2052783020772040
    DFT Exchange-Correlation Energy =       0.0000000000000000
    Empirical Dispersion Energy =           0.0000000000000000
    Total Energy =                       -551.6535812567503854



Properties will be evaluated at   0.000000,   0.000000,   0.000000 Bohr
  ==> Properties <==


Properties computed using the SCF density density matrix
  Nuclear Dipole Moment: (a.u.)
     X:    22.9798      Y:   -35.6638      Z:   -30.6245

  Electronic Dipole Moment: (a.u.)
     X:   -23.5810      Y:    35.5474      Z:    32.3486

  Dipole Moment: (a.u.)
     X:    -0.6012      Y:    -0.1165      Z:     1.7241     Total:     1.8297

  Dipole Moment: (Debye)
     X:    -1.5282      Y:    -0.2961      Z:     4.3823     Total:     4.6505


  Saving occupied orbitals to File 180.

  Saving SAPT 2-MONOMER_A file.

*** tstop() called on node37.bme.utexas.edu at Thu Jun  5 12:27:12 2014
Module time:
	user time   =     119.57 seconds =       1.99 minutes
	system time =       1.26 seconds =       0.02 minutes
	total time  =         47 seconds =       0.78 minutes
Total time:
	user time   =     301.22 seconds =       5.02 minutes
	system time =       3.14 seconds =       0.05 minutes
	total time  =        105 seconds =       1.75 minutes

  //>>>>>>>>>>>>>>>>>>>>>>>>>>>>>>>>>>>//
  //            Monomer B HF           //
  //<<<<<<<<<<<<<<<<<<<<<<<<<<<<<<<<<<<//


  No DF_BASIS_SCF auxiliary basis selected, defaulting to aug-cc-pvtz-jkfit


*** tstart() called on node37.bme.utexas.edu
*** at Thu Jun  5 12:27:12 2014


         ---------------------------------------------------------
                                   SCF
            by Justin Turney, Rob Parrish, and Andy Simmonett
                              RHF Reference
                        4 Threads,   7000 MiB Core
         ---------------------------------------------------------

  ==> Geometry <==

    Molecular point group: c1
    Full point group: C1

    Geometry (in Angstrom), charge = 0, multiplicity = 1:

       Center              X                  Y                   Z       
    ------------   -----------------  -----------------  -----------------
           C(Gh)     -1.075975066361    -1.164633232116    -0.088982150646
           O(Gh)      0.843139933639    -0.524656232116    -1.812908150646
           S(Gh)      0.206875933639     0.008374767884    -0.565383150646
           C(Gh)      1.317874933639    -0.384261232116     0.798484849354
           H(Gh)     -1.488775066361    -0.876687232116     0.875064849354
           H(Gh)     -1.842188066361    -1.121575232116    -0.858566150646
           H(Gh)     -0.632894066361    -2.158422232116    -0.063899150646
           H(Gh)      0.843221933639    -0.116498232116     1.739605849354
           H(Gh)      1.554462933639    -1.445365232116     0.746995849354
           H(Gh)      2.220027933639     0.202674767884     0.647409849354
           O         -1.300096764361     1.729465293884     1.986041245354
           H         -1.126553764361     2.156292293884     1.142747245354
           H         -1.718222764361     2.415128293884     2.511086245354

  Running in c1 symmetry.

  Nuclear repulsion =    9.167261010862884

  Charge       = 0
  Multiplicity = 1
  Electrons    = 10
  Nalpha       = 5
  Nbeta        = 5

  ==> Algorithm <==

  SCF Algorithm Type is DF.
  DIIS enabled.
  MOM disabled.
  Fractional occupation disabled.
  Guess Type is GWH.
  Energy threshold   = 1.00e-08
  Density threshold  = 1.00e-08
  Integral threshold = 0.00e+00

  ==> Primary Basis <==

  Basis Set: AUG-CC-PVTZ
    Number of shells: 144
    Number of basis function: 418
    Number of Cartesian functions: 479
    Spherical Harmonics?: true
    Max angular momentum: 3

  ==> Pre-Iterations <==

   -------------------------------------------------------
    Irrep   Nso     Nmo     Nalpha   Nbeta   Ndocc  Nsocc
   -------------------------------------------------------
     A        418     418       0       0       0       0
   -------------------------------------------------------
    Total     418     418       5       5       5       0
   -------------------------------------------------------

 OEINTS: Wrapper to libmints.
   by Justin Turney

   Calculation information:
      Number of atoms:                  13
      Number of AO shells:             144
      Number of SO shells:             144
      Number of primitives:            272
      Number of atomic orbitals:       479
      Number of basis functions:       418

      Number of irreps:                  1
      Number of functions per irrep: [ 418 ]

      Overlap, kinetic, potential, dipole, and quadrupole integrals
        stored in file 35.

  ==> Integral Setup <==

  ==> DFJK: Density-Fitted J/K Matrices <==

    J tasked:                  Yes
    K tasked:                  Yes
    wK tasked:                  No
    OpenMP threads:              4
    Integrals threads:           4
    Memory (MB):              5006
    Algorithm:                Core
    Integral Cache:           LOAD
    Schwarz Cutoff:          0E+00
    Fitting Condition:       1E-12

   => Auxiliary Basis Set <=

  Basis Set: aug-cc-pvtz-jkfit
    Number of shells: 274
    Number of basis function: 930
    Number of Cartesian functions: 1144
    Spherical Harmonics?: true
    Max angular momentum: 4

  Minimum eigenvalue in the overlap matrix is 1.9389561016E-05.
  Using Symmetric Orthogonalization.
  SCF Guess: Generalized Wolfsberg-Helmholtz.

  Guess energy:   108.32086248399460

  ==> Iterations <==

                        Total Energy        Delta E     RMS |[F,P]|

   @RHF iter   1:   221.71737147141516    2.21717e+02   1.22744e-01 
   @RHF iter   2:   -61.33508587067458   -2.83052e+02   1.92382e-02 DIIS
   @RHF iter   3:   -63.78056401638813   -2.44548e+00   6.95811e-03 DIIS
   @RHF iter   4:   -72.93829970181029   -9.15774e+00   7.82326e-03 DIIS
   @RHF iter   5:   -75.33747875110750   -2.39918e+00   3.38279e-03 DIIS
   @RHF iter   6:   -76.04565876717324   -7.08180e-01   3.59597e-04 DIIS
   @RHF iter   7:   -76.05983840192852   -1.41796e-02   1.01946e-04 DIIS
   @RHF iter   8:   -76.06039287778401   -5.54476e-04   2.03284e-05 DIIS
   @RHF iter   9:   -76.06041918629577   -2.63085e-05   3.51037e-06 DIIS
   @RHF iter  10:   -76.06042022288850   -1.03659e-06   4.20079e-07 DIIS
   @RHF iter  11:   -76.06042025101746   -2.81290e-08   1.00890e-07 DIIS
   @RHF iter  12:   -76.06042025214948   -1.13202e-09   2.33304e-08 DIIS
   @RHF iter  13:   -76.06042025220415   -5.46692e-11   2.48999e-09 DIIS

  ==> Post-Iterations <==

	Orbital Energies (a.u.)
	-----------------------

	Doubly Occupied:                                                      

	   1A    -20.567876     2A     -1.352389     3A     -0.715107  
	   4A     -0.585389     5A     -0.510233  

	Virtual:                                                              

	   6A      0.020902     7A      0.035217     8A      0.037874  
	   9A      0.042865    10A      0.059890    11A      0.063736  
	  12A      0.066490    13A      0.069254    14A      0.071433  
	  15A      0.096939    16A      0.105765    17A      0.110815  
	  18A      0.121445    19A      0.122901    20A      0.136303  
	  21A      0.138631    22A      0.143138    23A      0.149245  
	  24A      0.155945    25A      0.169325    26A      0.186866  
	  27A      0.191993    28A      0.198979    29A      0.205332  
	  30A      0.215574    31A      0.220027    32A      0.222160  
	  33A      0.240046    34A      0.256210    35A      0.263342  
	  36A      0.279865    37A      0.280074    38A      0.282454  
	  39A      0.295980    40A      0.300786    41A      0.311325  
	  42A      0.313184    43A      0.322634    44A      0.332708  
	  45A      0.339196    46A      0.342795    47A      0.348285  
	  48A      0.349846    49A      0.359826    50A      0.370070  
	  51A      0.375211    52A      0.384033    53A      0.399731  
	  54A      0.402985    55A      0.415799    56A      0.423175  
	  57A      0.429614    58A      0.442362    59A      0.447450  
	  60A      0.457703    61A      0.463461    62A      0.470928  
	  63A      0.475576    64A      0.481829    65A      0.499771  
	  66A      0.504243    67A      0.513693    68A      0.522397  
	  69A      0.532411    70A      0.533121    71A      0.545291  
	  72A      0.554262    73A      0.556405    74A      0.561158  
	  75A      0.573772    76A      0.590055    77A      0.596413  
	  78A      0.602508    79A      0.606563    80A      0.608972  
	  81A      0.627983    82A      0.641483    83A      0.655398  
	  84A      0.659573    85A      0.673681    86A      0.694582  
	  87A      0.695060    88A      0.715866    89A      0.719434  
	  90A      0.720058    91A      0.731652    92A      0.732178  
	  93A      0.756355    94A      0.771472    95A      0.784590  
	  96A      0.785807    97A      0.831536    98A      0.846428  
	  99A      0.848115   100A      0.851285   101A      0.876006  
	 102A      0.881128   103A      0.908794   104A      0.915534  
	 105A      0.940899   106A      0.962197   107A      0.969268  
	 108A      0.975089   109A      0.978908   110A      0.982422  
	 111A      0.987411   112A      1.010088   113A      1.023513  
	 114A      1.028847   115A      1.035159   116A      1.044246  
	 117A      1.051160   118A      1.066110   119A      1.068887  
	 120A      1.071198   121A      1.081734   122A      1.083433  
	 123A      1.099644   124A      1.103114   125A      1.110810  
	 126A      1.111886   127A      1.120731   128A      1.126581  
	 129A      1.136199   130A      1.139136   131A      1.145580  
	 132A      1.153201   133A      1.168400   134A      1.181485  
	 135A      1.185995   136A      1.189493   137A      1.201113  
	 138A      1.227058   139A      1.235485   140A      1.245357  
	 141A      1.247501   142A      1.249712   143A      1.260325  
	 144A      1.279095   145A      1.290563   146A      1.294216  
	 147A      1.310175   148A      1.316846   149A      1.325999  
	 150A      1.339220   151A      1.351998   152A      1.370315  
	 153A      1.373247   154A      1.380168   155A      1.384307  
	 156A      1.391489   157A      1.392754   158A      1.428156  
	 159A      1.438167   160A      1.440745   161A      1.449553  
	 162A      1.472901   163A      1.476767   164A      1.491052  
	 165A      1.498899   166A      1.508334   167A      1.528515  
	 168A      1.531311   169A      1.545978   170A      1.571930  
	 171A      1.601326   172A      1.623454   173A      1.644897  
	 174A      1.646425   175A      1.676151   176A      1.676367  
	 177A      1.718857   178A      1.736449   179A      1.755975  
	 180A      1.767899   181A      1.773590   182A      1.795330  
	 183A      1.807015   184A      1.814044   185A      1.841224  
	 186A      1.863738   187A      1.880157   188A      1.903396  
	 189A      1.912372   190A      1.928664   191A      1.942936  
	 192A      1.958568   193A      1.961602   194A      1.963803  
	 195A      2.007709   196A      2.025091   197A      2.030307  
	 198A      2.035566   199A      2.044280   200A      2.065405  
	 201A      2.087643   202A      2.097302   203A      2.120200  
	 204A      2.121338   205A      2.154047   206A      2.159223  
	 207A      2.167460   208A      2.185632   209A      2.193522  
	 210A      2.237613   211A      2.279785   212A      2.299667  
	 213A      2.340992   214A      2.356732   215A      2.359820  
	 216A      2.401450   217A      2.436663   218A      2.448217  
	 219A      2.452441   220A      2.470562   221A      2.478842  
	 222A      2.480302   223A      2.502386   224A      2.509896  
	 225A      2.513719   226A      2.542465   227A      2.548315  
	 228A      2.563345   229A      2.589437   230A      2.592990  
	 231A      2.627885   232A      2.659952   233A      2.669140  
	 234A      2.697470   235A      2.721950   236A      2.725490  
	 237A      2.749775   238A      2.760323   239A      2.779139  
	 240A      2.812582   241A      2.831894   242A      2.851245  
	 243A      2.858377   244A      2.901737   245A      2.904748  
	 246A      2.924258   247A      2.932269   248A      2.949694  
	 249A      2.984042   250A      2.985116   251A      3.003190  
	 252A      3.046049   253A      3.080344   254A      3.133603  
	 255A      3.233096   256A      3.298835   257A      3.334733  
	 258A      3.367478   259A      3.508976   260A      3.516801  
	 261A      3.617402   262A      3.671063   263A      3.750545  
	 264A      3.796665   265A      3.854980   266A      3.867806  
	 267A      3.884221   268A      3.917274   269A      3.950134  
	 270A      4.003248   271A      4.059383   272A      4.064358  
	 273A      4.085797   274A      4.117745   275A      4.137657  
	 276A      4.148473   277A      4.173152   278A      4.178522  
	 279A      4.206696   280A      4.216468   281A      4.249720  
	 282A      4.251469   283A      4.265510   284A      4.272043  
	 285A      4.280506   286A      4.301587   287A      4.301988  
	 288A      4.351835   289A      4.372401   290A      4.395961  
	 291A      4.433817   292A      4.446797   293A      4.472271  
	 294A      4.487856   295A      4.505159   296A      4.544970  
	 297A      4.549718   298A      4.572685   299A      4.572816  
	 300A      4.586394   301A      4.625060   302A      4.640341  
	 303A      4.643021   304A      4.673363   305A      4.673732  
	 306A      4.687810   307A      4.699373   308A      4.751422  
	 309A      4.759207   310A      4.768502   311A      4.799344  
	 312A      4.816390   313A      4.881516   314A      4.902904  
	 315A      4.905441   316A      4.908369   317A      4.932903  
	 318A      4.958822   319A      5.025240   320A      5.026141  
	 321A      5.051552   322A      5.107183   323A      5.134893  
	 324A      5.155822   325A      5.168800   326A      5.194558  
	 327A      5.222291   328A      5.278591   329A      5.296991  
	 330A      5.310500   331A      5.336838   332A      5.345581  
	 333A      5.373330   334A      5.382340   335A      5.400766  
	 336A      5.405085   337A      5.428686   338A      5.500229  
	 339A      5.504831   340A      5.512712   341A      5.548148  
	 342A      5.585149   343A      5.586541   344A      5.623981  
	 345A      5.659566   346A      5.678540   347A      5.744167  
	 348A      5.759662   349A      5.774305   350A      5.802259  
	 351A      5.845640   352A      5.861078   353A      6.087713  
	 354A      6.161273   355A      6.174420   356A      6.222961  
	 357A      6.242626   358A      6.257883   359A      6.316275  
	 360A      6.322178   361A      6.347308   362A      6.428585  
	 363A      6.611373   364A      6.668208   365A      6.724161  
	 366A      6.761375   367A      6.776797   368A      6.787826  
	 369A      6.985779   370A      7.165824   371A      7.225698  
	 372A      7.273761   373A      7.334817   374A      7.338894  
	 375A      7.356682   376A      7.449225   377A      7.456409  
	 378A      7.552620   379A      7.560047   380A      7.627372  
	 381A      7.752233   382A      7.788290   383A      7.822808  
	 384A      7.832868   385A      7.849205   386A      7.860209  
	 387A      7.894375   388A      7.916883   389A      7.918365  
	 390A      7.943055   391A      7.997612   392A      8.022733  
	 393A      8.052832   394A      8.215547   395A      8.274376  
	 396A      8.299931   397A      8.387304   398A      8.847809  
	 399A      9.370859   400A      9.813395   401A      9.846890  
	 402A     10.132391   403A     10.177489   404A     10.458260  
	 405A     10.472407   406A     10.738621   407A     11.690320  
	 408A     11.695879   409A     12.905407   410A     15.945341  
	 411A     17.535902   412A     25.028569   413A     25.612653  
	 414A     25.776918   415A     51.991332   416A     52.027258  
	 417A     59.937076   418A    141.852275  

	Final Occupation by Irrep:
	          A 
	DOCC [     5 ]

  Energy converged.

  @RHF Final Energy:   -76.06042025220415

   => Energetics <=

    Nuclear Repulsion Energy =              9.1672610108628838
    One-Electron Energy =                -122.9933709506357644
    Two-Electron Energy =                  37.7656896875688517
    DFT Exchange-Correlation Energy =       0.0000000000000000
    Empirical Dispersion Energy =           0.0000000000000000
    Total Energy =                        -76.0604202522040254



Properties will be evaluated at   0.000000,   0.000000,   0.000000 Bohr
  ==> Properties <==


Properties computed using the SCF density density matrix
  Nuclear Dipole Moment: (a.u.)
     X:   -25.0305      Y:    34.7845      Z:    36.9293

  Electronic Dipole Moment: (a.u.)
     X:    24.8682      Y:   -34.0468      Z:   -37.1401

  Dipole Moment: (a.u.)
     X:    -0.1623      Y:     0.7376      Z:    -0.2108     Total:     0.7841

  Dipole Moment: (Debye)
     X:    -0.4124      Y:     1.8748      Z:    -0.5357     Total:     1.9930


  Saving occupied orbitals to File 180.

  Saving SAPT 2-MONOMER_B file.

*** tstop() called on node37.bme.utexas.edu at Thu Jun  5 12:27:27 2014
Module time:
	user time   =      50.64 seconds =       0.84 minutes
	system time =       0.67 seconds =       0.01 minutes
	total time  =         15 seconds =       0.25 minutes
Total time:
	user time   =     351.88 seconds =       5.86 minutes
	system time =       3.81 seconds =       0.06 minutes
	total time  =        120 seconds =       2.00 minutes
  No DF_BASIS_SAPT auxiliary basis selected, defaulting to aug-cc-pvtz-ri

  //>>>>>>>>>>>>>>>>>>>>>>>>>>>>>>>>>>>//
  //               SAPT2+              //
  //<<<<<<<<<<<<<<<<<<<<<<<<<<<<<<<<<<<//


*** tstart() called on node37.bme.utexas.edu
*** at Thu Jun  5 12:27:27 2014

        SAPT2+  
    Ed Hohenstein
     6 June 2009

      Orbital Information
  --------------------------
    NSO        =       418
    NMO        =       418
    NRI        =       939
    NOCC A     =        21
    NOCC B     =         5
    FOCC A     =         8
    FOCC B     =         1
    NVIR A     =       397
    NVIR B     =       413

    Estimated memory usage: 3086.6 MB

    Elst10,r            =    -0.006367690062 H
    Exch10 (S^2)        =     0.003612708229 H
    Exch10              =     0.003615484772 H
    Ind20,r (A<-B)      =    -0.001389410065 H
    Ind20,r (B<-A)      =    -0.000420722383 H
    Ind20,r             =    -0.001810132447 H
    Exch-Ind20,r (A<-B) =     0.000880928357 H
    Exch-Ind20,r (B<-A) =     0.000217754229 H
    Exch-Ind20,r        =     0.001098682586 H
    Disp20              =    -0.003725126568 H
    Exch-Disp20         =     0.000378308131 H
    Elst12,r            =     0.000382155736 H
    Exch11              =     0.000041275228 H
    Exch12              =     0.000577725066 H
    Ind22               =    -0.000243346890 H
    Disp21              =     0.000311859094 H
    Disp22 (SDQ)        =    -0.000043697204 H

    (i =   1 of   4)       1311 seconds
    (i =   2 of   4)       2673 seconds
    (i =   3 of   4)       3940 seconds
    (i =   4 of   4)       5188 seconds

    Disp220 (T)         =    -0.000317262237 H

    (i =   1 of  13)        241 seconds
    (i =   2 of  13)        480 seconds
    (i =   3 of  13)        747 seconds
    (i =   4 of  13)        996 seconds
    (i =   5 of  13)       1295 seconds
    (i =   6 of  13)       1574 seconds
    (i =   7 of  13)       1874 seconds
    (i =   8 of  13)       2166 seconds
    (i =   9 of  13)       2471 seconds
    (i =  10 of  13)       2777 seconds
    (i =  11 of  13)       3093 seconds
    (i =  12 of  13)       3390 seconds
    (i =  13 of  13)       3629 seconds

    Disp202 (T)         =    -0.000350646656 H

    Disp22 (T)          =    -0.000667908894 H

    SAPT Results  
  -----------------------------------------------------------------------
    Electrostatics          -5.98553433 mH      -3.75597965 kcal mol^-1
      Elst10,r              -6.36769006 mH      -3.99578601 kcal mol^-1
      Elst12,r               0.38215574 mH       0.23980635 kcal mol^-1

    Exchange                 4.23448507 mH       2.65717961 kcal mol^-1
      Exch10                 3.61548477 mH       2.26875104 kcal mol^-1
      Exch10(S^2)            3.61270823 mH       2.26700873 kcal mol^-1
      Exch11(S^2)            0.04127523 mH       0.02590060 kcal mol^-1
      Exch12(S^2)            0.57772507 mH       0.36252797 kcal mol^-1

    Induction               -1.09348365 mH      -0.68617138 kcal mol^-1
      Ind20,r               -1.81013245 mH      -1.13587531 kcal mol^-1
      Ind22                 -0.24334689 mH      -0.15270249 kcal mol^-1
      Exch-Ind20,r           1.09868259 mH       0.68943376 kcal mol^-1
      Exch-Ind22             0.14770245 mH       0.09268469 kcal mol^-1
      delta HF,r (2)        -0.28638935 mH      -0.17971204 kcal mol^-1

    Dispersion              -3.74656544 mH      -2.35100541 kcal mol^-1
      Disp20                -3.72512657 mH      -2.33755231 kcal mol^-1
      Disp21                 0.31185909 mH       0.19569454 kcal mol^-1
      Disp22 (SDQ)          -0.04369720 mH      -0.02742041 kcal mol^-1
      Disp22 (T)            -0.66790889 mH      -0.41911918 kcal mol^-1
      Exch-Disp20            0.37830813 mH       0.23739195 kcal mol^-1

    Total HF                -3.75004450 mH      -2.35318855 kcal mol^-1
    Total SAPT0             -7.09686294 mH      -4.45334891 kcal mol^-1
    Total SAPT2             -6.19135135 mH      -3.88513179 kcal mol^-1
    Total SAPT2+            -6.59109835 mH      -4.13597683 kcal mol^-1

*** tstop() called on node37.bme.utexas.edu at Thu Jun  5 16:42:48 2014
Module time:
	user time   =   49000.60 seconds =     816.68 minutes
	system time =     207.95 seconds =       3.47 minutes
	total time  =      15321 seconds =     255.35 minutes
Total time:
	user time   =   49352.49 seconds =     822.54 minutes
	system time =     211.76 seconds =       3.53 minutes
	total time  =      15441 seconds =     257.35 minutes

*** PSI4 exiting successfully. Buy a developer a beer!
