    -----------------------------------------------------------------------
          PSI4: An Open-Source Ab Initio Electronic Structure Package
                              PSI 4.0.0-beta4 Driver

    J. M. Turney, A. C. Simmonett, R. M. Parrish, E. G. Hohenstein,
    F. A. Evangelista, J. T. Fermann, B. J. Mintz, L. A. Burns, J. J. Wilke,
    M. L. Abrams, N. J. Russ, M. L. Leininger, C. L. Janssen, E. T. Seidl,
    W. D. Allen, H. F. Schaefer, R. A. King, E. F. Valeev, C. D. Sherrill,
    and T. D. Crawford, WIREs Comput. Mol. Sci., (2011) (doi: 10.1002/wcms.93)

                         Additional Contributions by
    A. E. DePrince, M. Saitow, U. Bozkaya, A. Yu. Sokolov
    -----------------------------------------------------------------------

    Process ID:  28100
    PSI4DATADIR: /home/xzhu216/psi4/psi4-install/share/psi

    Using LocalCommunicator (Number of processes = 1)

    Memory level set to 256.000 MB

  ==> Input File <==

--------------------------------------------------------------------------
#psi4
#
memory 7 gb

molecule DMSO_Water {
0 1
    C    -3.228946000    -0.562414000     0.903882000
    O    -1.614569000     1.539642000     0.825443000
    S    -2.022171000     0.445434000     1.779809000
    C    -0.684770000    -0.757876000     1.728833000
    H    -3.489854000    -1.426692000     1.511493000
    H    -4.097342000     0.069482000     0.736340000
    H    -2.798724000    -0.860590000    -0.050247000
    H    -0.966694000    -1.647619000     2.288311000
    H    -0.479518000    -0.990635000     0.685944000
    H     0.182771000    -0.287975000     2.183834000
--
0 1
    O    -3.662556700     2.123384800     0.021477600
    H    -2.731356700     2.051099800     0.283788600
    H    -3.804399700     3.065170800    -0.082495400
units angstrom
no_reorient  #important for SAPT in psi4, default
symmetry c1  #important for SAPT in psi4, default
}

set {
basis aug-cc-pVTZ
scf_type DF
guess GWH
freeze_core True
}
energy('sapt2+')
--------------------------------------------------------------------------

  Memory set to   7.000 GiB by Python script.

  //>>>>>>>>>>>>>>>>>>>>>>>>>>>>>>>>>>>//
  //              Dimer HF             //
  //<<<<<<<<<<<<<<<<<<<<<<<<<<<<<<<<<<<//


  No DF_BASIS_SCF auxiliary basis selected, defaulting to aug-cc-pvtz-jkfit


*** tstart() called on node36.bme.utexas.edu
*** at Thu Jun  5 12:29:02 2014


         ---------------------------------------------------------
                                   SCF
            by Justin Turney, Rob Parrish, and Andy Simmonett
                              RHF Reference
                        4 Threads,   7000 MiB Core
         ---------------------------------------------------------

  ==> Geometry <==

    Molecular point group: c1
    Full point group: C1

    Geometry (in Angstrom), charge = 0, multiplicity = 1:

       Center              X                  Y                   Z       
    ------------   -----------------  -----------------  -----------------
           C         -0.996680513433    -1.155593787291    -0.238110757607
           O          0.617696486567     0.946462212709    -0.316549757607
           S          0.210094486567    -0.147745787291     0.637816242393
           C          1.547495486567    -1.351055787291     0.586840242393
           H         -1.257588513433    -2.019871787291     0.369500242393
           H         -1.865076513433    -0.523697787291    -0.405652757607
           H         -0.566458513433    -1.453769787291    -1.192239757607
           H          1.265571486567    -2.240798787291     1.146318242393
           H          1.752747486567    -1.583814787291    -0.456048757607
           H          2.415036486567    -0.881154787291     1.041841242393
           O         -1.430291213433     1.530205012709    -1.120515157607
           H         -0.499091213433     1.457920012709    -0.858204157607
           H         -1.572134213433     2.471991012709    -1.224488157607

  Running in c1 symmetry.

  Nuclear repulsion =  268.644621994539648

  Charge       = 0
  Multiplicity = 1
  Electrons    = 52
  Nalpha       = 26
  Nbeta        = 26

  ==> Algorithm <==

  SCF Algorithm Type is DF.
  DIIS enabled.
  MOM disabled.
  Fractional occupation disabled.
  Guess Type is GWH.
  Energy threshold   = 1.00e-08
  Density threshold  = 1.00e-08
  Integral threshold = 0.00e+00

  ==> Primary Basis <==

  Basis Set: AUG-CC-PVTZ
    Number of shells: 144
    Number of basis function: 418
    Number of Cartesian functions: 479
    Spherical Harmonics?: true
    Max angular momentum: 3

  ==> Pre-Iterations <==

   -------------------------------------------------------
    Irrep   Nso     Nmo     Nalpha   Nbeta   Ndocc  Nsocc
   -------------------------------------------------------
     A        418     418       0       0       0       0
   -------------------------------------------------------
    Total     418     418      26      26      26       0
   -------------------------------------------------------

 OEINTS: Wrapper to libmints.
   by Justin Turney

   Calculation information:
      Number of atoms:                  13
      Number of AO shells:             144
      Number of SO shells:             144
      Number of primitives:            272
      Number of atomic orbitals:       479
      Number of basis functions:       418

      Number of irreps:                  1
      Number of functions per irrep: [ 418 ]

      Overlap, kinetic, potential, dipole, and quadrupole integrals
        stored in file 35.

  ==> Integral Setup <==

  ==> DFJK: Density-Fitted J/K Matrices <==

    J tasked:                  Yes
    K tasked:                  Yes
    wK tasked:                  No
    OpenMP threads:              4
    Integrals threads:           4
    Memory (MB):              5006
    Algorithm:                Core
    Integral Cache:           SAVE
    Schwarz Cutoff:          0E+00
    Fitting Condition:       1E-12

   => Auxiliary Basis Set <=

  Basis Set: aug-cc-pvtz-jkfit
    Number of shells: 274
    Number of basis function: 930
    Number of Cartesian functions: 1144
    Spherical Harmonics?: true
    Max angular momentum: 4

  Minimum eigenvalue in the overlap matrix is 1.6327553832E-05.
  Using Symmetric Orthogonalization.
  SCF Guess: Generalized Wolfsberg-Helmholtz.

  Guess energy:  -459.26422975796868

  ==> Iterations <==

                        Total Energy        Delta E     RMS |[F,P]|

   @RHF iter   1:  -586.63261842403631   -5.86633e+02   2.58099e-02 
   @RHF iter   2:  -569.45344523646236    1.71792e+01   1.58886e-02 DIIS
   @RHF iter   3:  -584.68572276836869   -1.52323e+01   1.68597e-02 DIIS
   @RHF iter   4:  -624.30115811945097   -3.96154e+01   6.31845e-03 DIIS
   @RHF iter   5:  -626.89963157787702   -2.59847e+00   2.68987e-03 DIIS
   @RHF iter   6:  -627.57311498339095   -6.73483e-01   1.15901e-03 DIIS
   @RHF iter   7:  -627.68603403308066   -1.12919e-01   3.35459e-04 DIIS
   @RHF iter   8:  -627.69695485989143   -1.09208e-02   1.00202e-04 DIIS
   @RHF iter   9:  -627.69841569345476   -1.46083e-03   3.66811e-05 DIIS
   @RHF iter  10:  -627.69867209467225   -2.56401e-04   1.21390e-05 DIIS
   @RHF iter  11:  -627.69870652885356   -3.44342e-05   5.19431e-06 DIIS
   @RHF iter  12:  -627.69871249208074   -5.96323e-06   1.60753e-06 DIIS
   @RHF iter  13:  -627.69871329348325   -8.01403e-07   5.37254e-07 DIIS
   @RHF iter  14:  -627.69871338151029   -8.80270e-08   1.82028e-07 DIIS
   @RHF iter  15:  -627.69871339208362   -1.05733e-08   4.72980e-08 DIIS
   @RHF iter  16:  -627.69871339264228   -5.58657e-10   1.40557e-08 DIIS
   @RHF iter  17:  -627.69871339268877   -4.64979e-11   5.13020e-09 DIIS

  ==> Post-Iterations <==

	Orbital Energies (a.u.)
	-----------------------

	Doubly Occupied:                                                      

	   1A    -92.082381     2A    -20.521288     3A    -20.486957  
	   4A    -11.274237     5A    -11.258799     6A     -9.070203  
	   7A     -6.751767     8A     -6.751688     9A     -6.750252  
	  10A     -1.374770    11A     -1.284368    12A     -1.080835  
	  13A     -0.982136    14A     -0.835508    15A     -0.704383  
	  16A     -0.653665    17A     -0.643950    18A     -0.615333  
	  19A     -0.591911    20A     -0.573531    21A     -0.566260  
	  22A     -0.539930    23A     -0.505489    24A     -0.447828  
	  25A     -0.428378    26A     -0.389559  

	Virtual:                                                              

	  27A      0.023248    28A      0.035661    29A      0.041385  
	  30A      0.046036    31A      0.055038    32A      0.063205  
	  33A      0.066412    34A      0.074352    35A      0.089031  
	  36A      0.099562    37A      0.116370    38A      0.116570  
	  39A      0.126326    40A      0.128035    41A      0.137354  
	  42A      0.141128    43A      0.151652    44A      0.158721  
	  45A      0.176325    46A      0.179881    47A      0.191163  
	  48A      0.193039    49A      0.200325    50A      0.203999  
	  51A      0.209656    52A      0.220577    53A      0.223740  
	  54A      0.230428    55A      0.243444    56A      0.248583  
	  57A      0.267389    58A      0.281241    59A      0.290955  
	  60A      0.299752    61A      0.308562    62A      0.315607  
	  63A      0.324201    64A      0.335564    65A      0.336072  
	  66A      0.339658    67A      0.351732    68A      0.357146  
	  69A      0.362315    70A      0.364967    71A      0.375843  
	  72A      0.380049    73A      0.386300    74A      0.398008  
	  75A      0.401532    76A      0.406895    77A      0.415550  
	  78A      0.418106    79A      0.424178    80A      0.427063  
	  81A      0.430292    82A      0.433865    83A      0.441890  
	  84A      0.458745    85A      0.466191    86A      0.470229  
	  87A      0.480920    88A      0.488935    89A      0.495462  
	  90A      0.501412    91A      0.505519    92A      0.519795  
	  93A      0.527026    94A      0.536956    95A      0.545496  
	  96A      0.556007    97A      0.559757    98A      0.569634  
	  99A      0.593516   100A      0.603928   101A      0.609937  
	 102A      0.624364   103A      0.634342   104A      0.644917  
	 105A      0.676602   106A      0.679412   107A      0.703977  
	 108A      0.717002   109A      0.728560   110A      0.750463  
	 111A      0.759291   112A      0.767751   113A      0.782764  
	 114A      0.783735   115A      0.806061   116A      0.814837  
	 117A      0.816969   118A      0.822398   119A      0.826836  
	 120A      0.839239   121A      0.842482   122A      0.856389  
	 123A      0.865711   124A      0.874141   125A      0.882650  
	 126A      0.889109   127A      0.896335   128A      0.904884  
	 129A      0.906982   130A      0.915807   131A      0.929008  
	 132A      0.931183   133A      0.946556   134A      0.955647  
	 135A      0.960764   136A      0.971150   137A      0.981523  
	 138A      0.987786   139A      1.000000   140A      1.007929  
	 141A      1.009792   142A      1.030375   143A      1.033094  
	 144A      1.054289   145A      1.068421   146A      1.087427  
	 147A      1.091632   148A      1.092933   149A      1.096464  
	 150A      1.109116   151A      1.116547   152A      1.119770  
	 153A      1.137301   154A      1.146575   155A      1.160536  
	 156A      1.166141   157A      1.178314   158A      1.189276  
	 159A      1.191895   160A      1.201816   161A      1.203064  
	 162A      1.219095   163A      1.227910   164A      1.236898  
	 165A      1.260073   166A      1.265665   167A      1.279760  
	 168A      1.300770   169A      1.311299   170A      1.317202  
	 171A      1.330535   172A      1.341369   173A      1.356489  
	 174A      1.368746   175A      1.381196   176A      1.384221  
	 177A      1.406355   178A      1.415617   179A      1.428482  
	 180A      1.441405   181A      1.459093   182A      1.469386  
	 183A      1.487497   184A      1.489956   185A      1.497648  
	 186A      1.525026   187A      1.527474   188A      1.556889  
	 189A      1.587907   190A      1.604591   191A      1.607471  
	 192A      1.613915   193A      1.625797   194A      1.629191  
	 195A      1.640976   196A      1.651199   197A      1.660518  
	 198A      1.678423   199A      1.690963   200A      1.697990  
	 201A      1.711853   202A      1.716655   203A      1.723996  
	 204A      1.734601   205A      1.762263   206A      1.768204  
	 207A      1.781359   208A      1.799231   209A      1.804412  
	 210A      1.816392   211A      1.822764   212A      1.841520  
	 213A      1.853206   214A      1.865521   215A      1.894305  
	 216A      1.895615   217A      1.924408   218A      1.938075  
	 219A      1.949632   220A      1.974532   221A      2.003187  
	 222A      2.017852   223A      2.036949   224A      2.069696  
	 225A      2.080710   226A      2.092038   227A      2.120987  
	 228A      2.139997   229A      2.164151   230A      2.176218  
	 231A      2.206055   232A      2.218866   233A      2.223188  
	 234A      2.240447   235A      2.279256   236A      2.288733  
	 237A      2.313515   238A      2.333096   239A      2.349450  
	 240A      2.379332   241A      2.390384   242A      2.401809  
	 243A      2.436455   244A      2.438813   245A      2.468447  
	 246A      2.475986   247A      2.514059   248A      2.549953  
	 249A      2.561388   250A      2.588890   251A      2.611310  
	 252A      2.614162   253A      2.620802   254A      2.642962  
	 255A      2.665578   256A      2.684771   257A      2.708775  
	 258A      2.720422   259A      2.730303   260A      2.765462  
	 261A      2.779464   262A      2.810504   263A      2.826223  
	 264A      2.856853   265A      2.868443   266A      2.899315  
	 267A      2.911888   268A      2.957521   269A      2.996938  
	 270A      3.009448   271A      3.029946   272A      3.059717  
	 273A      3.086719   274A      3.140732   275A      3.203159  
	 276A      3.210124   277A      3.256374   278A      3.370160  
	 279A      3.394614   280A      3.425889   281A      3.467631  
	 282A      3.477133   283A      3.494974   284A      3.527698  
	 285A      3.554330   286A      3.573457   287A      3.585794  
	 288A      3.599973   289A      3.632869   290A      3.644971  
	 291A      3.659623   292A      3.681112   293A      3.704496  
	 294A      3.719935   295A      3.729585   296A      3.766900  
	 297A      3.793596   298A      3.799784   299A      3.826819  
	 300A      3.842168   301A      3.882802   302A      3.904778  
	 303A      3.945926   304A      3.965201   305A      3.984745  
	 306A      4.031967   307A      4.036192   308A      4.059143  
	 309A      4.094376   310A      4.109959   311A      4.126130  
	 312A      4.153636   313A      4.171685   314A      4.186225  
	 315A      4.202573   316A      4.216429   317A      4.243451  
	 318A      4.267232   319A      4.273028   320A      4.308681  
	 321A      4.360090   322A      4.372762   323A      4.406159  
	 324A      4.419249   325A      4.467448   326A      4.477194  
	 327A      4.485136   328A      4.499104   329A      4.520211  
	 330A      4.535915   331A      4.556148   332A      4.582888  
	 333A      4.596774   334A      4.612888   335A      4.615647  
	 336A      4.674048   337A      4.711422   338A      4.735717  
	 339A      4.758953   340A      4.769342   341A      4.787031  
	 342A      4.807955   343A      4.838478   344A      4.839183  
	 345A      4.887517   346A      4.928205   347A      4.953324  
	 348A      4.989095   349A      4.999817   350A      5.017607  
	 351A      5.032384   352A      5.092394   353A      5.100691  
	 354A      5.151935   355A      5.193163   356A      5.197494  
	 357A      5.207332   358A      5.225470   359A      5.250789  
	 360A      5.278867   361A      5.282849   362A      5.328086  
	 363A      5.418560   364A      5.480866   365A      5.526342  
	 366A      5.533154   367A      5.534738   368A      5.591017  
	 369A      5.617339   370A      5.646394   371A      5.677247  
	 372A      5.714983   373A      5.733187   374A      5.800259  
	 375A      5.812311   376A      5.913016   377A      5.958118  
	 378A      6.013050   379A      6.029756   380A      6.071466  
	 381A      6.087985   382A      6.140870   383A      6.176762  
	 384A      6.486138   385A      6.675217   386A      6.691914  
	 387A      6.711007   388A      6.755275   389A      6.828069  
	 390A      6.893082   391A      6.915250   392A      6.927350  
	 393A      6.946212   394A      6.990458   395A      7.040460  
	 396A      7.094461   397A      7.216791   398A      7.300027  
	 399A      7.329933   400A      7.402510   401A      7.455209  
	 402A      7.479026   403A      7.532034   404A      7.606440  
	 405A      7.613869   406A      7.667054   407A      7.791193  
	 408A      7.837424   409A      7.961737   410A      8.123346  
	 411A      8.274063   412A      8.553850   413A      9.312121  
	 414A      9.579121   415A     13.871698   416A     17.308556  
	 417A     17.371987   418A     17.548849  

	Final Occupation by Irrep:
	          A 
	DOCC [    26 ]

  Energy converged.

  @RHF Final Energy:  -627.69871339268877

   => Energetics <=

    Nuclear Repulsion Energy =            268.6446219945396479
    One-Electron Energy =               -1398.3558609297760995
    Two-Electron Energy =                 502.0125255425479054
    DFT Exchange-Correlation Energy =       0.0000000000000000
    Empirical Dispersion Energy =           0.0000000000000000
    Total Energy =                       -627.6987133926885463



Properties will be evaluated at   0.000000,   0.000000,   0.000000 Bohr
  ==> Properties <==


Properties computed using the SCF density density matrix
  Nuclear Dipole Moment: (a.u.)
     X:    -0.3049      Y:    -4.4667      Z:    -1.4703

  Electronic Dipole Moment: (a.u.)
     X:     0.7968      Y:     2.9770      Z:     2.2576

  Dipole Moment: (a.u.)
     X:     0.4919      Y:    -1.4897      Z:     0.7873     Total:     1.7553

  Dipole Moment: (Debye)
     X:     1.2502      Y:    -3.7865      Z:     2.0010     Total:     4.4615


  Saving occupied orbitals to File 180.

  Saving SAPT 2-DIMER file.

*** tstop() called on node36.bme.utexas.edu at Thu Jun  5 12:29:48 2014
Module time:
	user time   =     166.55 seconds =       2.78 minutes
	system time =       1.80 seconds =       0.03 minutes
	total time  =         46 seconds =       0.77 minutes
Total time:
	user time   =     166.55 seconds =       2.78 minutes
	system time =       1.80 seconds =       0.03 minutes
	total time  =         46 seconds =       0.77 minutes

  //>>>>>>>>>>>>>>>>>>>>>>>>>>>>>>>>>>>//
  //            Monomer A HF           //
  //<<<<<<<<<<<<<<<<<<<<<<<<<<<<<<<<<<<//


  No DF_BASIS_SCF auxiliary basis selected, defaulting to aug-cc-pvtz-jkfit


*** tstart() called on node36.bme.utexas.edu
*** at Thu Jun  5 12:29:48 2014


         ---------------------------------------------------------
                                   SCF
            by Justin Turney, Rob Parrish, and Andy Simmonett
                              RHF Reference
                        4 Threads,   7000 MiB Core
         ---------------------------------------------------------

  ==> Geometry <==

    Molecular point group: c1
    Full point group: C1

    Geometry (in Angstrom), charge = 0, multiplicity = 1:

       Center              X                  Y                   Z       
    ------------   -----------------  -----------------  -----------------
           C         -0.996680513433    -1.155593787291    -0.238110757607
           O          0.617696486567     0.946462212709    -0.316549757607
           S          0.210094486567    -0.147745787291     0.637816242393
           C          1.547495486567    -1.351055787291     0.586840242393
           H         -1.257588513433    -2.019871787291     0.369500242393
           H         -1.865076513433    -0.523697787291    -0.405652757607
           H         -0.566458513433    -1.453769787291    -1.192239757607
           H          1.265571486567    -2.240798787291     1.146318242393
           H          1.752747486567    -1.583814787291    -0.456048757607
           H          2.415036486567    -0.881154787291     1.041841242393
           O(Gh)     -1.430291213433     1.530205012709    -1.120515157607
           H(Gh)     -0.499091213433     1.457920012709    -0.858204157607
           H(Gh)     -1.572134213433     2.471991012709    -1.224488157607

  Running in c1 symmetry.

  Nuclear repulsion =  184.329146562963615

  Charge       = 0
  Multiplicity = 1
  Electrons    = 42
  Nalpha       = 21
  Nbeta        = 21

  ==> Algorithm <==

  SCF Algorithm Type is DF.
  DIIS enabled.
  MOM disabled.
  Fractional occupation disabled.
  Guess Type is GWH.
  Energy threshold   = 1.00e-08
  Density threshold  = 1.00e-08
  Integral threshold = 0.00e+00

  ==> Primary Basis <==

  Basis Set: AUG-CC-PVTZ
    Number of shells: 144
    Number of basis function: 418
    Number of Cartesian functions: 479
    Spherical Harmonics?: true
    Max angular momentum: 3

  ==> Pre-Iterations <==

   -------------------------------------------------------
    Irrep   Nso     Nmo     Nalpha   Nbeta   Ndocc  Nsocc
   -------------------------------------------------------
     A        418     418       0       0       0       0
   -------------------------------------------------------
    Total     418     418      21      21      21       0
   -------------------------------------------------------

 OEINTS: Wrapper to libmints.
   by Justin Turney

   Calculation information:
      Number of atoms:                  13
      Number of AO shells:             144
      Number of SO shells:             144
      Number of primitives:            272
      Number of atomic orbitals:       479
      Number of basis functions:       418

      Number of irreps:                  1
      Number of functions per irrep: [ 418 ]

      Overlap, kinetic, potential, dipole, and quadrupole integrals
        stored in file 35.

  ==> Integral Setup <==

  ==> DFJK: Density-Fitted J/K Matrices <==

    J tasked:                  Yes
    K tasked:                  Yes
    wK tasked:                  No
    OpenMP threads:              4
    Integrals threads:           4
    Memory (MB):              5006
    Algorithm:                Core
    Integral Cache:           LOAD
    Schwarz Cutoff:          0E+00
    Fitting Condition:       1E-12

   => Auxiliary Basis Set <=

  Basis Set: aug-cc-pvtz-jkfit
    Number of shells: 274
    Number of basis function: 930
    Number of Cartesian functions: 1144
    Spherical Harmonics?: true
    Max angular momentum: 4

  Minimum eigenvalue in the overlap matrix is 1.6327553832E-05.
  Using Symmetric Orthogonalization.
  SCF Guess: Generalized Wolfsberg-Helmholtz.

  Guess energy:  -359.01341805578852

  ==> Iterations <==

                        Total Energy        Delta E     RMS |[F,P]|

   @RHF iter   1:  -452.55524126057821   -4.52555e+02   1.01296e-01 
   @RHF iter   2:  -511.11944506366058   -5.85642e+01   1.17391e-02 DIIS
   @RHF iter   3:  -470.64700004317149    4.04724e+01   2.95221e-02 DIIS
   @RHF iter   4:  -501.57229938129285   -3.09253e+01   2.05050e-02 DIIS
   @RHF iter   5:  -517.43128243083743   -1.58590e+01   1.71679e-02 DIIS
   @RHF iter   6:  -525.42351491153204   -7.99223e+00   1.51856e-02 DIIS
   @RHF iter   7:  -533.09333368766215   -7.66982e+00   1.27001e-02 DIIS
   @RHF iter   8:  -543.40650193901206   -1.03132e+01   9.04489e-03 DIIS
   @RHF iter   9:  -547.13848445368160   -3.73198e+00   6.41381e-03 DIIS
   @RHF iter  10:  -550.94951049820349   -3.81103e+00   2.49761e-03 DIIS
   @RHF iter  11:  -551.56551411158603   -6.16004e-01   8.45594e-04 DIIS
   @RHF iter  12:  -551.63902186851851   -7.35078e-02   3.45091e-04 DIIS
   @RHF iter  13:  -551.65211099682006   -1.30891e-02   1.05286e-04 DIIS
   @RHF iter  14:  -551.65316569107836   -1.05469e-03   2.88113e-05 DIIS
   @RHF iter  15:  -551.65334606035594   -1.80369e-04   9.88358e-06 DIIS
   @RHF iter  16:  -551.65337206025117   -2.59999e-05   3.12343e-06 DIIS
   @RHF iter  17:  -551.65337457894123   -2.51869e-06   1.05108e-06 DIIS
   @RHF iter  18:  -551.65337489091701   -3.11976e-07   3.68682e-07 DIIS
   @RHF iter  19:  -551.65337493946561   -4.85486e-08   1.19043e-07 DIIS
   @RHF iter  20:  -551.65337494452058   -5.05497e-09   3.46486e-08 DIIS
   @RHF iter  21:  -551.65337494496748   -4.46903e-10   9.16819e-09 DIIS

  ==> Post-Iterations <==

	Orbital Energies (a.u.)
	-----------------------

	Doubly Occupied:                                                      

	   1A    -92.069583     2A    -20.501437     3A    -11.263265  
	   4A    -11.262676     5A     -9.056449     6A     -6.738171  
	   7A     -6.737957     8A     -6.736567     9A     -1.328035  
	  10A     -1.067594    11A     -0.978620    12A     -0.817635  
	  13A     -0.645732    14A     -0.630445    15A     -0.623018  
	  16A     -0.588398    17A     -0.559675    18A     -0.545713  
	  19A     -0.511192    20A     -0.417478    21A     -0.369216  

	Virtual:                                                              

	  22A      0.023751    23A      0.034397    24A      0.040374  
	  25A      0.044175    26A      0.055062    27A      0.061633  
	  28A      0.064628    29A      0.074674    30A      0.089679  
	  31A      0.101659    32A      0.115607    33A      0.118074  
	  34A      0.124768    35A      0.127360    36A      0.131814  
	  37A      0.137071    38A      0.144927    39A      0.151188  
	  40A      0.168130    41A      0.176503    42A      0.185367  
	  43A      0.189877    44A      0.201472    45A      0.204902  
	  46A      0.210743    47A      0.216957    48A      0.221156  
	  49A      0.231354    50A      0.245875    51A      0.252381  
	  52A      0.267504    53A      0.271607    54A      0.286403  
	  55A      0.292891    56A      0.305063    57A      0.317370  
	  58A      0.332186    59A      0.333130    60A      0.339637  
	  61A      0.340677    62A      0.344981    63A      0.354500  
	  64A      0.356842    65A      0.366682    66A      0.378871  
	  67A      0.381742    68A      0.385749    69A      0.391450  
	  70A      0.397257    71A      0.403157    72A      0.411953  
	  73A      0.413583    74A      0.418419    75A      0.420711  
	  76A      0.427963    77A      0.434532    78A      0.435245  
	  79A      0.448066    80A      0.456459    81A      0.464183  
	  82A      0.476715    83A      0.481947    84A      0.484499  
	  85A      0.493985    86A      0.508719    87A      0.512639  
	  88A      0.527747    89A      0.537558    90A      0.545868  
	  91A      0.557061    92A      0.563729    93A      0.568615  
	  94A      0.584808    95A      0.596384    96A      0.605780  
	  97A      0.614065    98A      0.642416    99A      0.664053  
	 100A      0.670098   101A      0.682165   102A      0.701457  
	 103A      0.715814   104A      0.728385   105A      0.751199  
	 106A      0.762866   107A      0.772017   108A      0.780807  
	 109A      0.783524   110A      0.800951   111A      0.814146  
	 112A      0.823311   113A      0.830215   114A      0.834532  
	 115A      0.839064   116A      0.851146   117A      0.859662  
	 118A      0.865380   119A      0.876568   120A      0.886888  
	 121A      0.891428   122A      0.896852   123A      0.899585  
	 124A      0.908618   125A      0.918827   126A      0.928253  
	 127A      0.939195   128A      0.943195   129A      0.955140  
	 130A      0.964879   131A      0.974536   132A      0.980509  
	 133A      0.990130   134A      0.991890   135A      0.999981  
	 136A      1.014782   137A      1.023266   138A      1.043778  
	 139A      1.055834   140A      1.072783   141A      1.078678  
	 142A      1.084176   143A      1.101528   144A      1.106003  
	 145A      1.107307   146A      1.119705   147A      1.125087  
	 148A      1.138111   149A      1.152061   150A      1.155892  
	 151A      1.165369   152A      1.173246   153A      1.188578  
	 154A      1.190263   155A      1.205430   156A      1.213260  
	 157A      1.220355   158A      1.240760   159A      1.247506  
	 160A      1.259789   161A      1.269867   162A      1.291132  
	 163A      1.307380   164A      1.315426   165A      1.327368  
	 166A      1.342945   167A      1.348245   168A      1.358081  
	 169A      1.373577   170A      1.384903   171A      1.398422  
	 172A      1.415156   173A      1.426062   174A      1.436345  
	 175A      1.447326   176A      1.465166   177A      1.477151  
	 178A      1.490873   179A      1.505055   180A      1.516775  
	 181A      1.526772   182A      1.537364   183A      1.566836  
	 184A      1.576674   185A      1.615632   186A      1.619892  
	 187A      1.624251   188A      1.630295   189A      1.639082  
	 190A      1.654743   191A      1.659883   192A      1.668989  
	 193A      1.690344   194A      1.699499   195A      1.702278  
	 196A      1.713480   197A      1.730577   198A      1.738725  
	 199A      1.767273   200A      1.772098   201A      1.777993  
	 202A      1.792434   203A      1.802423   204A      1.814870  
	 205A      1.827568   206A      1.835866   207A      1.842142  
	 208A      1.857147   209A      1.869016   210A      1.883783  
	 211A      1.906774   212A      1.918220   213A      1.937404  
	 214A      1.946837   215A      1.983218   216A      1.987378  
	 217A      2.004537   218A      2.038887   219A      2.055484  
	 220A      2.085686   221A      2.094477   222A      2.100936  
	 223A      2.132108   224A      2.147079   225A      2.169733  
	 226A      2.189304   227A      2.219897   228A      2.223723  
	 229A      2.239218   230A      2.260437   231A      2.304170  
	 232A      2.315483   233A      2.334608   234A      2.351064  
	 235A      2.361603   236A      2.397465   237A      2.423148  
	 238A      2.450761   239A      2.478445   240A      2.513935  
	 241A      2.526892   242A      2.558752   243A      2.597642  
	 244A      2.613308   245A      2.616498   246A      2.641297  
	 247A      2.648978   248A      2.673771   249A      2.692659  
	 250A      2.695509   251A      2.724573   252A      2.729294  
	 253A      2.731742   254A      2.752544   255A      2.791727  
	 256A      2.808528   257A      2.845046   258A      2.878430  
	 259A      2.893006   260A      2.920543   261A      2.924619  
	 262A      2.962609   263A      2.978503   264A      3.030887  
	 265A      3.070918   266A      3.119666   267A      3.159910  
	 268A      3.189165   269A      3.227424   270A      3.295868  
	 271A      3.333210   272A      3.347749   273A      3.397027  
	 274A      3.417198   275A      3.429185   276A      3.464806  
	 277A      3.509051   278A      3.516778   279A      3.551149  
	 280A      3.555263   281A      3.592741   282A      3.593918  
	 283A      3.599850   284A      3.607431   285A      3.642812  
	 286A      3.652388   287A      3.660811   288A      3.683478  
	 289A      3.694018   290A      3.721243   291A      3.732586  
	 292A      3.752056   293A      3.782977   294A      3.794936  
	 295A      3.829932   296A      3.838735   297A      3.861526  
	 298A      3.888900   299A      3.899047   300A      3.920001  
	 301A      3.957374   302A      3.978285   303A      3.998921  
	 304A      4.029784   305A      4.053265   306A      4.069192  
	 307A      4.100894   308A      4.116457   309A      4.128306  
	 310A      4.163281   311A      4.188604   312A      4.195712  
	 313A      4.219247   314A      4.235888   315A      4.273302  
	 316A      4.277642   317A      4.324233   318A      4.386999  
	 319A      4.427730   320A      4.485575   321A      4.499278  
	 322A      4.513214   323A      4.539214   324A      4.555058  
	 325A      4.568045   326A      4.592375   327A      4.595760  
	 328A      4.634769   329A      4.661316   330A      4.745718  
	 331A      4.754485   332A      4.788401   333A      4.790993  
	 334A      4.809775   335A      4.827521   336A      4.836396  
	 337A      4.897779   338A      4.929788   339A      4.934792  
	 340A      4.981053   341A      4.990258   342A      5.000802  
	 343A      5.037122   344A      5.049199   345A      5.073031  
	 346A      5.096733   347A      5.144273   348A      5.158953  
	 349A      5.193188   350A      5.206623   351A      5.212057  
	 352A      5.245211   353A      5.279491   354A      5.291945  
	 355A      5.333441   356A      5.353893   357A      5.463814  
	 358A      5.524795   359A      5.536713   360A      5.542922  
	 361A      5.552050   362A      5.594433   363A      5.649614  
	 364A      5.683331   365A      5.723134   366A      5.743313  
	 367A      5.780979   368A      5.875679   369A      5.916162  
	 370A      5.962219   371A      6.002284   372A      6.032097  
	 373A      6.054028   374A      6.072456   375A      6.082701  
	 376A      6.129183   377A      6.278860   378A      6.432342  
	 379A      6.672111   380A      6.696117   381A      6.709960  
	 382A      6.788702   383A      6.813479   384A      6.890568  
	 385A      6.945481   386A      6.967512   387A      7.022370  
	 388A      7.067704   389A      7.162362   390A      7.227648  
	 391A      7.313773   392A      7.435766   393A      7.485187  
	 394A      7.647003   395A      7.708385   396A      7.802559  
	 397A      7.835699   398A      8.000894   399A      8.150127  
	 400A      8.201558   401A      8.439386   402A      8.548238  
	 403A      9.051530   404A      9.321651   405A      9.592818  
	 406A      9.898504   407A     10.034204   408A     10.188751  
	 409A     10.459022   410A     11.507356   411A     11.924219  
	 412A     12.620941   413A     13.843334   414A     13.977767  
	 415A     14.255467   416A     17.320513   417A     17.499849  
	 418A     67.708991  

	Final Occupation by Irrep:
	          A 
	DOCC [    21 ]

  Energy converged.

  @RHF Final Energy:  -551.65337494496748

   => Energetics <=

    Nuclear Repulsion Energy =            184.3291465629636150
    One-Electron Energy =               -1125.0673315966739665
    Two-Electron Energy =                 389.0848100887421879
    DFT Exchange-Correlation Energy =       0.0000000000000000
    Empirical Dispersion Energy =           0.0000000000000000
    Total Energy =                       -551.6533749449681636



Properties will be evaluated at   0.000000,   0.000000,   0.000000 Bohr
  ==> Properties <==


Properties computed using the SCF density density matrix
  Nuclear Dipole Moment: (a.u.)
     X:    25.2320      Y:   -35.0265      Z:    19.4051

  Electronic Dipole Moment: (a.u.)
     X:   -25.5386      Y:    33.2736      Z:   -18.9207

  Dipole Moment: (a.u.)
     X:    -0.3066      Y:    -1.7529      Z:     0.4844     Total:     1.8443

  Dipole Moment: (Debye)
     X:    -0.7794      Y:    -4.4555      Z:     1.2313     Total:     4.6878


  Saving occupied orbitals to File 180.

  Saving SAPT 2-MONOMER_A file.

*** tstop() called on node36.bme.utexas.edu at Thu Jun  5 12:30:56 2014
Module time:
	user time   =     253.51 seconds =       4.23 minutes
	system time =       2.50 seconds =       0.04 minutes
	total time  =         68 seconds =       1.13 minutes
Total time:
	user time   =     420.10 seconds =       7.00 minutes
	system time =       4.30 seconds =       0.07 minutes
	total time  =        114 seconds =       1.90 minutes

  //>>>>>>>>>>>>>>>>>>>>>>>>>>>>>>>>>>>//
  //            Monomer B HF           //
  //<<<<<<<<<<<<<<<<<<<<<<<<<<<<<<<<<<<//


  No DF_BASIS_SCF auxiliary basis selected, defaulting to aug-cc-pvtz-jkfit


*** tstart() called on node36.bme.utexas.edu
*** at Thu Jun  5 12:30:56 2014


         ---------------------------------------------------------
                                   SCF
            by Justin Turney, Rob Parrish, and Andy Simmonett
                              RHF Reference
                        4 Threads,   7000 MiB Core
         ---------------------------------------------------------

  ==> Geometry <==

    Molecular point group: c1
    Full point group: C1

    Geometry (in Angstrom), charge = 0, multiplicity = 1:

       Center              X                  Y                   Z       
    ------------   -----------------  -----------------  -----------------
           C(Gh)     -0.996680513433    -1.155593787291    -0.238110757607
           O(Gh)      0.617696486567     0.946462212709    -0.316549757607
           S(Gh)      0.210094486567    -0.147745787291     0.637816242393
           C(Gh)      1.547495486567    -1.351055787291     0.586840242393
           H(Gh)     -1.257588513433    -2.019871787291     0.369500242393
           H(Gh)     -1.865076513433    -0.523697787291    -0.405652757607
           H(Gh)     -0.566458513433    -1.453769787291    -1.192239757607
           H(Gh)      1.265571486567    -2.240798787291     1.146318242393
           H(Gh)      1.752747486567    -1.583814787291    -0.456048757607
           H(Gh)      2.415036486567    -0.881154787291     1.041841242393
           O         -1.430291213433     1.530205012709    -1.120515157607
           H         -0.499091213433     1.457920012709    -0.858204157607
           H         -1.572134213433     2.471991012709    -1.224488157607

  Running in c1 symmetry.

  Nuclear repulsion =    9.130321183770544

  Charge       = 0
  Multiplicity = 1
  Electrons    = 10
  Nalpha       = 5
  Nbeta        = 5

  ==> Algorithm <==

  SCF Algorithm Type is DF.
  DIIS enabled.
  MOM disabled.
  Fractional occupation disabled.
  Guess Type is GWH.
  Energy threshold   = 1.00e-08
  Density threshold  = 1.00e-08
  Integral threshold = 0.00e+00

  ==> Primary Basis <==

  Basis Set: AUG-CC-PVTZ
    Number of shells: 144
    Number of basis function: 418
    Number of Cartesian functions: 479
    Spherical Harmonics?: true
    Max angular momentum: 3

  ==> Pre-Iterations <==

   -------------------------------------------------------
    Irrep   Nso     Nmo     Nalpha   Nbeta   Ndocc  Nsocc
   -------------------------------------------------------
     A        418     418       0       0       0       0
   -------------------------------------------------------
    Total     418     418       5       5       5       0
   -------------------------------------------------------

 OEINTS: Wrapper to libmints.
   by Justin Turney

   Calculation information:
      Number of atoms:                  13
      Number of AO shells:             144
      Number of SO shells:             144
      Number of primitives:            272
      Number of atomic orbitals:       479
      Number of basis functions:       418

      Number of irreps:                  1
      Number of functions per irrep: [ 418 ]

      Overlap, kinetic, potential, dipole, and quadrupole integrals
        stored in file 35.

  ==> Integral Setup <==

  ==> DFJK: Density-Fitted J/K Matrices <==

    J tasked:                  Yes
    K tasked:                  Yes
    wK tasked:                  No
    OpenMP threads:              4
    Integrals threads:           4
    Memory (MB):              5006
    Algorithm:                Core
    Integral Cache:           LOAD
    Schwarz Cutoff:          0E+00
    Fitting Condition:       1E-12

   => Auxiliary Basis Set <=

  Basis Set: aug-cc-pvtz-jkfit
    Number of shells: 274
    Number of basis function: 930
    Number of Cartesian functions: 1144
    Spherical Harmonics?: true
    Max angular momentum: 4

  Minimum eigenvalue in the overlap matrix is 1.6327553832E-05.
  Using Symmetric Orthogonalization.
  SCF Guess: Generalized Wolfsberg-Helmholtz.

  Guess energy:   107.64655585150558

  ==> Iterations <==

                        Total Energy        Delta E     RMS |[F,P]|

   @RHF iter   1:   220.59044977074396    2.20590e+02   1.23172e-01 
   @RHF iter   2:   -61.29402028948230   -2.81884e+02   1.94110e-02 DIIS
   @RHF iter   3:   -63.64509846594768   -2.35108e+00   6.97113e-03 DIIS
   @RHF iter   4:   -72.89981868056213   -9.25472e+00   7.86516e-03 DIIS
   @RHF iter   5:   -75.32308152019300   -2.42326e+00   3.41556e-03 DIIS
   @RHF iter   6:   -76.04429653810551   -7.21215e-01   3.73955e-04 DIIS
   @RHF iter   7:   -76.05954762998458   -1.52511e-02   1.00840e-04 DIIS
   @RHF iter   8:   -76.06009484087001   -5.47211e-04   1.99402e-05 DIIS
   @RHF iter   9:   -76.06012050678721   -2.56659e-05   3.53112e-06 DIIS
   @RHF iter  10:   -76.06012157396285   -1.06718e-06   4.33297e-07 DIIS
   @RHF iter  11:   -76.06012160500117   -3.10383e-08   1.10525e-07 DIIS
   @RHF iter  12:   -76.06012160639284   -1.39167e-09   2.58805e-08 DIIS
   @RHF iter  13:   -76.06012160646587   -7.30296e-11   3.03240e-09 DIIS

  ==> Post-Iterations <==

	Orbital Energies (a.u.)
	-----------------------

	Doubly Occupied:                                                      

	   1A    -20.568406     2A     -1.350255     3A     -0.713345  
	   4A     -0.584226     5A     -0.509835  

	Virtual:                                                              

	   6A      0.018884     7A      0.033684     8A      0.038298  
	   9A      0.044382    10A      0.055131    11A      0.060893  
	  12A      0.066780    13A      0.071957    14A      0.081423  
	  15A      0.090127    16A      0.102930    17A      0.109833  
	  18A      0.117176    19A      0.126265    20A      0.132138  
	  21A      0.139961    22A      0.143032    23A      0.151326  
	  24A      0.167172    25A      0.171266    26A      0.180159  
	  27A      0.186203    28A      0.194970    29A      0.200320  
	  30A      0.217215    31A      0.222655    32A      0.233872  
	  33A      0.237068    34A      0.247779    35A      0.254897  
	  36A      0.277485    37A      0.291960    38A      0.293827  
	  39A      0.309530    40A      0.313776    41A      0.317125  
	  42A      0.322446    43A      0.326230    44A      0.333521  
	  45A      0.346751    46A      0.347000    47A      0.359576  
	  48A      0.363065    49A      0.366350    50A      0.375209  
	  51A      0.383864    52A      0.391214    53A      0.395978  
	  54A      0.407802    55A      0.417558    56A      0.432631  
	  57A      0.433224    58A      0.439613    59A      0.448182  
	  60A      0.454779    61A      0.463087    62A      0.469913  
	  63A      0.480935    64A      0.488902    65A      0.495348  
	  66A      0.504257    67A      0.513216    68A      0.517823  
	  69A      0.526317    70A      0.539286    71A      0.545295  
	  72A      0.553664    73A      0.560042    74A      0.580715  
	  75A      0.581398    76A      0.596468    77A      0.600642  
	  78A      0.609350    79A      0.618389    80A      0.626179  
	  81A      0.638800    82A      0.648210    83A      0.656658  
	  84A      0.674412    85A      0.685394    86A      0.696952  
	  87A      0.704361    88A      0.716666    89A      0.721115  
	  90A      0.739826    91A      0.747144    92A      0.759365  
	  93A      0.779852    94A      0.782635    95A      0.796799  
	  96A      0.817808    97A      0.829381    98A      0.851676  
	  99A      0.860690   100A      0.872603   101A      0.892596  
	 102A      0.926758   103A      0.950974   104A      0.953615  
	 105A      0.962935   106A      0.972884   107A      0.980120  
	 108A      0.988894   109A      1.002146   110A      1.009787  
	 111A      1.020061   112A      1.025135   113A      1.029321  
	 114A      1.045553   115A      1.053021   116A      1.062126  
	 117A      1.065676   118A      1.068675   119A      1.077101  
	 120A      1.092567   121A      1.099649   122A      1.104015  
	 123A      1.115726   124A      1.120560   125A      1.123864  
	 126A      1.132851   127A      1.141039   128A      1.153371  
	 129A      1.165066   130A      1.167744   131A      1.172156  
	 132A      1.191678   133A      1.192943   134A      1.208342  
	 135A      1.220184   136A      1.237248   137A      1.239396  
	 138A      1.250666   139A      1.258514   140A      1.263654  
	 141A      1.273002   142A      1.277660   143A      1.294475  
	 144A      1.306931   145A      1.315445   146A      1.322510  
	 147A      1.328182   148A      1.342713   149A      1.357389  
	 150A      1.375031   151A      1.381605   152A      1.390700  
	 153A      1.401613   154A      1.404205   155A      1.427292  
	 156A      1.434353   157A      1.437002   158A      1.455264  
	 159A      1.460661   160A      1.481204   161A      1.496225  
	 162A      1.498419   163A      1.516364   164A      1.534468  
	 165A      1.544467   166A      1.557700   167A      1.585612  
	 168A      1.596614   169A      1.612607   170A      1.624000  
	 171A      1.638319   172A      1.652620   173A      1.671378  
	 174A      1.678724   175A      1.700649   176A      1.719498  
	 177A      1.732238   178A      1.749324   179A      1.774952  
	 180A      1.781642   181A      1.801973   182A      1.812666  
	 183A      1.828352   184A      1.840489   185A      1.885896  
	 186A      1.903704   187A      1.924842   188A      1.937863  
	 189A      1.945135   190A      1.955888   191A      1.964578  
	 192A      1.975481   193A      2.002090   194A      2.009637  
	 195A      2.018509   196A      2.028098   197A      2.042191  
	 198A      2.051841   199A      2.082493   200A      2.093600  
	 201A      2.103286   202A      2.113291   203A      2.133266  
	 204A      2.146983   205A      2.159911   206A      2.200398  
	 207A      2.201765   208A      2.215898   209A      2.239269  
	 210A      2.283391   211A      2.351359   212A      2.387798  
	 213A      2.399083   214A      2.416442   215A      2.420681  
	 216A      2.444556   217A      2.456898   218A      2.470982  
	 219A      2.495614   220A      2.503969   221A      2.514551  
	 222A      2.520914   223A      2.533566   224A      2.541255  
	 225A      2.557927   226A      2.567306   227A      2.592513  
	 228A      2.622741   229A      2.631369   230A      2.653649  
	 231A      2.662916   232A      2.709510   233A      2.735225  
	 234A      2.742435   235A      2.758862   236A      2.769510  
	 237A      2.792960   238A      2.819017   239A      2.843808  
	 240A      2.854132   241A      2.900634   242A      2.915418  
	 243A      2.925497   244A      2.946745   245A      3.006458  
	 246A      3.017661   247A      3.025003   248A      3.048118  
	 249A      3.087161   250A      3.107555   251A      3.152619  
	 252A      3.256654   253A      3.259505   254A      3.297124  
	 255A      3.353480   256A      3.393470   257A      3.467631  
	 258A      3.508120   259A      3.546719   260A      3.585485  
	 261A      3.640891   262A      3.804016   263A      3.832978  
	 264A      3.881390   265A      3.905790   266A      3.947476  
	 267A      3.975833   268A      4.000356   269A      4.024293  
	 270A      4.067856   271A      4.114648   272A      4.119613  
	 273A      4.137344   274A      4.167211   275A      4.175931  
	 276A      4.184533   277A      4.212933   278A      4.226300  
	 279A      4.235857   280A      4.258042   281A      4.272734  
	 282A      4.285138   283A      4.300061   284A      4.320706  
	 285A      4.348193   286A      4.370978   287A      4.393848  
	 288A      4.423792   289A      4.443670   290A      4.451883  
	 291A      4.481348   292A      4.521139   293A      4.533385  
	 294A      4.544267   295A      4.557556   296A      4.576255  
	 297A      4.584005   298A      4.585282   299A      4.621318  
	 300A      4.636018   301A      4.648981   302A      4.657982  
	 303A      4.680209   304A      4.711636   305A      4.737718  
	 306A      4.740935   307A      4.757866   308A      4.778085  
	 309A      4.806605   310A      4.857795   311A      4.867731  
	 312A      4.886691   313A      4.888277   314A      4.915522  
	 315A      4.930351   316A      4.945306   317A      4.965997  
	 318A      4.987313   319A      5.056643   320A      5.069837  
	 321A      5.123287   322A      5.146180   323A      5.162793  
	 324A      5.168451   325A      5.243203   326A      5.284614  
	 327A      5.291557   328A      5.304589   329A      5.325357  
	 330A      5.333455   331A      5.373543   332A      5.391633  
	 333A      5.406530   334A      5.436043   335A      5.448625  
	 336A      5.466817   337A      5.496650   338A      5.521335  
	 339A      5.547215   340A      5.570489   341A      5.612599  
	 342A      5.632507   343A      5.661531   344A      5.700817  
	 345A      5.721812   346A      5.747527   347A      5.762380  
	 348A      5.785273   349A      5.838838   350A      5.888460  
	 351A      5.905733   352A      6.007601   353A      6.100237  
	 354A      6.167279   355A      6.191721   356A      6.201053  
	 357A      6.243177   358A      6.301115   359A      6.332167  
	 360A      6.353764   361A      6.403135   362A      6.453985  
	 363A      6.627443   364A      6.688207   365A      6.693638  
	 366A      6.730568   367A      6.825947   368A      6.874204  
	 369A      7.086726   370A      7.204043   371A      7.240165  
	 372A      7.286778   373A      7.394213   374A      7.419270  
	 375A      7.439228   376A      7.554208   377A      7.596646  
	 378A      7.731527   379A      7.776012   380A      7.797537  
	 381A      7.820351   382A      7.827099   383A      7.848370  
	 384A      7.865563   385A      7.896739   386A      7.920783  
	 387A      7.946792   388A      7.975840   389A      7.995963  
	 390A      8.080589   391A      8.138967   392A      8.200285  
	 393A      8.220435   394A      8.292261   395A      8.325421  
	 396A      8.413490   397A      8.486267   398A      9.133664  
	 399A      9.669197   400A      9.948843   401A     10.136086  
	 402A     10.190007   403A     10.462952   404A     10.528222  
	 405A     10.579969   406A     11.102139   407A     11.614929  
	 408A     12.662994   409A     13.085650   410A     17.371092  
	 411A     17.481900   412A     25.040519   413A     25.688286  
	 414A     25.904219   415A     51.922686   416A     52.231633  
	 417A     62.323433   418A    141.857294  

	Final Occupation by Irrep:
	          A 
	DOCC [     5 ]

  Energy converged.

  @RHF Final Energy:   -76.06012160646587

   => Energetics <=

    Nuclear Repulsion Energy =              9.1303211837705440
    One-Electron Energy =                -122.9287480012706482
    Two-Electron Energy =                  37.7383052110347137
    DFT Exchange-Correlation Energy =       0.0000000000000000
    Empirical Dispersion Energy =           0.0000000000000000
    Total Energy =                        -76.0601216064653869



Properties will be evaluated at   0.000000,   0.000000,   0.000000 Bohr
  ==> Properties <==


Properties computed using the SCF density density matrix
  Nuclear Dipole Moment: (a.u.)
     X:   -25.5369      Y:    30.5598      Z:   -20.8755

  Electronic Dipole Moment: (a.u.)
     X:    26.0582      Y:   -29.9831      Z:    20.9796

  Dipole Moment: (a.u.)
     X:     0.5213      Y:     0.5767      Z:     0.1041     Total:     0.7843

  Dipole Moment: (Debye)
     X:     1.3250      Y:     1.4658      Z:     0.2647     Total:     1.9936


  Saving occupied orbitals to File 180.

  Saving SAPT 2-MONOMER_B file.

*** tstop() called on node36.bme.utexas.edu at Thu Jun  5 12:31:37 2014
Module time:
	user time   =     148.03 seconds =       2.47 minutes
	system time =       1.81 seconds =       0.03 minutes
	total time  =         41 seconds =       0.68 minutes
Total time:
	user time   =     568.17 seconds =       9.47 minutes
	system time =       6.11 seconds =       0.10 minutes
	total time  =        155 seconds =       2.58 minutes
  No DF_BASIS_SAPT auxiliary basis selected, defaulting to aug-cc-pvtz-ri

  //>>>>>>>>>>>>>>>>>>>>>>>>>>>>>>>>>>>//
  //               SAPT2+              //
  //<<<<<<<<<<<<<<<<<<<<<<<<<<<<<<<<<<<//


*** tstart() called on node36.bme.utexas.edu
*** at Thu Jun  5 12:31:37 2014

        SAPT2+  
    Ed Hohenstein
     6 June 2009

      Orbital Information
  --------------------------
    NSO        =       418
    NMO        =       418
    NRI        =       939
    NOCC A     =        21
    NOCC B     =         5
    FOCC A     =         8
    FOCC B     =         1
    NVIR A     =       397
    NVIR B     =       413

    Estimated memory usage: 3086.6 MB

    Elst10,r            =    -0.063978358107 H
    Exch10 (S^2)        =     0.108260595286 H
    Exch10              =     0.113131872754 H
    Ind20,r (A<-B)      =    -0.034986374566 H
    Ind20,r (B<-A)      =    -0.025757749679 H
    Ind20,r             =    -0.060744124244 H
    Exch-Ind20,r (A<-B) =     0.018158107706 H
    Exch-Ind20,r (B<-A) =     0.020941909704 H
    Exch-Ind20,r        =     0.039100017409 H
    Disp20              =    -0.026353012616 H
    Exch-Disp20         =     0.006349538690 H
    Elst12,r            =     0.003248285422 H
    Exch11              =     0.001029443271 H
    Exch12              =     0.008445338996 H
    Ind22               =    -0.008185705204 H
    Disp21              =     0.003372245610 H
    Disp22 (SDQ)        =    -0.000829583039 H

    (i =   1 of   4)       1925 seconds
    (i =   2 of   4)       3924 seconds
    (i =   3 of   4)       6122 seconds
    (i =   4 of   4)       8321 seconds

    Disp220 (T)         =    -0.002242629289 H

    (i =   1 of  13)        515 seconds
    (i =   2 of  13)       1033 seconds
    (i =   3 of  13)       1561 seconds
    (i =   4 of  13)       2087 seconds
    (i =   5 of  13)       2619 seconds
    (i =   6 of  13)       3153 seconds
    (i =   7 of  13)       3686 seconds
    (i =   8 of  13)       4221 seconds
    (i =   9 of  13)       4752 seconds
    (i =  10 of  13)       5284 seconds
    (i =  11 of  13)       5812 seconds
    (i =  12 of  13)       6282 seconds
    (i =  13 of  13)       6540 seconds

    Disp202 (T)         =    -0.002079797440 H

    Disp22 (T)          =    -0.004322426729 H

    SAPT Results  
  -----------------------------------------------------------------------
    Electrostatics         -60.73007269 mH     -38.10869755 kcal mol^-1
      Elst10,r             -63.97835811 mH     -40.14702751 kcal mol^-1
      Elst12,r               3.24828542 mH       2.03832996 kcal mol^-1

    Exchange               122.60665502 mH      76.93684079 kcal mol^-1
      Exch10               113.13187275 mH      70.99132491 kcal mol^-1
      Exch10(S^2)          108.26059529 mH      67.93455202 kcal mol^-1
      Exch11(S^2)            1.02944327 mH       0.64598543 kcal mol^-1
      Exch12(S^2)            8.44533900 mH       5.29953045 kcal mol^-1

    Induction              -37.28705410 mH     -23.39798068 kcal mol^-1
      Ind20,r              -60.74412424 mH     -38.11751503 kcal mol^-1
      Ind22                 -8.18570520 mH      -5.13660778 kcal mol^-1
      Exch-Ind20,r          39.10001741 mH      24.53563237 kcal mol^-1
      Exch-Ind22             5.26900700 mH       3.30635195 kcal mol^-1
      delta HF,r (2)       -12.72624907 mH      -7.98584219 kcal mol^-1

    Dispersion             -21.78323808 mH     -13.66918884 kcal mol^-1
      Disp20               -26.35301262 mH     -16.53676577 kcal mol^-1
      Disp21                 3.37224561 mH       2.11611616 kcal mol^-1
      Disp22 (SDQ)          -0.82958304 mH      -0.52057124 kcal mol^-1
      Disp22 (T)            -4.32242673 mH      -2.71236384 kcal mol^-1
      Exch-Disp20            6.34953869 mH       3.98439585 kcal mol^-1

    Total HF                14.78315874 mH       9.27657255 kcal mol^-1
    Total SAPT0             -5.22031518 mH      -3.27579737 kcal mol^-1
    Total SAPT2              4.58605431 mH       2.87779264 kcal mol^-1
    Total SAPT2+             2.80629015 mH       1.76097373 kcal mol^-1

*** tstop() called on node36.bme.utexas.edu at Thu Jun  5 19:14:52 2014
Module time:
	user time   =   77857.62 seconds =    1297.63 minutes
	system time =     332.02 seconds =       5.53 minutes
	total time  =      24195 seconds =     403.25 minutes
Total time:
	user time   =   78425.80 seconds =    1307.10 minutes
	system time =     338.14 seconds =       5.64 minutes
	total time  =      24350 seconds =     405.83 minutes

*** PSI4 exiting successfully. Buy a developer a beer!
    -----------------------------------------------------------------------
          PSI4: An Open-Source Ab Initio Electronic Structure Package
                              PSI 4.0.0-beta4 Driver

    J. M. Turney, A. C. Simmonett, R. M. Parrish, E. G. Hohenstein,
    F. A. Evangelista, J. T. Fermann, B. J. Mintz, L. A. Burns, J. J. Wilke,
    M. L. Abrams, N. J. Russ, M. L. Leininger, C. L. Janssen, E. T. Seidl,
    W. D. Allen, H. F. Schaefer, R. A. King, E. F. Valeev, C. D. Sherrill,
    and T. D. Crawford, WIREs Comput. Mol. Sci., (2011) (doi: 10.1002/wcms.93)

                         Additional Contributions by
    A. E. DePrince, M. Saitow, U. Bozkaya, A. Yu. Sokolov
    -----------------------------------------------------------------------

    Process ID:  28114
    PSI4DATADIR: /home/xzhu216/psi4/psi4-install/share/psi

    Using LocalCommunicator (Number of processes = 1)

    Memory level set to 256.000 MB

  ==> Input File <==

--------------------------------------------------------------------------
#psi4
#
memory 7 gb

molecule DMSO_Water {
0 1
    C    -3.228946000    -0.562414000     0.903882000
    O    -1.614569000     1.539642000     0.825443000
    S    -2.022171000     0.445434000     1.779809000
    C    -0.684770000    -0.757876000     1.728833000
    H    -3.489854000    -1.426692000     1.511493000
    H    -4.097342000     0.069482000     0.736340000
    H    -2.798724000    -0.860590000    -0.050247000
    H    -0.966694000    -1.647619000     2.288311000
    H    -0.479518000    -0.990635000     0.685944000
    H     0.182771000    -0.287975000     2.183834000
--
0 1
    O    -3.822097800     2.196450200    -0.055901600
    H    -2.890897800     2.124165200     0.206409400
    H    -3.963940800     3.138236200    -0.159874600
units angstrom
no_reorient  #important for SAPT in psi4, default
symmetry c1  #important for SAPT in psi4, default
}

set {
basis aug-cc-pVTZ
scf_type DF
guess GWH
freeze_core True
}
energy('sapt2+')
--------------------------------------------------------------------------

  Memory set to   7.000 GiB by Python script.

  //>>>>>>>>>>>>>>>>>>>>>>>>>>>>>>>>>>>//
  //              Dimer HF             //
  //<<<<<<<<<<<<<<<<<<<<<<<<<<<<<<<<<<<//


  No DF_BASIS_SCF auxiliary basis selected, defaulting to aug-cc-pvtz-jkfit


*** tstart() called on node36.bme.utexas.edu
*** at Thu Jun  5 12:29:05 2014


         ---------------------------------------------------------
                                   SCF
            by Justin Turney, Rob Parrish, and Andy Simmonett
                              RHF Reference
                        4 Threads,   7000 MiB Core
         ---------------------------------------------------------

  ==> Geometry <==

    Molecular point group: c1
    Full point group: C1

    Geometry (in Angstrom), charge = 0, multiplicity = 1:

       Center              X                  Y                   Z       
    ------------   -----------------  -----------------  -----------------
           C         -0.966756636855    -1.169298093026    -0.223597346138
           O          0.647620363145     0.932757906974    -0.302036346138
           S          0.240018363145    -0.161450093026     0.652329653862
           C          1.577419363145    -1.364760093026     0.601353653862
           H         -1.227664636855    -2.033576093026     0.384013653862
           H         -1.835152636855    -0.537402093026    -0.391139346138
           H         -0.536534636855    -1.467474093026    -1.177726346138
           H          1.295495363145    -2.254503093026     1.160831653862
           H          1.782671363145    -1.597519093026    -0.441535346138
           H          2.444960363145    -0.894859093026     1.056354653862
           O         -1.559908436855     1.589566106974    -1.183380946138
           H         -0.628708436855     1.517281106974    -0.921069946138
           H         -1.701751436855     2.531352106974    -1.287353946138

  Running in c1 symmetry.

  Nuclear repulsion =  264.399709939502657

  Charge       = 0
  Multiplicity = 1
  Electrons    = 52
  Nalpha       = 26
  Nbeta        = 26

  ==> Algorithm <==

  SCF Algorithm Type is DF.
  DIIS enabled.
  MOM disabled.
  Fractional occupation disabled.
  Guess Type is GWH.
  Energy threshold   = 1.00e-08
  Density threshold  = 1.00e-08
  Integral threshold = 0.00e+00

  ==> Primary Basis <==

  Basis Set: AUG-CC-PVTZ
    Number of shells: 144
    Number of basis function: 418
    Number of Cartesian functions: 479
    Spherical Harmonics?: true
    Max angular momentum: 3

  ==> Pre-Iterations <==

   -------------------------------------------------------
    Irrep   Nso     Nmo     Nalpha   Nbeta   Ndocc  Nsocc
   -------------------------------------------------------
     A        418     418       0       0       0       0
   -------------------------------------------------------
    Total     418     418      26      26      26       0
   -------------------------------------------------------

 OEINTS: Wrapper to libmints.
   by Justin Turney

   Calculation information:
      Number of atoms:                  13
      Number of AO shells:             144
      Number of SO shells:             144
      Number of primitives:            272
      Number of atomic orbitals:       479
      Number of basis functions:       418

      Number of irreps:                  1
      Number of functions per irrep: [ 418 ]

      Overlap, kinetic, potential, dipole, and quadrupole integrals
        stored in file 35.

  ==> Integral Setup <==

  ==> DFJK: Density-Fitted J/K Matrices <==

    J tasked:                  Yes
    K tasked:                  Yes
    wK tasked:                  No
    OpenMP threads:              4
    Integrals threads:           4
    Memory (MB):              5006
    Algorithm:                Core
    Integral Cache:           SAVE
    Schwarz Cutoff:          0E+00
    Fitting Condition:       1E-12

   => Auxiliary Basis Set <=

  Basis Set: aug-cc-pvtz-jkfit
    Number of shells: 274
    Number of basis function: 930
    Number of Cartesian functions: 1144
    Spherical Harmonics?: true
    Max angular momentum: 4

  Minimum eigenvalue in the overlap matrix is 1.6348178982E-05.
  Using Symmetric Orthogonalization.
  SCF Guess: Generalized Wolfsberg-Helmholtz.

  Guess energy:  -459.50060420327742

  ==> Iterations <==

                        Total Energy        Delta E     RMS |[F,P]|

   @RHF iter   1:  -584.17637087322896   -5.84176e+02   2.57841e-02 
   @RHF iter   2:  -535.31590689917357    4.88605e+01   2.44251e-02 DIIS
   @RHF iter   3:  -590.80015847807636   -5.54843e+01   1.21575e-02 DIIS
   @RHF iter   4:  -564.82533427379872    2.59748e+01   2.41422e-02 DIIS
   @RHF iter   5:  -588.83580446697215   -2.40105e+01   1.68281e-02 DIIS
   @RHF iter   6:  -610.62160698841421   -2.17858e+01   1.08781e-02 DIIS
   @RHF iter   7:  -624.73145049390109   -1.41098e+01   5.16556e-03 DIIS
   @RHF iter   8:  -627.20211041397260   -2.47066e+00   2.22926e-03 DIIS
   @RHF iter   9:  -627.66785512890328   -4.65745e-01   7.68490e-04 DIIS
   @RHF iter  10:  -627.70935055026689   -4.14954e-02   2.14805e-04 DIIS
   @RHF iter  11:  -627.71431180269610   -4.96125e-03   6.37651e-05 DIIS
   @RHF iter  12:  -627.71482268629620   -5.10884e-04   2.05044e-05 DIIS
   @RHF iter  13:  -627.71488802566114   -6.53394e-05   7.67144e-06 DIIS
   @RHF iter  14:  -627.71489769058508   -9.66492e-06   2.15772e-06 DIIS
   @RHF iter  15:  -627.71489859105714   -9.00472e-07   5.61039e-07 DIIS
   @RHF iter  16:  -627.71489867145556   -8.03984e-08   1.57074e-07 DIIS
   @RHF iter  17:  -627.71489867731930   -5.86374e-09   4.82486e-08 DIIS
   @RHF iter  18:  -627.71489867777836   -4.59067e-10   1.76692e-08 DIIS
   @RHF iter  19:  -627.71489867783930   -6.09361e-11   6.30817e-09 DIIS

  ==> Post-Iterations <==

	Orbital Energies (a.u.)
	-----------------------

	Doubly Occupied:                                                      

	   1A    -92.079503     2A    -20.519089     3A    -20.507239  
	   4A    -11.271437     5A    -11.258920     6A     -9.067106  
	   7A     -6.748684     8A     -6.748619     9A     -6.747186  
	  10A     -1.359856    11A     -1.298927    12A     -1.076908  
	  13A     -0.981042    14A     -0.829544    15A     -0.694113  
	  16A     -0.651252    17A     -0.640349    18A     -0.617955  
	  19A     -0.590607    20A     -0.573501    21A     -0.566680  
	  22A     -0.535983    23A     -0.515598    24A     -0.460950  
	  25A     -0.432917    26A     -0.385485  

	Virtual:                                                              

	  27A      0.023845    28A      0.036085    29A      0.041534  
	  30A      0.045787    31A      0.054275    32A      0.063433  
	  33A      0.066606    34A      0.074383    35A      0.089555  
	  36A      0.099791    37A      0.116636    38A      0.117210  
	  39A      0.126927    40A      0.128454    41A      0.138217  
	  42A      0.141703    43A      0.151673    44A      0.158439  
	  45A      0.176106    46A      0.179884    47A      0.190754  
	  48A      0.192255    49A      0.201043    50A      0.204924  
	  51A      0.210576    52A      0.218556    53A      0.223874  
	  54A      0.228545    55A      0.243300    56A      0.247880  
	  57A      0.267952    58A      0.280968    59A      0.290846  
	  60A      0.298877    61A      0.306367    62A      0.313394  
	  63A      0.323843    64A      0.333262    65A      0.335405  
	  66A      0.339713    67A      0.351411    68A      0.354995  
	  69A      0.361241    70A      0.363172    71A      0.375004  
	  72A      0.380007    73A      0.384485    74A      0.397736  
	  75A      0.402541    76A      0.405776    77A      0.415419  
	  78A      0.417156    79A      0.422767    80A      0.425088  
	  81A      0.428303    82A      0.430977    83A      0.437565  
	  84A      0.455962    85A      0.464216    86A      0.465655  
	  87A      0.477233    88A      0.488143    89A      0.492587  
	  90A      0.501945    91A      0.504399    92A      0.516980  
	  93A      0.523053    94A      0.533260    95A      0.544840  
	  96A      0.555684    97A      0.560720    98A      0.570627  
	  99A      0.590170   100A      0.600562   101A      0.609189  
	 102A      0.621701   103A      0.624539   104A      0.643463  
	 105A      0.663424   106A      0.679645   107A      0.696967  
	 108A      0.713275   109A      0.722365   110A      0.746337  
	 111A      0.753414   112A      0.764782   113A      0.779316  
	 114A      0.785276   115A      0.800725   116A      0.807648  
	 117A      0.811584   118A      0.816740   119A      0.828172  
	 120A      0.836591   121A      0.842225   122A      0.853934  
	 123A      0.859979   124A      0.871908   125A      0.876483  
	 126A      0.887417   127A      0.891140   128A      0.899373  
	 129A      0.903193   130A      0.913082   131A      0.920202  
	 132A      0.929281   133A      0.940222   134A      0.955508  
	 135A      0.961569   136A      0.972364   137A      0.980934  
	 138A      0.985631   139A      0.992242   140A      1.005555  
	 141A      1.007624   142A      1.021560   143A      1.030290  
	 144A      1.051696   145A      1.057205   146A      1.074120  
	 147A      1.084254   148A      1.087041   149A      1.094015  
	 150A      1.105531   151A      1.112739   152A      1.116332  
	 153A      1.131760   154A      1.140580   155A      1.152984  
	 156A      1.163469   157A      1.171170   158A      1.179880  
	 159A      1.190817   160A      1.199687   161A      1.201550  
	 162A      1.211165   163A      1.221936   164A      1.234525  
	 165A      1.251513   166A      1.257785   167A      1.276162  
	 168A      1.290796   169A      1.302507   170A      1.312795  
	 171A      1.321292   172A      1.325647   173A      1.354842  
	 174A      1.362458   175A      1.370310   176A      1.377277  
	 177A      1.401857   178A      1.405541   179A      1.422896  
	 180A      1.427931   181A      1.450901   182A      1.468557  
	 183A      1.478647   184A      1.479372   185A      1.492263  
	 186A      1.510062   187A      1.520292   188A      1.549233  
	 189A      1.581712   190A      1.585224   191A      1.587625  
	 192A      1.608031   193A      1.622563   194A      1.625877  
	 195A      1.637672   196A      1.650396   197A      1.658140  
	 198A      1.667890   199A      1.686497   200A      1.697271  
	 201A      1.701480   202A      1.705262   203A      1.714204  
	 204A      1.724177   205A      1.749559   206A      1.761428  
	 207A      1.778308   208A      1.789621   209A      1.801586  
	 210A      1.814633   211A      1.819862   212A      1.823681  
	 213A      1.845838   214A      1.852844   215A      1.867554  
	 216A      1.890859   217A      1.905959   218A      1.924872  
	 219A      1.946663   220A      1.960677   221A      2.000772  
	 222A      2.020352   223A      2.028960   224A      2.071869  
	 225A      2.076798   226A      2.082950   227A      2.095567  
	 228A      2.123022   229A      2.143658   230A      2.159350  
	 231A      2.191253   232A      2.215068   233A      2.225762  
	 234A      2.236066   235A      2.282298   236A      2.287546  
	 237A      2.318863   238A      2.326115   239A      2.332077  
	 240A      2.378556   241A      2.391577   242A      2.410250  
	 243A      2.420558   244A      2.428922   245A      2.453476  
	 246A      2.475136   247A      2.503291   248A      2.530424  
	 249A      2.548395   250A      2.570622   251A      2.589467  
	 252A      2.603278   253A      2.615951   254A      2.620511  
	 255A      2.660368   256A      2.671457   257A      2.678641  
	 258A      2.697180   259A      2.701772   260A      2.737472  
	 261A      2.765745   262A      2.798904   263A      2.804841  
	 264A      2.829214   265A      2.849275   266A      2.869542  
	 267A      2.911052   268A      2.929625   269A      2.967885  
	 270A      2.991672   271A      3.003799   272A      3.019572  
	 273A      3.043787   274A      3.100561   275A      3.129559  
	 276A      3.161502   277A      3.227976   278A      3.372627  
	 279A      3.381069   280A      3.414097   281A      3.453066  
	 282A      3.471724   283A      3.485751   284A      3.530833  
	 285A      3.544227   286A      3.562487   287A      3.588232  
	 288A      3.591680   289A      3.619097   290A      3.642006  
	 291A      3.658541   292A      3.668721   293A      3.679634  
	 294A      3.713356   295A      3.727227   296A      3.752187  
	 297A      3.785000   298A      3.799070   299A      3.818013  
	 300A      3.844156   301A      3.876805   302A      3.903745  
	 303A      3.945807   304A      3.956708   305A      3.980709  
	 306A      4.029897   307A      4.035289   308A      4.046790  
	 309A      4.095040   310A      4.108112   311A      4.121698  
	 312A      4.156247   313A      4.166006   314A      4.172944  
	 315A      4.184877   316A      4.213450   317A      4.219337  
	 318A      4.258354   319A      4.272783   320A      4.298493  
	 321A      4.324068   322A      4.338885   323A      4.356474  
	 324A      4.394758   325A      4.429820   326A      4.461581  
	 327A      4.471410   328A      4.492473   329A      4.505792  
	 330A      4.527367   331A      4.532466   332A      4.565778  
	 333A      4.585128   334A      4.590249   335A      4.611532  
	 336A      4.614101   337A      4.656715   338A      4.692982  
	 339A      4.748121   340A      4.756061   341A      4.774454  
	 342A      4.790548   343A      4.829409   344A      4.840647  
	 345A      4.881226   346A      4.905820   347A      4.929209  
	 348A      4.959973   349A      4.978345   350A      4.989312  
	 351A      5.018288   352A      5.061395   353A      5.092223  
	 354A      5.124879   355A      5.173029   356A      5.177933  
	 357A      5.198136   358A      5.208881   359A      5.247695  
	 360A      5.274338   361A      5.282433   362A      5.326680  
	 363A      5.364947   364A      5.433170   365A      5.490273  
	 366A      5.527936   367A      5.534517   368A      5.558960  
	 369A      5.573966   370A      5.637048   371A      5.676997  
	 372A      5.687852   373A      5.719982   374A      5.759284  
	 375A      5.803014   376A      5.855574   377A      5.871596  
	 378A      5.957423   379A      6.011980   380A      6.036653  
	 381A      6.070679   382A      6.088558   383A      6.130986  
	 384A      6.384314   385A      6.657793   386A      6.687640  
	 387A      6.700236   388A      6.744276   389A      6.811102  
	 390A      6.880257   391A      6.887659   392A      6.928114  
	 393A      6.944408   394A      6.959304   395A      7.033773  
	 396A      7.074741   397A      7.152466   398A      7.194566  
	 399A      7.286250   400A      7.322004   401A      7.388194  
	 402A      7.442210   403A      7.513057   404A      7.521806  
	 405A      7.571704   406A      7.583958   407A      7.644079  
	 408A      7.688314   409A      7.917287   410A      8.097605  
	 411A      8.151082   412A      8.286368   413A      9.132412  
	 414A      9.503328   415A     13.806820   416A     17.008989  
	 417A     17.302888   418A     17.510212  

	Final Occupation by Irrep:
	          A 
	DOCC [    26 ]

  Energy converged.

  @RHF Final Energy:  -627.71489867783930

   => Energetics <=

    Nuclear Repulsion Energy =            264.3997099395026567
    One-Electron Energy =               -1389.9103229651213951
    Two-Electron Energy =                 497.7957143477787554
    DFT Exchange-Correlation Energy =       0.0000000000000000
    Empirical Dispersion Energy =           0.0000000000000000
    Total Energy =                       -627.7148986778399831



Properties will be evaluated at   0.000000,   0.000000,   0.000000 Bohr
  ==> Properties <==


Properties computed using the SCF density density matrix
  Nuclear Dipole Moment: (a.u.)
     X:    -0.3793      Y:    -4.4327      Z:    -1.5064

  Electronic Dipole Moment: (a.u.)
     X:     0.7881      Y:     3.0165      Z:     2.2420

  Dipole Moment: (a.u.)
     X:     0.4088      Y:    -1.4161      Z:     0.7356     Total:     1.6473

  Dipole Moment: (Debye)
     X:     1.0390      Y:    -3.5994      Z:     1.8697     Total:     4.1870


  Saving occupied orbitals to File 180.

  Saving SAPT 2-DIMER file.

*** tstop() called on node36.bme.utexas.edu at Thu Jun  5 12:30:01 2014
Module time:
	user time   =     202.37 seconds =       3.37 minutes
	system time =       2.59 seconds =       0.04 minutes
	total time  =         56 seconds =       0.93 minutes
Total time:
	user time   =     202.37 seconds =       3.37 minutes
	system time =       2.59 seconds =       0.04 minutes
	total time  =         56 seconds =       0.93 minutes

  //>>>>>>>>>>>>>>>>>>>>>>>>>>>>>>>>>>>//
  //            Monomer A HF           //
  //<<<<<<<<<<<<<<<<<<<<<<<<<<<<<<<<<<<//


  No DF_BASIS_SCF auxiliary basis selected, defaulting to aug-cc-pvtz-jkfit


*** tstart() called on node36.bme.utexas.edu
*** at Thu Jun  5 12:30:01 2014


         ---------------------------------------------------------
                                   SCF
            by Justin Turney, Rob Parrish, and Andy Simmonett
                              RHF Reference
                        4 Threads,   7000 MiB Core
         ---------------------------------------------------------

  ==> Geometry <==

    Molecular point group: c1
    Full point group: C1

    Geometry (in Angstrom), charge = 0, multiplicity = 1:

       Center              X                  Y                   Z       
    ------------   -----------------  -----------------  -----------------
           C         -0.966756636855    -1.169298093026    -0.223597346138
           O          0.647620363145     0.932757906974    -0.302036346138
           S          0.240018363145    -0.161450093026     0.652329653862
           C          1.577419363145    -1.364760093026     0.601353653862
           H         -1.227664636855    -2.033576093026     0.384013653862
           H         -1.835152636855    -0.537402093026    -0.391139346138
           H         -0.536534636855    -1.467474093026    -1.177726346138
           H          1.295495363145    -2.254503093026     1.160831653862
           H          1.782671363145    -1.597519093026    -0.441535346138
           H          2.444960363145    -0.894859093026     1.056354653862
           O(Gh)     -1.559908436855     1.589566106974    -1.183380946138
           H(Gh)     -0.628708436855     1.517281106974    -0.921069946138
           H(Gh)     -1.701751436855     2.531352106974    -1.287353946138

  Running in c1 symmetry.

  Nuclear repulsion =  184.329146562963643

  Charge       = 0
  Multiplicity = 1
  Electrons    = 42
  Nalpha       = 21
  Nbeta        = 21

  ==> Algorithm <==

  SCF Algorithm Type is DF.
  DIIS enabled.
  MOM disabled.
  Fractional occupation disabled.
  Guess Type is GWH.
  Energy threshold   = 1.00e-08
  Density threshold  = 1.00e-08
  Integral threshold = 0.00e+00

  ==> Primary Basis <==

  Basis Set: AUG-CC-PVTZ
    Number of shells: 144
    Number of basis function: 418
    Number of Cartesian functions: 479
    Spherical Harmonics?: true
    Max angular momentum: 3

  ==> Pre-Iterations <==

   -------------------------------------------------------
    Irrep   Nso     Nmo     Nalpha   Nbeta   Ndocc  Nsocc
   -------------------------------------------------------
     A        418     418       0       0       0       0
   -------------------------------------------------------
    Total     418     418      21      21      21       0
   -------------------------------------------------------

 OEINTS: Wrapper to libmints.
   by Justin Turney

   Calculation information:
      Number of atoms:                  13
      Number of AO shells:             144
      Number of SO shells:             144
      Number of primitives:            272
      Number of atomic orbitals:       479
      Number of basis functions:       418

      Number of irreps:                  1
      Number of functions per irrep: [ 418 ]

      Overlap, kinetic, potential, dipole, and quadrupole integrals
        stored in file 35.

  ==> Integral Setup <==

  ==> DFJK: Density-Fitted J/K Matrices <==

    J tasked:                  Yes
    K tasked:                  Yes
    wK tasked:                  No
    OpenMP threads:              4
    Integrals threads:           4
    Memory (MB):              5006
    Algorithm:                Core
    Integral Cache:           LOAD
    Schwarz Cutoff:          0E+00
    Fitting Condition:       1E-12

   => Auxiliary Basis Set <=

  Basis Set: aug-cc-pvtz-jkfit
    Number of shells: 274
    Number of basis function: 930
    Number of Cartesian functions: 1144
    Spherical Harmonics?: true
    Max angular momentum: 4

  Minimum eigenvalue in the overlap matrix is 1.6348178982E-05.
  Using Symmetric Orthogonalization.
  SCF Guess: Generalized Wolfsberg-Helmholtz.

  Guess energy:  -358.53284139180096

  ==> Iterations <==

                        Total Energy        Delta E     RMS |[F,P]|

   @RHF iter   1:  -452.45660191729758   -4.52457e+02   9.98931e-02 
   @RHF iter   2:  -511.15608678495641   -5.86995e+01   1.17464e-02 DIIS
   @RHF iter   3:  -470.60252489563243    4.05536e+01   2.95312e-02 DIIS
   @RHF iter   4:  -501.53934857892853   -3.09368e+01   2.04935e-02 DIIS
   @RHF iter   5:  -517.44173260145817   -1.59024e+01   1.71658e-02 DIIS
   @RHF iter   6:  -525.43998470875488   -7.99825e+00   1.51733e-02 DIIS
   @RHF iter   7:  -533.13516704738186   -7.69518e+00   1.26877e-02 DIIS
   @RHF iter   8:  -543.45289652639724   -1.03177e+01   9.03040e-03 DIIS
   @RHF iter   9:  -547.17006099556784   -3.71716e+00   6.39609e-03 DIIS
   @RHF iter  10:  -550.93630204687588   -3.76624e+00   2.52354e-03 DIIS
   @RHF iter  11:  -551.56534270538430   -6.29041e-01   8.45205e-04 DIIS
[...]
    Algorithm:                Core
    Integral Cache:           LOAD
    Schwarz Cutoff:          1E-12
    Fitting Condition:       1E-10

   => Auxiliary Basis Set <=

  Basis Set: (AUG-CC-PVTZ AUX)
    Blend: AUG-CC-PVTZ-JKFIT
    Number of shells: 274
    Number of basis function: 930
    Number of Cartesian functions: 1144
    Spherical Harmonics?: true
    Max angular momentum: 4

  Minimum eigenvalue in the overlap matrix is 1.9489362962E-05.
  Using Symmetric Orthogonalization.

  SCF Guess: Superposition of Atomic Densities via on-the-fly atomic UHF.

  ==> Iterations <==

                           Total Energy        Delta E     RMS |[F,P]|

   @DF-RHF iter SAD:   -75.47046267400663   -7.54705e+01   0.00000e+00 
   @DF-RHF iter   1:   -75.97540424850091   -5.04942e-01   1.11985e-03 DIIS
   @DF-RHF iter   2:   -76.02775881950329   -5.23546e-02   7.67532e-04 DIIS
   @DF-RHF iter   3:   -76.05956807266335   -3.18093e-02   5.21875e-05 DIIS
   @DF-RHF iter   4:   -76.05996352331638   -3.95451e-04   1.26234e-05 DIIS
   @DF-RHF iter   5:   -76.05998882941618   -2.53061e-05   2.87992e-06 DIIS
   @DF-RHF iter   6:   -76.05999091699563   -2.08758e-06   6.31693e-07 DIIS
   @DF-RHF iter   7:   -76.05999102720234   -1.10207e-07   1.13416e-07 DIIS
   @DF-RHF iter   8:   -76.05999103031527   -3.11293e-09   1.91108e-08 DIIS
   @DF-RHF iter   9:   -76.05999103038472   -6.94484e-11   4.73780e-09 DIIS
  Energy and wave function converged.


  ==> Post-Iterations <==

    Orbital Energies [Eh]
    ---------------------

    Doubly Occupied:                                                      

       1A    -20.568568     2A     -1.350373     3A     -0.713442  
       4A     -0.584300     5A     -0.509906  

    Virtual:                                                              

       6A      0.018496     7A      0.031515     8A      0.038756  
       9A      0.042449    10A      0.048844    11A      0.060731  
      12A      0.065963    13A      0.072939    14A      0.078190  
      15A      0.088330    16A      0.101587    17A      0.103202  
      18A      0.110476    19A      0.124327    20A      0.130571  
      21A      0.133230    22A      0.142329    23A      0.144890  
      24A      0.156610    25A      0.168773    26A      0.173546  
      27A      0.182311    28A      0.187444    29A      0.192251  
      30A      0.198567    31A      0.207320    32A      0.215815  
      33A      0.230148    34A      0.240236    35A      0.252234  
      36A      0.258895    37A      0.259622    38A      0.272920  
      39A      0.284526    40A      0.292481    41A      0.296027  
      42A      0.303002    43A      0.312059    44A      0.316091  
      45A      0.323372    46A      0.324162    47A      0.331939  
      48A      0.341501    49A      0.356572    50A      0.360253  
      51A      0.363928    52A      0.371443    53A      0.372835  
      54A      0.379562    55A      0.389015    56A      0.392953  
      57A      0.408381    58A      0.412748    59A      0.427349  
      60A      0.431886    61A      0.445239    62A      0.450773  
      63A      0.456823    64A      0.466185    65A      0.469836  
      66A      0.481372    67A      0.494481    68A      0.498631  
      69A      0.501857    70A      0.518420    71A      0.525091  
      72A      0.530515    73A      0.542876    74A      0.550038  
      75A      0.562572    76A      0.572038    77A      0.585259  
      78A      0.591027    79A      0.600175    80A      0.605440  
      81A      0.614046    82A      0.622605    83A      0.639518  
      84A      0.644221    85A      0.668700    86A      0.680170  
      87A      0.685443    88A      0.695877    89A      0.707551  
      90A      0.712385    91A      0.724342    92A      0.731378  
      93A      0.733163    94A      0.744111    95A      0.762379  
      96A      0.774009    97A      0.776349    98A      0.797896  
      99A      0.825334   100A      0.843146   101A      0.849227  
     102A      0.878460   103A      0.891080   104A      0.907323  
     105A      0.925666   106A      0.929300   107A      0.936514  
     108A      0.944214   109A      0.950495   110A      0.961285  
     111A      0.964933   112A      0.971847   113A      0.983488  
     114A      0.989738   115A      0.996423   116A      0.997418  
     117A      1.007403   118A      1.017272   119A      1.029578  
     120A      1.032507   121A      1.046836   122A      1.048217  
     123A      1.055534   124A      1.063412   125A      1.073425  
     126A      1.081480   127A      1.084665   128A      1.094991  
     129A      1.099529   130A      1.116759   131A      1.127206  
     132A      1.131363   133A      1.132865   134A      1.144411  
     135A      1.160929   136A      1.165708   137A      1.173328  
     138A      1.180203   139A      1.186900   140A      1.194453  
     141A      1.202723   142A      1.207139   143A      1.211228  
     144A      1.229829   145A      1.244115   146A      1.255812  
     147A      1.257886   148A      1.263786   149A      1.269873  
     150A      1.281146   151A      1.283641   152A      1.310782  
     153A      1.312264   154A      1.327373   155A      1.333008  
     156A      1.341566   157A      1.360562   158A      1.362521  
     159A      1.382652   160A      1.395370   161A      1.410072  
     162A      1.422904   163A      1.431443   164A      1.443395  
     165A      1.457869   166A      1.466319   167A      1.482126  
     168A      1.498649   169A      1.518647   170A      1.527559  
     171A      1.532579   172A      1.546960   173A      1.564413  
     174A      1.584582   175A      1.596504   176A      1.611701  
     177A      1.646499   178A      1.658724   179A      1.665641  
     180A      1.689603   181A      1.701477   182A      1.747034  
     183A      1.758818   184A      1.798265   185A      1.803973  
     186A      1.824923   187A      1.832782   188A      1.862287  
     189A      1.883900   190A      1.889266   191A      1.911297  
     192A      1.916818   193A      1.924232   194A      1.943422  
     195A      1.949846   196A      1.983812   197A      1.996515  
     198A      2.003543   199A      2.006394   200A      2.020453  
     201A      2.047003   202A      2.060635   203A      2.086369  
     204A      2.102171   205A      2.118067   206A      2.129100  
     207A      2.140436   208A      2.149858   209A      2.166272  
     210A      2.176240   211A      2.242334   212A      2.286136  
     213A      2.288655   214A      2.331408   215A      2.349050  
     216A      2.384359   217A      2.391942   218A      2.405719  
     219A      2.423194   220A      2.435344   221A      2.444830  
     222A      2.450654   223A      2.456551   224A      2.458232  
     225A      2.469354   226A      2.490558   227A      2.502231  
     228A      2.509952   229A      2.517263   230A      2.545143  
     231A      2.560937   232A      2.574445   233A      2.582663  
     234A      2.616485   235A      2.696806   236A      2.713826  
     237A      2.720796   238A      2.733909   239A      2.738696  
     240A      2.741189   241A      2.767712   242A      2.812964  
     243A      2.826690   244A      2.837397   245A      2.867502  
     246A      2.890361   247A      2.896326   248A      2.902270  
     249A      2.914906   250A      2.939008   251A      2.977412  
     252A      2.981672   253A      2.990298   254A      3.076366  
     255A      3.163931   256A      3.255032   257A      3.287692  
     258A      3.333448   259A      3.500289   260A      3.514676  
     261A      3.600355   262A      3.607398   263A      3.676977  
     264A      3.783891   265A      3.795846   266A      3.841212  
     267A      3.851077   268A      3.896516   269A      3.951685  
     270A      3.969726   271A      4.026314   272A      4.043097  
     273A      4.065307   274A      4.103547   275A      4.112920  
     276A      4.117994   277A      4.134156   278A      4.157298  
     279A      4.179053   280A      4.200851   281A      4.204129  
     282A      4.224056   283A      4.236807   284A      4.240846  
     285A      4.247458   286A      4.259320   287A      4.269610  
     288A      4.287872   289A      4.309503   290A      4.331731  
     291A      4.383263   292A      4.399641   293A      4.410497  
     294A      4.423050   295A      4.449788   296A      4.473066  
     297A      4.482964   298A      4.508827   299A      4.541000  
     300A      4.560361   301A      4.564866   302A      4.585400  
     303A      4.615192   304A      4.618567   305A      4.626314  
     306A      4.649427   307A      4.675536   308A      4.711602  
     309A      4.731698   310A      4.747776   311A      4.752625  
     312A      4.802982   313A      4.848297   314A      4.855681  
     315A      4.867651   316A      4.878180   317A      4.906271  
     318A      4.916094   319A      4.938198   320A      4.963361  
     321A      5.006589   322A      5.079880   323A      5.117116  
     324A      5.132412   325A      5.143839   326A      5.158429  
     327A      5.166700   328A      5.264415   329A      5.271652  
     330A      5.277684   331A      5.286294   332A      5.325384  
     333A      5.335018   334A      5.339420   335A      5.366262  
     336A      5.389830   337A      5.415412   338A      5.464920  
     339A      5.483837   340A      5.491310   341A      5.515056  
     342A      5.556703   343A      5.565850   344A      5.596307  
     345A      5.602831   346A      5.649835   347A      5.697054  
     348A      5.710098   349A      5.736043   350A      5.744261  
     351A      5.769615   352A      5.838463   353A      6.064224  
     354A      6.152707   355A      6.162869   356A      6.186610  
     357A      6.200455   358A      6.216145   359A      6.288162  
     360A      6.299699   361A      6.316382   362A      6.350048  
     363A      6.543102   364A      6.645394   365A      6.686573  
     366A      6.695550   367A      6.736668   368A      6.767273  
     369A      6.910926   370A      7.137085   371A      7.200892  
     372A      7.262007   373A      7.263805   374A      7.309222  
     375A      7.319296   376A      7.355791   377A      7.372151  
     378A      7.543631   379A      7.546738   380A      7.561752  
     381A      7.732420   382A      7.768934   383A      7.793824  
     384A      7.798515   385A      7.814332   386A      7.841600  
     387A      7.886139   388A      7.891236   389A      7.901765  
     390A      7.916493   391A      7.933171   392A      7.979389  
     393A      8.048506   394A      8.195627   395A      8.222875  
     396A      8.280428   397A      8.360847   398A      8.798850  
     399A      9.359811   400A      9.823773   401A      9.837117  
     402A     10.100176   403A     10.154831   404A     10.439236  
     405A     10.465529   406A     10.693086   407A     11.594334  
     408A     11.691211   409A     12.818090   410A     15.759555  
     411A     17.119685   412A     24.966610   413A     25.610742  
     414A     25.638350   415A     51.792219   416A     52.017532  
     417A     59.926361   418A    141.837962  

    Final Occupation by Irrep:
              A 
    DOCC [     5 ]

  @DF-RHF Final Energy:   -76.05999103038472

   => Energetics <=

    Nuclear Repulsion Energy =              9.1303523694609137
    One-Electron Energy =                -122.9275067352297697
    Two-Electron Energy =                  37.7371633353841389
    Total Energy =                        -76.0599910303847224

Computation Completed


Properties will be evaluated at   0.000000,   0.000000,   0.000000 [a0]

Properties computed using the SCF density matrix

  Nuclear Dipole Moment: [e a0]
     X:   -54.9298      Y:    44.0210      Z:   -35.1314

  Electronic Dipole Moment: [e a0]
     X:    55.4511      Y:   -43.4437      Z:    35.2359

  Dipole Moment: [e a0]
     X:     0.5213      Y:     0.5773      Z:     0.1045     Total:     0.7848

  Dipole Moment: [D]
     X:     1.3250      Y:     1.4674      Z:     0.2656     Total:     1.9948


*** tstop() called on node37.bme.utexas.edu at Thu Apr 23 23:07:30 2020
Module time:
	user time   =      41.65 seconds =       0.69 minutes
	system time =       1.68 seconds =       0.03 minutes
	total time  =          7 seconds =       0.12 minutes
Total time:
	user time   =     181.40 seconds =       3.02 minutes
	system time =       5.75 seconds =       0.10 minutes
	total time  =         72 seconds =       1.20 minutes
  Constructing Basis Sets for SAPT...

   => Loading Basis Set <=

    Name: (AUG-CC-PVTZ AUX)
    Role: RIFIT
    Keyword: DF_BASIS_SAPT
    atoms 1, 4        entry C          line   148 file /home/liuchw/anaconda3/envs/psi4env/share/psi4/basis/aug-cc-pvtz-ri.gbs 
    atoms 2, 11       entry O          line   264 file /home/liuchw/anaconda3/envs/psi4env/share/psi4/basis/aug-cc-pvtz-ri.gbs 
    atoms 3           entry S          line   666 file /home/liuchw/anaconda3/envs/psi4env/share/psi4/basis/aug-cc-pvtz-ri.gbs 
    atoms 5-10, 12-13 entry H          line    30 file /home/liuchw/anaconda3/envs/psi4env/share/psi4/basis/aug-cc-pvtz-ri.gbs 


  //>>>>>>>>>>>>>>>>>>>>>>>>>>>>>>>>>>>//
  //               SAPT2+              //
  //<<<<<<<<<<<<<<<<<<<<<<<<<<<<<<<<<<<//


*** tstart() called on node37.bme.utexas.edu
*** at Thu Apr 23 23:07:30 2020

        SAPT2+  
    Ed Hohenstein
     6 June 2009

      Orbital Information
  --------------------------
    NSO        =       418
    NMO        =       418
    NRI        =       939
    NOCC A     =        21
    NOCC B     =         5
    FOCC A     =         8
    FOCC B     =         1
    NVIR A     =       397
    NVIR B     =       413

    Estimated memory usage: 3086.6 MB

    Natural Orbital Cutoff:   1.000E-06
    Disp(T3) Truncation:            Yes
    CCD (vv|vv) Truncation:         Yes
    MBPT T2 Truncation:             Yes

    Monomer A: 125 virtual orbitals dropped
    Monomer B: 335 virtual orbitals dropped

    Elst10,r            =    -0.003087705676 [Eh]
    Exch10 (S^2)        =     0.000064185247 [Eh]
    Exch10              =     0.000064188506 [Eh]
    Ind20,r (A<-B)      =    -0.000081670866 [Eh]
    Ind20,r (B<-A)      =    -0.000068015428 [Eh]
    Ind20,r             =    -0.000149686294 [Eh]
    Exch-Ind20,r (A<-B) =     0.000010250578 [Eh]
    Exch-Ind20,r (B<-A) =     0.000001211727 [Eh]
    Exch-Ind20,r        =     0.000011462304 [Eh]
    Disp20              =    -0.000490039721 [Eh]
    Disp20 (NO)         =    -0.000461626496 [Eh]
    Exch-Disp20         =     0.000008049482 [Eh]
    Elst12,r            =     0.000469405353 [Eh]
    Exch11              =     0.000000178908 [Eh]
    Exch12              =     0.000022131485 [Eh]
    Ind22               =    -0.000002947037 [Eh]
    Disp21              =     0.000041890299 [Eh]
    Disp22 (SDQ)        =    -0.000004111330 [Eh]

    (i =   1 of   4)         28 seconds
    (i =   2 of   4)         55 seconds
    (i =   3 of   4)         81 seconds
    (i =   4 of   4)        109 seconds

    Disp220 (T)         =    -0.000046709578 [Eh]

    (i =   1 of  13)          1 seconds
    (i =   2 of  13)          2 seconds
    (i =   3 of  13)          4 seconds
    (i =   4 of  13)          5 seconds
    (i =   5 of  13)          6 seconds
    (i =   6 of  13)          7 seconds
    (i =   7 of  13)          9 seconds
    (i =   8 of  13)         10 seconds
    (i =   9 of  13)         12 seconds
    (i =  10 of  13)         13 seconds
    (i =  11 of  13)         15 seconds
    (i =  12 of  13)         16 seconds
    (i =  13 of  13)         17 seconds

    Disp202 (T)         =    -0.000046382179 [Eh]

    Disp22 (T)          =    -0.000093091757 [Eh]

    Est. Disp220 (T)    =    -0.000049584564 [Eh]
    Est. Disp202 (T)    =    -0.000049237013 [Eh]

    Est. Disp22 (T)     =    -0.000098821578 [Eh]

    SAPT Results 
  --------------------------------------------------------------------------------------------------------
    Electrostatics                 -2.61830032 [mEh]      -1.64300826 [kcal/mol]      -6.87434655 [kJ/mol]
      Elst10,r                     -3.08770568 [mEh]      -1.93756456 [kcal/mol]      -8.10677014 [kJ/mol]
      Elst12,r                      0.46940535 [mEh]       0.29455631 [kcal/mol]       1.23242359 [kJ/mol]

    Exchange                        0.08649890 [mEh]       0.05427888 [kcal/mol]       0.22710283 [kJ/mol]
      Exch10                        0.06418851 [mEh]       0.04027890 [kcal/mol]       0.16852690 [kJ/mol]
      Exch10(S^2)                   0.06418525 [mEh]       0.04027685 [kcal/mol]       0.16851834 [kJ/mol]
      Exch11(S^2)                   0.00017891 [mEh]       0.00011227 [kcal/mol]       0.00046972 [kJ/mol]
      Exch12(S^2)                   0.02213148 [mEh]       0.01388772 [kcal/mol]       0.05810620 [kJ/mol]

    Induction                      -0.15139099 [mEh]      -0.09499928 [kcal/mol]      -0.39747699 [kJ/mol]
      Ind20,r                      -0.14968629 [mEh]      -0.09392957 [kcal/mol]      -0.39300131 [kJ/mol]
      Ind22                        -0.00294704 [mEh]      -0.00184929 [kcal/mol]      -0.00773745 [kJ/mol]
      Exch-Ind20,r                  0.01146230 [mEh]       0.00719270 [kcal/mol]       0.03009428 [kJ/mol]
      Exch-Ind22                    0.00022567 [mEh]       0.00014161 [kcal/mol]       0.00059250 [kJ/mol]
      delta HF,r (2)               -0.01044564 [mEh]      -0.00655474 [kcal/mol]      -0.02742501 [kJ/mol]

    Dispersion                     -0.54303285 [mEh]      -0.34075826 [kcal/mol]      -1.42573255 [kJ/mol]
      Disp20                       -0.49003972 [mEh]      -0.30750457 [kcal/mol]      -1.28659911 [kJ/mol]
      Disp21                        0.04189030 [mEh]       0.02628656 [kcal/mol]       0.10998296 [kJ/mol]
      Disp22 (SDQ)                 -0.00411133 [mEh]      -0.00257990 [kcal/mol]      -0.01079430 [kJ/mol]
      Disp22 (T)                   -0.09309176 [mEh]      -0.05841596 [kcal/mol]      -0.24441237 [kJ/mol]
      Est. Disp22 (T)              -0.09882158 [mEh]      -0.06201148 [kcal/mol]      -0.25945602 [kJ/mol]
      Exch-Disp20                   0.00804948 [mEh]       0.00505113 [kcal/mol]       0.02113391 [kJ/mol]

  Total HF                         -3.17218680 [mEh]      -1.99057727 [kcal/mol]      -8.32857529 [kJ/mol]
  Total SAPT0                      -3.65417703 [mEh]      -2.29303071 [kcal/mol]      -9.59404048 [kJ/mol]
  Total SAPT2                      -3.16518266 [mEh]      -1.98618210 [kcal/mol]      -8.31018592 [kJ/mol]
  Total SAPT2+                     -3.22622526 [mEh]      -2.02448692 [kcal/mol]      -8.47045327 [kJ/mol]

  Special recipe for scaled SAPT0 (see Manual):
    Electrostatics sSAPT0          -3.08770568 [mEh]      -1.93756456 [kcal/mol]      -8.10677014 [kJ/mol]
    Exchange sSAPT0                 0.06418851 [mEh]       0.04027890 [kcal/mol]       0.16852690 [kJ/mol]
    Induction sSAPT0               -0.14866788 [mEh]      -0.09329050 [kcal/mol]      -0.39032746 [kJ/mol]
    Dispersion sSAPT0              -0.48198901 [mEh]      -0.30245267 [kcal/mol]      -1.26546198 [kJ/mol]
  Total sSAPT0                     -3.65417406 [mEh]      -2.29302884 [kcal/mol]      -9.59403268 [kJ/mol]
  --------------------------------------------------------------------------------------------------------

*** tstop() called on node37.bme.utexas.edu at Thu Apr 23 23:16:18 2020
Module time:
	user time   =    2986.57 seconds =      49.78 minutes
	system time =     120.04 seconds =       2.00 minutes
	total time  =        528 seconds =       8.80 minutes
Total time:
	user time   =    3168.09 seconds =      52.80 minutes
	system time =     125.79 seconds =       2.10 minutes
	total time  =        600 seconds =      10.00 minutes

    Psi4 stopped on: Thursday, 23 April 2020 11:16PM
    Psi4 wall time for execution: 0:10:00.32

*** Psi4 exiting successfully. Buy a developer a beer!
