    -----------------------------------------------------------------------
          PSI4: An Open-Source Ab Initio Electronic Structure Package
                              PSI 4.0.0-beta4 Driver

    J. M. Turney, A. C. Simmonett, R. M. Parrish, E. G. Hohenstein,
    F. A. Evangelista, J. T. Fermann, B. J. Mintz, L. A. Burns, J. J. Wilke,
    M. L. Abrams, N. J. Russ, M. L. Leininger, C. L. Janssen, E. T. Seidl,
    W. D. Allen, H. F. Schaefer, R. A. King, E. F. Valeev, C. D. Sherrill,
    and T. D. Crawford, WIREs Comput. Mol. Sci., (2011) (doi: 10.1002/wcms.93)

                         Additional Contributions by
    A. E. DePrince, M. Saitow, U. Bozkaya, A. Yu. Sokolov
    -----------------------------------------------------------------------

    Process ID:  28130
    PSI4DATADIR: /home/xzhu216/psi4/psi4-install/share/psi

    Using LocalCommunicator (Number of processes = 1)

    Memory level set to 256.000 MB

  ==> Input File <==

--------------------------------------------------------------------------
#psi4
#
memory 7 gb

molecule DMSO_Water {
0 1
    C    -3.228946000    -0.562414000     0.903882000
    O    -1.614569000     1.539642000     0.825443000
    S    -2.022171000     0.445434000     1.779809000
    C    -0.684770000    -0.757876000     1.728833000
    H    -3.489854000    -1.426692000     1.511493000
    H    -4.097342000     0.069482000     0.736340000
    H    -2.798724000    -0.860590000    -0.050247000
    H    -0.966694000    -1.647619000     2.288311000
    H    -0.479518000    -0.990635000     0.685944000
    H     0.182771000    -0.287975000     2.183834000
--
0 1
    O    -3.981638900     2.269515600    -0.133280800
    H    -3.050438900     2.197230600     0.129030200
    H    -4.123481900     3.211301600    -0.237253800
units angstrom
no_reorient  #important for SAPT in psi4, default
symmetry c1  #important for SAPT in psi4, default
}

set {
basis aug-cc-pVTZ
scf_type DF
guess GWH
freeze_core True
}
energy('sapt2+')
--------------------------------------------------------------------------

  Memory set to   7.000 GiB by Python script.

  //>>>>>>>>>>>>>>>>>>>>>>>>>>>>>>>>>>>//
  //              Dimer HF             //
  //<<<<<<<<<<<<<<<<<<<<<<<<<<<<<<<<<<<//


  No DF_BASIS_SCF auxiliary basis selected, defaulting to aug-cc-pvtz-jkfit


*** tstart() called on node36.bme.utexas.edu
*** at Thu Jun  5 12:29:09 2014


         ---------------------------------------------------------
                                   SCF
            by Justin Turney, Rob Parrish, and Andy Simmonett
                              RHF Reference
                        4 Threads,   7000 MiB Core
         ---------------------------------------------------------

  ==> Geometry <==

    Molecular point group: c1
    Full point group: C1

    Geometry (in Angstrom), charge = 0, multiplicity = 1:

       Center              X                  Y                   Z       
    ------------   -----------------  -----------------  -----------------
           C         -0.936832760277    -1.183002398761    -0.209083934669
           O          0.677544239723     0.919053601239    -0.287522934669
           S          0.269942239723    -0.175154398761     0.666843065331
           C          1.607343239723    -1.378464398761     0.615867065331
           H         -1.197740760277    -2.047280398761     0.398527065331
           H         -1.805228760277    -0.551106398761    -0.376625934669
           H         -0.506610760277    -1.481178398761    -1.163212934669
           H          1.325419239723    -2.268207398761     1.175345065331
           H          1.812595239723    -1.611223398761    -0.427021934669
           H          2.474884239723    -0.908563398761     1.070868065331
           O         -1.689525660277     1.648927201239    -1.246246734669
           H         -0.758325660277     1.576642201239    -0.983935734669
           H         -1.831368660277     2.590713201239    -1.350219734669

  Running in c1 symmetry.

  Nuclear repulsion =  260.602759969401632

  Charge       = 0
  Multiplicity = 1
  Electrons    = 52
  Nalpha       = 26
  Nbeta        = 26

  ==> Algorithm <==

  SCF Algorithm Type is DF.
  DIIS enabled.
  MOM disabled.
  Fractional occupation disabled.
  Guess Type is GWH.
  Energy threshold   = 1.00e-08
  Density threshold  = 1.00e-08
  Integral threshold = 0.00e+00

  ==> Primary Basis <==

  Basis Set: AUG-CC-PVTZ
    Number of shells: 144
    Number of basis function: 418
    Number of Cartesian functions: 479
    Spherical Harmonics?: true
    Max angular momentum: 3

  ==> Pre-Iterations <==

   -------------------------------------------------------
    Irrep   Nso     Nmo     Nalpha   Nbeta   Ndocc  Nsocc
   -------------------------------------------------------
     A        418     418       0       0       0       0
   -------------------------------------------------------
    Total     418     418      26      26      26       0
   -------------------------------------------------------

 OEINTS: Wrapper to libmints.
   by Justin Turney

   Calculation information:
      Number of atoms:                  13
      Number of AO shells:             144
      Number of SO shells:             144
      Number of primitives:            272
      Number of atomic orbitals:       479
      Number of basis functions:       418

      Number of irreps:                  1
      Number of functions per irrep: [ 418 ]

      Overlap, kinetic, potential, dipole, and quadrupole integrals
        stored in file 35.

  ==> Integral Setup <==

  ==> DFJK: Density-Fitted J/K Matrices <==

    J tasked:                  Yes
    K tasked:                  Yes
    wK tasked:                  No
    OpenMP threads:              4
    Integrals threads:           4
    Memory (MB):              5006
    Algorithm:                Core
    Integral Cache:           SAVE
    Schwarz Cutoff:          0E+00
    Fitting Condition:       1E-12

   => Auxiliary Basis Set <=

  Basis Set: aug-cc-pvtz-jkfit
    Number of shells: 274
    Number of basis function: 930
    Number of Cartesian functions: 1144
    Spherical Harmonics?: true
    Max angular momentum: 4

  Minimum eigenvalue in the overlap matrix is 1.6342577277E-05.
  Using Symmetric Orthogonalization.
  SCF Guess: Generalized Wolfsberg-Helmholtz.

  Guess energy:  -460.60675671483716

  ==> Iterations <==

                        Total Energy        Delta E     RMS |[F,P]|

   @RHF iter   1:  -582.89163966877300   -5.82892e+02   2.54744e-02 
   @RHF iter   2:  -512.68561023076086    7.02060e+01   2.68859e-02 DIIS
   @RHF iter   3:  -583.89852893235798   -7.12129e+01   1.33702e-02 DIIS
   @RHF iter   4:  -574.59425894268691    9.30427e+00   1.97559e-02 DIIS
   @RHF iter   5:  -603.36265241126227   -2.87684e+01   1.18192e-02 DIIS
   @RHF iter   6:  -627.07399089913781   -2.37113e+01   3.01338e-03 DIIS
   @RHF iter   7:  -627.59831874765143   -5.24328e-01   1.21397e-03 DIIS
   @RHF iter   8:  -627.71074327182600   -1.12425e-01   2.81095e-04 DIIS
   @RHF iter   9:  -627.72083100964403   -1.00877e-02   5.57860e-05 DIIS
   @RHF iter  10:  -627.72137317069269   -5.42161e-04   2.13897e-05 DIIS
   @RHF iter  11:  -627.72144848542348   -7.53147e-05   1.13404e-05 DIIS
   @RHF iter  12:  -627.72146507241746   -1.65870e-05   3.72965e-06 DIIS
   @RHF iter  13:  -627.72146749805825   -2.42564e-06   9.12734e-07 DIIS
   @RHF iter  14:  -627.72146773613565   -2.38077e-07   4.10657e-07 DIIS
   @RHF iter  15:  -627.72146777051353   -3.43779e-08   1.41628e-07 DIIS
   @RHF iter  16:  -627.72146777686316   -6.34964e-09   4.61881e-08 DIIS
   @RHF iter  17:  -627.72146777758428   -7.21116e-10   1.55528e-08 DIIS
   @RHF iter  18:  -627.72146777765886   -7.45786e-11   5.39651e-09 DIIS

  ==> Post-Iterations <==

	Orbital Energies (a.u.)
	-----------------------

	Doubly Occupied:                                                      

	   1A    -92.077468     2A    -20.521713     3A    -20.516927  
	   4A    -11.269488     5A    -11.259418     6A     -9.064917  
	   7A     -6.746519     8A     -6.746433     9A     -6.745015  
	  10A     -1.350928    11A     -1.309787    12A     -1.074456  
	  13A     -0.980401    14A     -0.826078    15A     -0.690101  
	  16A     -0.649805    17A     -0.637618    18A     -0.621216  
	  19A     -0.589930    20A     -0.572666    21A     -0.565327  
	  22A     -0.536228    23A     -0.521276    24A     -0.471120  
	  25A     -0.432844    26A     -0.382298  

	Virtual:                                                              

	  27A      0.024235    28A      0.036375    29A      0.041487  
	  30A      0.045475    31A      0.053762    32A      0.063610  
	  33A      0.066904    34A      0.074346    35A      0.089878  
	  36A      0.099871    37A      0.116746    38A      0.117674  
	  39A      0.127297    40A      0.128738    41A      0.138735  
	  42A      0.142068    43A      0.151590    44A      0.158188  
	  45A      0.175809    46A      0.179515    47A      0.189604  
	  48A      0.192234    49A      0.201390    50A      0.205463  
	  51A      0.210908    52A      0.216214    53A      0.223647  
	  54A      0.226736    55A      0.243053    56A      0.248018  
	  57A      0.268392    58A      0.279725    59A      0.290261  
	  60A      0.297072    61A      0.304552    62A      0.311256  
	  63A      0.323013    64A      0.330458    65A      0.334184  
	  66A      0.339732    67A      0.350807    68A      0.353316  
	  69A      0.360021    70A      0.361231    71A      0.374170  
	  72A      0.378533    73A      0.382823    74A      0.396230  
	  75A      0.402965    76A      0.405143    77A      0.409868  
	  78A      0.416539    79A      0.420286    80A      0.422384  
	  81A      0.427320    82A      0.428736    83A      0.434847  
	  84A      0.452286    85A      0.458401    86A      0.463124  
	  87A      0.475807    88A      0.484483    89A      0.490863  
	  90A      0.500371    91A      0.503417    92A      0.512645  
	  93A      0.520851    94A      0.530667    95A      0.545200  
	  96A      0.555360    97A      0.560036    98A      0.571382  
	  99A      0.581855   100A      0.587249   101A      0.608507  
	 102A      0.621169   103A      0.621279   104A      0.643141  
	 105A      0.656055   106A      0.679117   107A      0.693099  
	 108A      0.710886   109A      0.722221   110A      0.742273  
	 111A      0.748804   112A      0.761966   113A      0.774983  
	 114A      0.784334   115A      0.798447   116A      0.803133  
	 117A      0.803744   118A      0.815246   119A      0.828122  
	 120A      0.834451   121A      0.840857   122A      0.848433  
	 123A      0.856314   124A      0.867066   125A      0.872973  
	 126A      0.883069   127A      0.890004   128A      0.897317  
	 129A      0.901475   130A      0.910924   131A      0.915422  
	 132A      0.926620   133A      0.936132   134A      0.954682  
	 135A      0.960715   136A      0.973694   137A      0.978644  
	 138A      0.981152   139A      0.986099   140A      0.999475  
	 141A      1.006140   142A      1.012376   143A      1.026485  
	 144A      1.045555   145A      1.051439   146A      1.061303  
	 147A      1.076814   148A      1.080654   149A      1.089747  
	 150A      1.103384   151A      1.108083   152A      1.116227  
	 153A      1.120692   154A      1.132335   155A      1.147032  
	 156A      1.158306   157A      1.162714   158A      1.174983  
	 159A      1.187546   160A      1.195655   161A      1.201623  
	 162A      1.203172   163A      1.212069   164A      1.227332  
	 165A      1.244299   166A      1.254219   167A      1.268114  
	 168A      1.281277   169A      1.290517   170A      1.297499  
	 171A      1.307644   172A      1.320259   173A      1.345853  
	 174A      1.353876   175A      1.359086   176A      1.372681  
	 177A      1.394866   178A      1.398316   179A      1.411065  
	 180A      1.423568   181A      1.438237   182A      1.460002  
	 183A      1.469063   184A      1.473698   185A      1.486727  
	 186A      1.500743   187A      1.508164   188A      1.542838  
	 189A      1.551746   190A      1.569504   191A      1.579267  
	 192A      1.603506   193A      1.609952   194A      1.619176  
	 195A      1.627845   196A      1.650302   197A      1.654192  
	 198A      1.656493   199A      1.675682   200A      1.684987  
	 201A      1.690818   202A      1.694302   203A      1.704938  
	 204A      1.716134   205A      1.731496   206A      1.756276  
	 207A      1.776065   208A      1.779894   209A      1.785075  
	 210A      1.805216   211A      1.810781   212A      1.822758  
	 213A      1.830237   214A      1.843363   215A      1.860757  
	 216A      1.880945   217A      1.889574   218A      1.904448  
	 219A      1.939536   220A      1.952180   221A      1.999097  
	 222A      2.014619   223A      2.019731   224A      2.055185  
	 225A      2.068980   226A      2.077009   227A      2.095624  
	 228A      2.111804   229A      2.133913   230A      2.147146  
	 231A      2.186905   232A      2.214594   233A      2.228015  
	 234A      2.233943   235A      2.275668   236A      2.286277  
	 237A      2.315980   238A      2.324957   239A      2.336095  
	 240A      2.372047   241A      2.381030   242A      2.401445  
	 243A      2.408477   244A      2.437762   245A      2.441492  
	 246A      2.475788   247A      2.487605   248A      2.511980  
	 249A      2.519168   250A      2.553931   251A      2.563038  
	 252A      2.567491   253A      2.607862   254A      2.625345  
	 255A      2.630932   256A      2.640199   257A      2.658587  
	 258A      2.694082   259A      2.700992   260A      2.720664  
	 261A      2.748449   262A      2.780969   263A      2.795877  
	 264A      2.809811   265A      2.828648   266A      2.856036  
	 267A      2.902384   268A      2.918157   269A      2.934413  
	 270A      2.981818   271A      2.985183   272A      2.997801  
	 273A      3.028065   274A      3.055633   275A      3.078241  
	 276A      3.130102   277A      3.217597   278A      3.362468  
	 279A      3.368737   280A      3.389194   281A      3.409058  
	 282A      3.465074   283A      3.475736   284A      3.492008  
	 285A      3.529591   286A      3.561359   287A      3.570017  
	 288A      3.586630   289A      3.605469   290A      3.624563  
	 291A      3.647840   292A      3.665160   293A      3.680050  
	 294A      3.708060   295A      3.725116   296A      3.738570  
	 297A      3.778468   298A      3.800607   299A      3.807686  
	 300A      3.831957   301A      3.868675   302A      3.900753  
	 303A      3.936380   304A      3.946217   305A      3.978357  
	 306A      4.013470   307A      4.037255   308A      4.039928  
	 309A      4.093505   310A      4.106585   311A      4.119752  
	 312A      4.138079   313A      4.154465   314A      4.172721  
	 315A      4.177642   316A      4.208763   317A      4.212026  
	 318A      4.254248   319A      4.266450   320A      4.272807  
	 321A      4.306703   322A      4.321506   323A      4.326621  
	 324A      4.381277   325A      4.403497   326A      4.423785  
	 327A      4.472205   328A      4.489230   329A      4.502221  
	 330A      4.508943   331A      4.522462   332A      4.533592  
	 333A      4.549510   334A      4.579807   335A      4.593073  
	 336A      4.605343   337A      4.631286   338A      4.665973  
	 339A      4.737673   340A      4.753189   341A      4.763829  
	 342A      4.791666   343A      4.817730   344A      4.822852  
	 345A      4.867538   346A      4.928641   347A      4.935245  
	 348A      4.952220   349A      4.983540   350A      5.011655  
	 351A      5.021852   352A      5.058220   353A      5.078535  
	 354A      5.109730   355A      5.150380   356A      5.173008  
	 357A      5.197534   358A      5.205297   359A      5.245759  
	 360A      5.262069   361A      5.281160   362A      5.314958  
	 363A      5.336384   364A      5.343952   365A      5.422895  
	 366A      5.525916   367A      5.534921   368A      5.538284  
	 369A      5.547202   370A      5.581629   371A      5.628967  
	 372A      5.653495   373A      5.677977   374A      5.723120  
	 375A      5.775198   376A      5.824441   377A      5.837453  
	 378A      5.956341   379A      6.009747   380A      6.035708  
	 381A      6.069594   382A      6.088665   383A      6.123754  
	 384A      6.339934   385A      6.641532   386A      6.684270  
	 387A      6.694958   388A      6.736901   389A      6.796826  
	 390A      6.845352   391A      6.879062   392A      6.907503  
	 393A      6.935379   394A      6.946894   395A      6.986763  
	 396A      6.996150   397A      7.150463   398A      7.176407  
	 399A      7.247831   400A      7.301057   401A      7.353282  
	 402A      7.413510   403A      7.449841   404A      7.463725  
	 405A      7.532234   406A      7.555953   407A      7.583439  
	 408A      7.649071   409A      7.846319   410A      7.919915  
	 411A      8.096863   412A      8.171812   413A      9.001674  
	 414A      9.445467   415A     13.566754   416A     16.760874  
	 417A     17.296173   418A     17.486769  

	Final Occupation by Irrep:
	          A 
	DOCC [    26 ]

  Energy converged.

  @RHF Final Energy:  -627.72146777765886

   => Energetics <=

    Nuclear Repulsion Energy =            260.6027599694016317
    One-Electron Energy =               -1382.3284959600907769
    Two-Electron Energy =                 494.0042682130311391
    DFT Exchange-Correlation Energy =       0.0000000000000000
    Empirical Dispersion Energy =           0.0000000000000000
    Total Energy =                       -627.7214677776580629



Properties will be evaluated at   0.000000,   0.000000,   0.000000 Bohr
  ==> Properties <==


Properties computed using the SCF density density matrix
  Nuclear Dipole Moment: (a.u.)
     X:    -0.4537      Y:    -4.3986      Z:    -1.5425

  Electronic Dipole Moment: (a.u.)
     X:     0.8040      Y:     3.0350      Z:     2.2407

  Dipole Moment: (a.u.)
     X:     0.3503      Y:    -1.3636      Z:     0.6982     Total:     1.5715

  Dipole Moment: (Debye)
     X:     0.8905      Y:    -3.4658      Z:     1.7746     Total:     3.9943


  Saving occupied orbitals to File 180.

  Saving SAPT 2-DIMER file.

*** tstop() called on node36.bme.utexas.edu at Thu Jun  5 12:30:10 2014
Module time:
	user time   =     219.13 seconds =       3.65 minutes
	system time =       3.12 seconds =       0.05 minutes
	total time  =         61 seconds =       1.02 minutes
Total time:
	user time   =     219.13 seconds =       3.65 minutes
	system time =       3.12 seconds =       0.05 minutes
	total time  =         61 seconds =       1.02 minutes

  //>>>>>>>>>>>>>>>>>>>>>>>>>>>>>>>>>>>//
  //            Monomer A HF           //
  //<<<<<<<<<<<<<<<<<<<<<<<<<<<<<<<<<<<//


  No DF_BASIS_SCF auxiliary basis selected, defaulting to aug-cc-pvtz-jkfit


*** tstart() called on node36.bme.utexas.edu
*** at Thu Jun  5 12:30:10 2014


         ---------------------------------------------------------
                                   SCF
            by Justin Turney, Rob Parrish, and Andy Simmonett
                              RHF Reference
                        4 Threads,   7000 MiB Core
         ---------------------------------------------------------

  ==> Geometry <==

    Molecular point group: c1
    Full point group: C1

    Geometry (in Angstrom), charge = 0, multiplicity = 1:

       Center              X                  Y                   Z       
    ------------   -----------------  -----------------  -----------------
           C         -0.936832760277    -1.183002398761    -0.209083934669
           O          0.677544239723     0.919053601239    -0.287522934669
           S          0.269942239723    -0.175154398761     0.666843065331
           C          1.607343239723    -1.378464398761     0.615867065331
           H         -1.197740760277    -2.047280398761     0.398527065331
           H         -1.805228760277    -0.551106398761    -0.376625934669
           H         -0.506610760277    -1.481178398761    -1.163212934669
           H          1.325419239723    -2.268207398761     1.175345065331
           H          1.812595239723    -1.611223398761    -0.427021934669
           H          2.474884239723    -0.908563398761     1.070868065331
           O(Gh)     -1.689525660277     1.648927201239    -1.246246734669
           H(Gh)     -0.758325660277     1.576642201239    -0.983935734669
           H(Gh)     -1.831368660277     2.590713201239    -1.350219734669

  Running in c1 symmetry.

  Nuclear repulsion =  184.329146562963672

  Charge       = 0
  Multiplicity = 1
  Electrons    = 42
  Nalpha       = 21
  Nbeta        = 21

  ==> Algorithm <==

  SCF Algorithm Type is DF.
  DIIS enabled.
  MOM disabled.
  Fractional occupation disabled.
  Guess Type is GWH.
  Energy threshold   = 1.00e-08
  Density threshold  = 1.00e-08
  Integral threshold = 0.00e+00

  ==> Primary Basis <==

  Basis Set: AUG-CC-PVTZ
    Number of shells: 144
    Number of basis function: 418
    Number of Cartesian functions: 479
    Spherical Harmonics?: true
    Max angular momentum: 3

  ==> Pre-Iterations <==

   -------------------------------------------------------
    Irrep   Nso     Nmo     Nalpha   Nbeta   Ndocc  Nsocc
   -------------------------------------------------------
     A        418     418       0       0       0       0
   -------------------------------------------------------
    Total     418     418      21      21      21       0
   -------------------------------------------------------

 OEINTS: Wrapper to libmints.
   by Justin Turney

   Calculation information:
      Number of atoms:                  13
      Number of AO shells:             144
      Number of SO shells:             144
      Number of primitives:            272
      Number of atomic orbitals:       479
      Number of basis functions:       418

      Number of irreps:                  1
      Number of functions per irrep: [ 418 ]

      Overlap, kinetic, potential, dipole, and quadrupole integrals
        stored in file 35.

  ==> Integral Setup <==

  ==> DFJK: Density-Fitted J/K Matrices <==

    J tasked:                  Yes
    K tasked:                  Yes
    wK tasked:                  No
    OpenMP threads:              4
    Integrals threads:           4
    Memory (MB):              5006
    Algorithm:                Core
    Integral Cache:           LOAD
    Schwarz Cutoff:          0E+00
    Fitting Condition:       1E-12

   => Auxiliary Basis Set <=

  Basis Set: aug-cc-pvtz-jkfit
    Number of shells: 274
    Number of basis function: 930
    Number of Cartesian functions: 1144
    Spherical Harmonics?: true
    Max angular momentum: 4

  Minimum eigenvalue in the overlap matrix is 1.6342577276E-05.
  Using Symmetric Orthogonalization.
  SCF Guess: Generalized Wolfsberg-Helmholtz.

  Guess energy:  -358.05782261954886

  ==> Iterations <==

                        Total Energy        Delta E     RMS |[F,P]|

   @RHF iter   1:  -452.35624964552864   -4.52356e+02   9.86704e-02 
   @RHF iter   2:  -511.18986788053581   -5.88336e+01   1.17537e-02 DIIS
   @RHF iter   3:  -470.54910553348617    4.06408e+01   2.95324e-02 DIIS
   @RHF iter   4:  -501.49419855492323   -3.09451e+01   2.04797e-02 DIIS
   @RHF iter   5:  -517.43674878078764   -1.59426e+01   1.71722e-02 DIIS
   @RHF iter   6:  -525.42014908055557   -7.98340e+00   1.51675e-02 DIIS
   @RHF iter   7:  -533.15504835785850   -7.73490e+00   1.26834e-02 DIIS
   @RHF iter   8:  -543.46873071789855   -1.03137e+01   9.03484e-03 DIIS
   @RHF iter   9:  -547.17146436053781   -3.70273e+00   6.40031e-03 DIIS
   @RHF iter  10:  -550.90783676767865   -3.73637e+00   2.57771e-03 DIIS
   @RHF iter  11:  -551.56337364407136   -6.55537e-01   8.52817e-04 DIIS
   @RHF iter  12:  -551.63864402718241   -7.52704e-02   3.49401e-04 DIIS
   @RHF iter  13:  -551.65201757136060   -1.33735e-02   1.05734e-04 DIIS
   @RHF iter  14:  -551.65308824710064   -1.07068e-03   2.94273e-05 DIIS
   @RHF iter  15:  -551.65327623983785   -1.87993e-04   1.01098e-05 DIIS
   @RHF iter  16:  -551.65330341923277   -2.71794e-05   3.22135e-06 DIIS
   @RHF iter  17:  -551.65330611331979   -2.69409e-06   1.07830e-06 DIIS
   @RHF iter  18:  -551.65330645118320   -3.37863e-07   3.81757e-07 DIIS
   @RHF iter  19:  -551.65330650378542   -5.26022e-08   1.22132e-07 DIIS
   @RHF iter  20:  -551.65330650905457   -5.26916e-09   3.47724e-08 DIIS
   @RHF iter  21:  -551.65330650950477   -4.50200e-10   9.11134e-09 DIIS

  ==> Post-Iterations <==

	Orbital Energies (a.u.)
	-----------------------

	Doubly Occupied:                                                      

	   1A    -92.069530     2A    -20.501471     3A    -11.263266  
	   4A    -11.262678     5A     -9.056440     6A     -6.738161  
	   7A     -6.737947     8A     -6.736556     9A     -1.328048  
	  10A     -1.067598    11A     -0.978622    12A     -0.817638  
	  13A     -0.645734    14A     -0.630446    15A     -0.623020  
	  16A     -0.588400    17A     -0.559679    18A     -0.545715  
	  19A     -0.511198    20A     -0.417475    21A     -0.369225  

	Virtual:                                                              

	  22A      0.023783    23A      0.034147    24A      0.040174  
	  25A      0.044067    26A      0.054365    27A      0.061711  
	  28A      0.064740    29A      0.074151    30A      0.090087  
	  31A      0.101006    32A      0.115923    33A      0.117604  
	  34A      0.125513    35A      0.127549    36A      0.131211  
	  37A      0.137525    38A      0.145128    39A      0.150442  
	  40A      0.167954    41A      0.174277    42A      0.182529  
	  43A      0.187807    44A      0.201010    45A      0.203798  
	  46A      0.209618    47A      0.214205    48A      0.216325  
	  49A      0.229250    50A      0.240836    51A      0.252090  
	  52A      0.265420    53A      0.270635    54A      0.285619  
	  55A      0.294471    56A      0.303648    57A      0.317784  
	  58A      0.329697    59A      0.331659    60A      0.336399  
	  61A      0.338696    62A      0.343453    63A      0.353552  
	  64A      0.355394    65A      0.362997    66A      0.373938  
	  67A      0.376847    68A      0.382613    69A      0.388210  
	  70A      0.393504    71A      0.395773    72A      0.407305  
	  73A      0.408610    74A      0.417504    75A      0.421293  
	  76A      0.425365    77A      0.428353    78A      0.432711  
	  79A      0.444065    80A      0.449483    81A      0.460936  
	  82A      0.469161    83A      0.475706    84A      0.481513  
	  85A      0.495678    86A      0.505333    87A      0.512867  
	  88A      0.525675    89A      0.532467    90A      0.541409  
	  91A      0.546489    92A      0.558867    93A      0.564493  
	  94A      0.578484    95A      0.594611    96A      0.605858  
	  97A      0.614742    98A      0.639598    99A      0.654487  
	 100A      0.668427   101A      0.680684   102A      0.690763  
	 103A      0.709385   104A      0.724123   105A      0.744113  
	 106A      0.755158   107A      0.763675   108A      0.769133  
	 109A      0.787900   110A      0.793805   111A      0.810767  
	 112A      0.818969   113A      0.823529   114A      0.830849  
	 115A      0.837652   116A      0.849602   117A      0.855677  
	 118A      0.858931   119A      0.869588   120A      0.882728  
	 121A      0.884156   122A      0.889004   123A      0.893427  
	 124A      0.898057   125A      0.910701   126A      0.920186  
	 127A      0.923279   128A      0.938664   129A      0.946388  
	 130A      0.961633   131A      0.962433   132A      0.976137  
	 133A      0.982860   134A      0.987220   135A      0.999570  
	 136A      1.009319   137A      1.010916   138A      1.028170  
	 139A      1.041848   140A      1.050712   141A      1.053006  
	 142A      1.071073   143A      1.083604   144A      1.097008  
	 145A      1.098948   146A      1.103567   147A      1.120446  
	 148A      1.126258   149A      1.134009   150A      1.143757  
	 151A      1.152624   152A      1.167611   153A      1.172364  
	 154A      1.180561   155A      1.190924   156A      1.199287  
	 157A      1.207142   158A      1.220866   159A      1.233634  
	 160A      1.243576   161A      1.259459   162A      1.270431  
	 163A      1.285805   164A      1.295615   165A      1.309631  
	 166A      1.322111   167A      1.327398   168A      1.342361  
	 169A      1.362157   170A      1.371671   171A      1.392115  
	 172A      1.397107   173A      1.413605   174A      1.416561  
	 175A      1.423352   176A      1.448793   177A      1.453548  
	 178A      1.474618   179A      1.485352   180A      1.489151  
	 181A      1.501671   182A      1.529558   183A      1.548972  
	 184A      1.561319   185A      1.585618   186A      1.595752  
	 187A      1.609563   188A      1.618653   189A      1.623268  
	 190A      1.634078   191A      1.645748   192A      1.658427  
	 193A      1.671556   194A      1.686834   195A      1.696408  
	 196A      1.708060   197A      1.716238   198A      1.720039  
	 199A      1.759632   200A      1.768163   201A      1.772676  
	 202A      1.784163   203A      1.794581   204A      1.801936  
	 205A      1.811285   206A      1.830523   207A      1.831498  
	 208A      1.848416   209A      1.852470   210A      1.858854  
	 211A      1.883646   212A      1.892788   213A      1.910276  
	 214A      1.915562   215A      1.934944   216A      1.976292  
	 217A      1.979197   218A      2.005195   219A      2.020648  
	 220A      2.050847   221A      2.074934   222A      2.083208  
	 223A      2.107033   224A      2.126640   225A      2.139380  
	 226A      2.179271   227A      2.213092   228A      2.217759  
	 229A      2.231902   230A      2.259181   231A      2.292957  
	 232A      2.313498   233A      2.326589   234A      2.345123  
	 235A      2.350879   236A      2.391144   237A      2.411054  
	 238A      2.426353   239A      2.445401   240A      2.453728  
	 241A      2.517450   242A      2.540041   243A      2.569049  
	 244A      2.578747   245A      2.606415   246A      2.613173  
	 247A      2.628149   248A      2.635837   249A      2.648309  
	 250A      2.660646   251A      2.683207   252A      2.706071  
	 253A      2.717211   254A      2.725575   255A      2.745763  
	 256A      2.790240   257A      2.803051   258A      2.834788  
	 259A      2.845368   260A      2.869428   261A      2.887747  
	 262A      2.913367   263A      2.938018   264A      2.981600  
	 265A      3.009199   266A      3.031895   267A      3.080269  
	 268A      3.138692   269A      3.170434   270A      3.194264  
	 271A      3.283823   272A      3.316532   273A      3.385585  
	 274A      3.397913   275A      3.412984   276A      3.453815  
	 277A      3.471786   278A      3.491325   279A      3.502138  
	 280A      3.514635   281A      3.533736   282A      3.570377  
	 283A      3.575522   284A      3.598862   285A      3.610541  
	 286A      3.625202   287A      3.650588   288A      3.663222  
	 289A      3.670116   290A      3.685307   291A      3.700790  
	 292A      3.726191   293A      3.732449   294A      3.752493  
	 295A      3.786993   296A      3.806561   297A      3.824398  
	 298A      3.851921   299A      3.875863   300A      3.908797  
	 301A      3.950217   302A      3.972383   303A      3.990053  
	 304A      4.003434   305A      4.043846   306A      4.058213  
	 307A      4.098997   308A      4.114412   309A      4.127952  
	 310A      4.158907   311A      4.179228   312A      4.188277  
	 313A      4.212396   314A      4.224013   315A      4.266674  
	 316A      4.277677   317A      4.312943   318A      4.381425  
	 319A      4.403598   320A      4.475910   321A      4.482232  
	 322A      4.499942   323A      4.505280   324A      4.535546  
	 325A      4.561655   326A      4.577054   327A      4.590068  
	 328A      4.601439   329A      4.614066   330A      4.683357  
	 331A      4.720926   332A      4.751102   333A      4.763547  
	 334A      4.798305   335A      4.804260   336A      4.818995  
	 337A      4.842310   338A      4.879351   339A      4.927599  
	 340A      4.932840   341A      4.968580   342A      4.991478  
	 343A      5.010207   344A      5.016478   345A      5.035061  
	 346A      5.078663   347A      5.101375   348A      5.134689  
	 349A      5.164908   350A      5.172929   351A      5.187456  
	 352A      5.211311   353A      5.220952   354A      5.258483  
	 355A      5.296080   356A      5.302361   357A      5.335785  
	 358A      5.450443   359A      5.528738   360A      5.533625  
	 361A      5.542656   362A      5.553283   363A      5.637094  
	 364A      5.666999   365A      5.686114   366A      5.715682  
	 367A      5.717819   368A      5.760061   369A      5.794890  
	 370A      5.835521   371A      5.957645   372A      5.998362  
	 373A      6.026641   374A      6.048835   375A      6.074758  
	 376A      6.095857   377A      6.147441   378A      6.295664  
	 379A      6.545070   380A      6.681079   381A      6.695537  
	 382A      6.740404   383A      6.764384   384A      6.838416  
	 385A      6.893557   386A      6.937180   387A      6.963154  
	 388A      6.977708   389A      7.058231   390A      7.112327  
	 391A      7.202674   392A      7.256736   393A      7.363635  
	 394A      7.440887   395A      7.584962   396A      7.649318  
	 397A      7.785983   398A      7.831593   399A      7.948770  
	 400A      8.141392   401A      8.268313   402A      8.387359  
	 403A      8.958651   404A      9.088056   405A      9.451453  
	 406A      9.834178   407A      9.976969   408A     10.123911  
	 409A     10.385831   410A     11.330475   411A     11.814896  
	 412A     12.317927   413A     13.544165   414A     13.861688  
	 415A     14.076255   416A     17.301849   417A     17.468383  
	 418A     66.655062  

	Final Occupation by Irrep:
	          A 
	DOCC [    21 ]

  Energy converged.

  @RHF Final Energy:  -551.65330650950477

   => Energetics <=

    Nuclear Repulsion Energy =            184.3291465629636718
    One-Electron Energy =               -1125.0672093822724946
    Two-Electron Energy =                 389.0847563098039927
    DFT Exchange-Correlation Energy =       0.0000000000000000
    Empirical Dispersion Energy =           0.0000000000000000
    Total Energy =                       -551.6533065095048869



Properties will be evaluated at   0.000000,   0.000000,   0.000000 Bohr
  ==> Properties <==


Properties computed using the SCF density density matrix
  Nuclear Dipole Moment: (a.u.)
     X:    29.9820      Y:   -37.2019      Z:    21.7090

  Electronic Dipole Moment: (a.u.)
     X:   -30.2886      Y:    35.4489      Z:   -21.2245

  Dipole Moment: (a.u.)
     X:    -0.3065      Y:    -1.7530      Z:     0.4845     Total:     1.8444

  Dipole Moment: (Debye)
     X:    -0.7792      Y:    -4.4557      Z:     1.2314     Total:     4.6879


  Saving occupied orbitals to File 180.

  Saving SAPT 2-MONOMER_A file.

*** tstop() called on node36.bme.utexas.edu at Thu Jun  5 12:31:24 2014
Module time:
	user time   =     262.64 seconds =       4.38 minutes
	system time =       3.03 seconds =       0.05 minutes
	total time  =         74 seconds =       1.23 minutes
Total time:
	user time   =     481.81 seconds =       8.03 minutes
	system time =       6.15 seconds =       0.10 minutes
	total time  =        135 seconds =       2.25 minutes

  //>>>>>>>>>>>>>>>>>>>>>>>>>>>>>>>>>>>//
  //            Monomer B HF           //
  //<<<<<<<<<<<<<<<<<<<<<<<<<<<<<<<<<<<//


  No DF_BASIS_SCF auxiliary basis selected, defaulting to aug-cc-pvtz-jkfit


*** tstart() called on node36.bme.utexas.edu
*** at Thu Jun  5 12:31:24 2014


         ---------------------------------------------------------
                                   SCF
            by Justin Turney, Rob Parrish, and Andy Simmonett
                              RHF Reference
                        4 Threads,   7000 MiB Core
         ---------------------------------------------------------

  ==> Geometry <==

    Molecular point group: c1
    Full point group: C1

    Geometry (in Angstrom), charge = 0, multiplicity = 1:

       Center              X                  Y                   Z       
    ------------   -----------------  -----------------  -----------------
           C(Gh)     -0.936832760277    -1.183002398761    -0.209083934669
           O(Gh)      0.677544239723     0.919053601239    -0.287522934669
           S(Gh)      0.269942239723    -0.175154398761     0.666843065331
           C(Gh)      1.607343239723    -1.378464398761     0.615867065331
           H(Gh)     -1.197740760277    -2.047280398761     0.398527065331
           H(Gh)     -1.805228760277    -0.551106398761    -0.376625934669
           H(Gh)     -0.506610760277    -1.481178398761    -1.163212934669
           H(Gh)      1.325419239723    -2.268207398761     1.175345065331
           H(Gh)      1.812595239723    -1.611223398761    -0.427021934669
           H(Gh)      2.474884239723    -0.908563398761     1.070868065331
           O         -1.689525660277     1.648927201239    -1.246246734669
           H         -0.758325660277     1.576642201239    -0.983935734669
           H         -1.831368660277     2.590713201239    -1.350219734669

  Running in c1 symmetry.

  Nuclear repulsion =    9.130321183770553

  Charge       = 0
  Multiplicity = 1
  Electrons    = 10
  Nalpha       = 5
  Nbeta        = 5

  ==> Algorithm <==

  SCF Algorithm Type is DF.
  DIIS enabled.
  MOM disabled.
  Fractional occupation disabled.
  Guess Type is GWH.
  Energy threshold   = 1.00e-08
  Density threshold  = 1.00e-08
  Integral threshold = 0.00e+00

  ==> Primary Basis <==

  Basis Set: AUG-CC-PVTZ
    Number of shells: 144
    Number of basis function: 418
    Number of Cartesian functions: 479
    Spherical Harmonics?: true
    Max angular momentum: 3

  ==> Pre-Iterations <==

   -------------------------------------------------------
    Irrep   Nso     Nmo     Nalpha   Nbeta   Ndocc  Nsocc
   -------------------------------------------------------
     A        418     418       0       0       0       0
   -------------------------------------------------------
    Total     418     418       5       5       5       0
   -------------------------------------------------------

 OEINTS: Wrapper to libmints.
   by Justin Turney

   Calculation information:
      Number of atoms:                  13
      Number of AO shells:             144
      Number of SO shells:             144
      Number of primitives:            272
      Number of atomic orbitals:       479
      Number of basis functions:       418

      Number of irreps:                  1
      Number of functions per irrep: [ 418 ]

      Overlap, kinetic, potential, dipole, and quadrupole integrals
        stored in file 35.

  ==> Integral Setup <==

  ==> DFJK: Density-Fitted J/K Matrices <==

    J tasked:                  Yes
    K tasked:                  Yes
    wK tasked:                  No
    OpenMP threads:              4
    Integrals threads:           4
    Memory (MB):              5006
    Algorithm:                Core
    Integral Cache:           LOAD
    Schwarz Cutoff:          0E+00
    Fitting Condition:       1E-12

   => Auxiliary Basis Set <=

  Basis Set: aug-cc-pvtz-jkfit
    Number of shells: 274
    Number of basis function: 930
    Number of Cartesian functions: 1144
    Spherical Harmonics?: true
    Max angular momentum: 4

  Minimum eigenvalue in the overlap matrix is 1.6342577277E-05.
  Using Symmetric Orthogonalization.
  SCF Guess: Generalized Wolfsberg-Helmholtz.

  Guess energy:   108.02515840020266

  ==> Iterations <==

                        Total Energy        Delta E     RMS |[F,P]|

   @RHF iter   1:   221.29323991602092    2.21293e+02   1.22871e-01 
   @RHF iter   2:   -61.29433138374505   -2.82588e+02   1.93578e-02 DIIS
   @RHF iter   3:   -63.71047350177647   -2.41614e+00   6.97611e-03 DIIS
   @RHF iter   4:   -72.92002848795626   -9.20955e+00   7.84055e-03 DIIS
   @RHF iter   5:   -75.33276828279094   -2.41274e+00   3.39226e-03 DIIS
   @RHF iter   6:   -76.04489927126336   -7.12131e-01   3.64995e-04 DIIS
   @RHF iter   7:   -76.05950656626916   -1.46073e-02   1.00405e-04 DIIS
   @RHF iter   8:   -76.06005051399016   -5.43948e-04   1.99039e-05 DIIS
   @RHF iter   9:   -76.06007634554240   -2.58316e-05   3.51396e-06 DIIS
   @RHF iter  10:   -76.06007742415339   -1.07861e-06   4.30189e-07 DIIS
   @RHF iter  11:   -76.06007745560727   -3.14539e-08   1.13111e-07 DIIS
   @RHF iter  12:   -76.06007745703980   -1.43253e-09   2.53558e-08 DIIS
   @RHF iter  13:   -76.06007745710880   -6.90079e-11   3.05651e-09 DIIS

  ==> Post-Iterations <==

	Orbital Energies (a.u.)
	-----------------------

	Doubly Occupied:                                                      

	   1A    -20.568456     2A     -1.350284     3A     -0.713365  
	   4A     -0.584241     5A     -0.509852  

	Virtual:                                                              

	   6A      0.018829     7A      0.033431     8A      0.038332  
	   9A      0.044022    10A      0.054213    11A      0.060757  
	  12A      0.066928    13A      0.071829    14A      0.082059  
	  15A      0.089833    16A      0.102284    17A      0.108462  
	  18A      0.116277    19A      0.125802    20A      0.132136  
	  21A      0.139399    22A      0.143297    23A      0.150374  
	  24A      0.167151    25A      0.168402    26A      0.180545  
	  27A      0.185423    28A      0.195932    29A      0.199487  
	  30A      0.214698    31A      0.219517    32A      0.233344  
	  33A      0.235653    34A      0.241094    35A      0.254865  
	  36A      0.272312    37A      0.289358    38A      0.290493  
	  39A      0.304257    40A      0.311129    41A      0.313142  
	  42A      0.316111    43A      0.324337    44A      0.331678  
	  45A      0.337969    46A      0.343388    47A      0.356953  
	  48A      0.360197    49A      0.365068    50A      0.374268  
	  51A      0.380066    52A      0.387088    53A      0.392252  
	  54A      0.400993    55A      0.411803    56A      0.427270  
	  57A      0.431298    58A      0.435815    59A      0.444910  
	  60A      0.452740    61A      0.460934    62A      0.466929  
	  63A      0.474480    64A      0.481791    65A      0.494241  
	  66A      0.503747    67A      0.506117    68A      0.517635  
	  69A      0.524791    70A      0.534361    71A      0.543766  
	  72A      0.550047    73A      0.563617    74A      0.569345  
	  75A      0.577192    76A      0.591060    77A      0.596263  
	  78A      0.603527    79A      0.617138    80A      0.621692  
	  81A      0.637243    82A      0.649076    83A      0.656158  
	  84A      0.671031    85A      0.680335    86A      0.690773  
	  87A      0.698940    88A      0.711342    89A      0.714461  
	  90A      0.736548    91A      0.740179    92A      0.748108  
	  93A      0.774197    94A      0.776264    95A      0.787540  
	  96A      0.800305    97A      0.815502    98A      0.833112  
	  99A      0.843198   100A      0.861002   101A      0.880074  
	 102A      0.914106   103A      0.942031   104A      0.949614  
	 105A      0.956641   106A      0.961215   107A      0.969610  
	 108A      0.977833   109A      0.988753   110A      1.002239  
	 111A      1.012477   112A      1.018171   113A      1.025721  
	 114A      1.034548   115A      1.038900   116A      1.048058  
	 117A      1.058722   118A      1.061514   119A      1.069037  
	 120A      1.076711   121A      1.083885   122A      1.100174  
	 123A      1.104631   124A      1.116897   125A      1.118458  
	 126A      1.118781   127A      1.134560   128A      1.139515  
	 129A      1.152825   130A      1.156910   131A      1.161389  
	 132A      1.183916   133A      1.188605   134A      1.198469  
	 135A      1.209137   136A      1.212737   137A      1.233824  
	 138A      1.238497   139A      1.240266   140A      1.254877  
	 141A      1.257772   142A      1.268492   143A      1.272822  
	 144A      1.294157   145A      1.300439   146A      1.307085  
	 147A      1.314260   148A      1.324802   149A      1.342139  
	 150A      1.343821   151A      1.354551   152A      1.366546  
	 153A      1.380952   154A      1.388206   155A      1.399868  
	 156A      1.413896   157A      1.427620   158A      1.441983  
	 159A      1.453769   160A      1.459589   161A      1.473906  
	 162A      1.491089   163A      1.502556   164A      1.516770  
	 165A      1.525545   166A      1.542038   167A      1.552095  
	 168A      1.574117   169A      1.592824   170A      1.599793  
	 171A      1.605440   172A      1.629345   173A      1.651444  
	 174A      1.663636   175A      1.685694   176A      1.697331  
	 177A      1.709531   178A      1.726891   179A      1.743572  
	 180A      1.753462   181A      1.780439   182A      1.785061  
	 183A      1.813429   184A      1.833398   185A      1.855023  
	 186A      1.888150   187A      1.893084   188A      1.919929  
	 189A      1.932647   190A      1.939917   191A      1.941997  
	 192A      1.968252   193A      1.980550   194A      1.996010  
	 195A      1.998472   196A      2.013155   197A      2.019575  
	 198A      2.050651   199A      2.064262   200A      2.083255  
	 201A      2.098809   202A      2.116691   203A      2.130478  
	 204A      2.136590   205A      2.147219   206A      2.166345  
	 207A      2.181945   208A      2.196556   209A      2.211050  
	 210A      2.270620   211A      2.330099   212A      2.383585  
	 213A      2.399991   214A      2.405603   215A      2.410805  
	 216A      2.425501   217A      2.447382   218A      2.452614  
	 219A      2.465447   220A      2.486368   221A      2.493780  
	 222A      2.507297   223A      2.508645   224A      2.528376  
	 225A      2.535272   226A      2.560346   227A      2.570243  
	 228A      2.599883   229A      2.609948   230A      2.629295  
	 231A      2.642587   232A      2.655718   233A      2.685716  
	 234A      2.719578   235A      2.727427   236A      2.755916  
	 237A      2.769564   238A      2.792146   239A      2.833639  
	 240A      2.855059   241A      2.887910   242A      2.895317  
	 243A      2.933569   244A      2.940788   245A      2.972502  
	 246A      2.985868   247A      2.997987   248A      3.021220  
	 249A      3.031704   250A      3.047859   251A      3.070405  
	 252A      3.093479   253A      3.162438   254A      3.242390  
	 255A      3.258632   256A      3.310093   257A      3.428214  
	 258A      3.488429   259A      3.526597   260A      3.536203  
	 261A      3.623100   262A      3.705759   263A      3.829272  
	 264A      3.872387   265A      3.887548   266A      3.907848  
	 267A      3.921101   268A      3.978676   269A      3.994292  
	 270A      4.045269   271A      4.077219   272A      4.096393  
	 273A      4.125891   274A      4.143533   275A      4.152902  
	 276A      4.161200   277A      4.196119   278A      4.205309  
	 279A      4.216999   280A      4.229884   281A      4.238442  
	 282A      4.264909   283A      4.271654   284A      4.279606  
	 285A      4.307789   286A      4.324065   287A      4.331735  
	 288A      4.338047   289A      4.375687   290A      4.444451  
	 291A      4.453131   292A      4.460322   293A      4.481393  
	 294A      4.512128   295A      4.520283   296A      4.530334  
	 297A      4.554758   298A      4.569282   299A      4.586876  
	 300A      4.605530   301A      4.632185   302A      4.646322  
	 303A      4.659731   304A      4.672367   305A      4.693467  
	 306A      4.710540   307A      4.723907   308A      4.741270  
	 309A      4.761015   310A      4.799444   311A      4.839489  
	 312A      4.873974   313A      4.875711   314A      4.900500  
	 315A      4.905612   316A      4.927364   317A      4.941270  
	 318A      4.967502   319A      5.005466   320A      5.043064  
	 321A      5.069057   322A      5.113792   323A      5.148573  
	 324A      5.158017   325A      5.190475   326A      5.218652  
	 327A      5.275787   328A      5.283689   329A      5.299516  
	 330A      5.305553   331A      5.351577   332A      5.352607  
	 333A      5.379767   334A      5.383235   335A      5.405113  
	 336A      5.442716   337A      5.464125   338A      5.489058  
	 339A      5.520082   340A      5.547305   341A      5.568526  
	 342A      5.599892   343A      5.612126   344A      5.619688  
	 345A      5.640908   346A      5.706906   347A      5.730666  
	 348A      5.755901   349A      5.779738   350A      5.782758  
	 351A      5.848927   352A      5.873770   353A      6.084228  
	 354A      6.163060   355A      6.183124   356A      6.197129  
	 357A      6.235952   358A      6.297521   359A      6.312036  
	 360A      6.326762   361A      6.352641   362A      6.380994  
	 363A      6.620044   364A      6.668214   365A      6.691658  
	 366A      6.724332   367A      6.785473   368A      6.833203  
	 369A      7.010185   370A      7.180959   371A      7.208049  
	 372A      7.276650   373A      7.343864   374A      7.367438  
	 375A      7.398421   376A      7.490274   377A      7.508769  
	 378A      7.687920   379A      7.725259   380A      7.764148  
	 381A      7.783479   382A      7.801597   383A      7.829476  
	 384A      7.835486   385A      7.863600   386A      7.887035  
	 387A      7.904920   388A      7.936287   389A      7.951851  
	 390A      8.000309   391A      8.098590   392A      8.164384  
	 393A      8.195118   394A      8.217770   395A      8.292685  
	 396A      8.319776   397A      8.409915   398A      8.905764  
	 399A      9.621402   400A      9.858055   401A     10.058961  
	 402A     10.090897   403A     10.386890   404A     10.456438  
	 405A     10.531819   406A     10.922922   407A     11.621061  
	 408A     11.864103   409A     12.860911   410A     16.736058  
	 411A     17.296146   412A     25.012815   413A     25.648316  
	 414A     25.817032   415A     51.876835   416A     52.195591  
	 417A     61.772949   418A    141.850104  

	Final Occupation by Irrep:
	          A 
	DOCC [     5 ]

  Energy converged.

  @RHF Final Energy:   -76.06007745710880

   => Energetics <=

    Nuclear Repulsion Energy =              9.1303211837705529
    One-Electron Energy =                -122.9283962058944297
    Two-Electron Energy =                  37.7379975650150854
    DFT Exchange-Correlation Energy =       0.0000000000000000
    Empirical Dispersion Energy =           0.0000000000000000
    Total Energy =                        -76.0600774571088039



Properties will be evaluated at   0.000000,   0.000000,   0.000000 Bohr
  ==> Properties <==


Properties computed using the SCF density density matrix
  Nuclear Dipole Moment: (a.u.)
     X:   -30.4357      Y:    32.8033      Z:   -23.2514

  Electronic Dipole Moment: (a.u.)
     X:    30.9570      Y:   -32.2265      Z:    23.3556

  Dipole Moment: (a.u.)
     X:     0.5213      Y:     0.5768      Z:     0.1041     Total:     0.7844

  Dipole Moment: (Debye)
     X:     1.3250      Y:     1.4661      Z:     0.2646     Total:     1.9938


  Saving occupied orbitals to File 180.

  Saving SAPT 2-MONOMER_B file.

*** tstop() called on node36.bme.utexas.edu at Thu Jun  5 12:31:58 2014
Module time:
	user time   =     119.53 seconds =       1.99 minutes
	system time =       1.90 seconds =       0.03 minutes
	total time  =         34 seconds =       0.57 minutes
Total time:
	user time   =     601.38 seconds =      10.02 minutes
	system time =       8.05 seconds =       0.13 minutes
	total time  =        169 seconds =       2.82 minutes
  No DF_BASIS_SAPT auxiliary basis selected, defaulting to aug-cc-pvtz-ri

  //>>>>>>>>>>>>>>>>>>>>>>>>>>>>>>>>>>>//
  //               SAPT2+              //
  //<<<<<<<<<<<<<<<<<<<<<<<<<<<<<<<<<<<//


*** tstart() called on node36.bme.utexas.edu
*** at Thu Jun  5 12:31:58 2014

        SAPT2+  
    Ed Hohenstein
     6 June 2009

      Orbital Information
  --------------------------
    NSO        =       418
    NMO        =       418
    NRI        =       939
    NOCC A     =        21
    NOCC B     =         5
    FOCC A     =         8
    FOCC B     =         1
    NVIR A     =       397
    NVIR B     =       413

    Estimated memory usage: 3086.6 MB

    Elst10,r            =    -0.029597191512 H
    Exch10 (S^2)        =     0.031761668981 H
    Exch10              =     0.032182219732 H
    Ind20,r (A<-B)      =    -0.010456442383 H
    Ind20,r (B<-A)      =    -0.005382816357 H
    Ind20,r             =    -0.015839258740 H
    Exch-Ind20,r (A<-B) =     0.005928244843 H
    Exch-Ind20,r (B<-A) =     0.003548653408 H
    Exch-Ind20,r        =     0.009476898251 H
    Disp20              =    -0.011819105186 H
    Exch-Disp20         =     0.002318432730 H
    Elst12,r            =     0.001923770591 H
    Exch11              =     0.000411546576 H
    Exch12              =     0.003991124500 H
    Ind22               =    -0.002288363777 H
    Disp21              =     0.001072578102 H
    Disp22 (SDQ)        =    -0.000284147784 H

    (i =   1 of   4)       2031 seconds
    (i =   2 of   4)       4099 seconds
    (i =   3 of   4)       6345 seconds
    (i =   4 of   4)       8598 seconds

    Disp220 (T)         =    -0.001101518238 H

    (i =   1 of  13)        501 seconds
    (i =   2 of  13)       1038 seconds
    (i =   3 of  13)       1577 seconds
    (i =   4 of  13)       2121 seconds
    (i =   5 of  13)       2643 seconds
    (i =   6 of  13)       3143 seconds
    (i =   7 of  13)       3648 seconds
    (i =   8 of  13)       4144 seconds
    (i =   9 of  13)       4658 seconds
    (i =  10 of  13)       5191 seconds
    (i =  11 of  13)       5716 seconds
    (i =  12 of  13)       6245 seconds
    (i =  13 of  13)       6616 seconds

    Disp202 (T)         =    -0.001013750925 H

    Disp22 (T)          =    -0.002115269163 H

    SAPT Results  
  -----------------------------------------------------------------------
    Electrostatics         -27.67342092 mH     -17.36533453 kcal mol^-1
      Elst10,r             -29.59719151 mH     -18.57251885 kcal mol^-1
      Elst12,r               1.92377059 mH       1.20718432 kcal mol^-1

    Exchange                36.58489081 mH      22.95736654 kcal mol^-1
      Exch10                32.18221973 mH      20.19464861 kcal mol^-1
      Exch10(S^2)           31.76166898 mH      19.93074902 kcal mol^-1
      Exch11(S^2)            0.41154658 mH       0.25824939 kcal mol^-1
      Exch12(S^2)            3.99112450 mH       2.50446854 kcal mol^-1

    Induction              -11.58803602 mH      -7.27160269 kcal mol^-1
      Ind20,r              -15.83925874 mH      -9.93928533 kcal mol^-1
      Ind22                 -2.28836378 mH      -1.43597001 kcal mol^-1
      Exch-Ind20,r           9.47689825 mH       5.94684368 kcal mol^-1
      Exch-Ind22             1.36916702 mH       0.85916531 kcal mol^-1
      delta HF,r (2)        -4.30647878 mH      -2.70235634 kcal mol^-1

    Dispersion             -10.82751130 mH      -6.79436620 kcal mol^-1
      Disp20               -11.81910519 mH      -7.41660079 kcal mol^-1
      Disp21                 1.07257810 mH       0.67305295 kcal mol^-1
      Disp22 (SDQ)          -0.28414778 mH      -0.17830543 kcal mol^-1
      Disp22 (T)            -2.11526916 mH      -1.32735149 kcal mol^-1
      Exch-Disp20            2.31843273 mH       1.45483856 kcal mol^-1

    Total HF                -8.08381105 mH      -5.07266823 kcal mol^-1
    Total SAPT0            -17.58448350 mH     -11.03443045 kcal mol^-1
    Total SAPT2            -12.17723859 mH      -7.64133290 kcal mol^-1
    Total SAPT2+           -13.50407744 mH      -8.47393688 kcal mol^-1

*** tstop() called on node36.bme.utexas.edu at Thu Jun  5 19:11:35 2014
Module time:
	user time   =   77460.45 seconds =    1291.01 minutes
	system time =     358.51 seconds =       5.98 minutes
	total time  =      23977 seconds =     399.62 minutes
Total time:
	user time   =   78061.84 seconds =    1301.03 minutes
	system time =     366.56 seconds =       6.11 minutes
	total time  =      24146 seconds =     402.43 minutes

*** PSI4 exiting successfully. Buy a developer a beer!
