    -----------------------------------------------------------------------
          PSI4: An Open-Source Ab Initio Electronic Structure Package
                              PSI 4.0.0-beta4 Driver

    J. M. Turney, A. C. Simmonett, R. M. Parrish, E. G. Hohenstein,
    F. A. Evangelista, J. T. Fermann, B. J. Mintz, L. A. Burns, J. J. Wilke,
    M. L. Abrams, N. J. Russ, M. L. Leininger, C. L. Janssen, E. T. Seidl,
    W. D. Allen, H. F. Schaefer, R. A. King, E. F. Valeev, C. D. Sherrill,
    and T. D. Crawford, WIREs Comput. Mol. Sci., (2011) (doi: 10.1002/wcms.93)

                         Additional Contributions by
    A. E. DePrince, M. Saitow, U. Bozkaya, A. Yu. Sokolov
    -----------------------------------------------------------------------

    Process ID:   4549
    PSI4DATADIR: /home/xzhu216/psi4/psi4-install/share/psi

    Using LocalCommunicator (Number of processes = 1)

    Memory level set to 256.000 MB

  ==> Input File <==

--------------------------------------------------------------------------
#psi4
#
memory 7 gb

molecule MeF_Water {
0 1
    F    -0.104451000     0.931588000    -0.417503000
    C    -0.688387000    -0.272700000    -0.040759000
    H     0.091664000    -0.948228000     0.296404000
    H    -1.393724000    -0.079636000     0.761890000
    H    -1.204948000    -0.690896000    -0.899419000
--
0 1
    O     1.973511952     0.051796192     0.136259966
    H     2.793650952     0.539939192     0.049754966
    H     1.301759952     0.670326192    -0.165433034
units angstrom
no_reorient  #important for SAPT in psi4, default
symmetry c1  #important for SAPT in psi4, default
}

set {
basis aug-cc-pVTZ
scf_type DF
freeze_core True
}
energy('sapt2+')
--------------------------------------------------------------------------

  Memory set to   7.000 GiB by Python script.

  //>>>>>>>>>>>>>>>>>>>>>>>>>>>>>>>>>>>//
  //              Dimer HF             //
  //<<<<<<<<<<<<<<<<<<<<<<<<<<<<<<<<<<<//


  No DF_BASIS_SCF auxiliary basis selected, defaulting to aug-cc-pvtz-jkfit


*** tstart() called on node36.bme.utexas.edu
*** at Fri Jun 20 14:59:32 2014


         ---------------------------------------------------------
                                   SCF
            by Justin Turney, Rob Parrish, and Andy Simmonett
                              RHF Reference
                        4 Threads,   7000 MiB Core
         ---------------------------------------------------------

  ==> Geometry <==

    Molecular point group: c1
    Full point group: C1

    Geometry (in Angstrom), charge = 0, multiplicity = 1:

       Center              X                  Y                   Z       
    ------------   -----------------  -----------------  -----------------
           F         -0.544982711412     0.648259259746    -0.298385070651
           C         -1.128918711412    -0.556028740254     0.078358929349
           H         -0.348867711412    -1.231556740254     0.415521929349
           H         -1.834255711412    -0.362964740254     0.881007929349
           H         -1.645479711412    -0.974224740254    -0.780301070651
           O          1.532980240588    -0.231532548254     0.255377895349
           H          2.353119240588     0.256610451746     0.168872895349
           H          0.861228240588     0.386997451746    -0.046315104651

  Running in c1 symmetry.

  Nuclear repulsion =   85.009277837028336

  Charge       = 0
  Multiplicity = 1
  Electrons    = 28
  Nalpha       = 14
  Nbeta        = 14

  ==> Algorithm <==

  SCF Algorithm Type is DF.
  DIIS enabled.
  MOM disabled.
  Fractional occupation disabled.
  Guess Type is CORE.
  Energy threshold   = 1.00e-08
  Density threshold  = 1.00e-08
  Integral threshold = 0.00e+00

  ==> Primary Basis <==

  Basis Set: AUG-CC-PVTZ
    Number of shells: 87
    Number of basis function: 253
    Number of Cartesian functions: 290
    Spherical Harmonics?: true
    Max angular momentum: 3

  ==> Pre-Iterations <==

   -------------------------------------------------------
    Irrep   Nso     Nmo     Nalpha   Nbeta   Ndocc  Nsocc
   -------------------------------------------------------
     A        253     253       0       0       0       0
   -------------------------------------------------------
    Total     253     253      14      14      14       0
   -------------------------------------------------------

 OEINTS: Wrapper to libmints.
   by Justin Turney

   Calculation information:
      Number of atoms:                   8
      Number of AO shells:              87
      Number of SO shells:              87
      Number of primitives:            145
      Number of atomic orbitals:       290
      Number of basis functions:       253

      Number of irreps:                  1
      Number of functions per irrep: [ 253 ]

      Overlap, kinetic, potential, dipole, and quadrupole integrals
        stored in file 35.

  ==> Integral Setup <==

  ==> DFJK: Density-Fitted J/K Matrices <==

    J tasked:                  Yes
    K tasked:                  Yes
    wK tasked:                  No
    OpenMP threads:              4
    Integrals threads:           4
    Memory (MB):              5006
    Algorithm:                Core
    Integral Cache:           SAVE
    Schwarz Cutoff:          0E+00
    Fitting Condition:       1E-12

   => Auxiliary Basis Set <=

  Basis Set: aug-cc-pvtz-jkfit
    Number of shells: 160
    Number of basis function: 542
    Number of Cartesian functions: 668
    Spherical Harmonics?: true
    Max angular momentum: 4

  Minimum eigenvalue in the overlap matrix is 5.9197778565E-05.
  Using Symmetric Orthogonalization.
  SCF Guess: Core (One-Electron) Hamiltonian.

  Guess energy:  -171.28033184348811

  ==> Iterations <==

                        Total Energy        Delta E     RMS |[F,P]|

   @RHF iter   1:  -175.26694743214705   -1.75267e+02   5.12912e-02 
   @RHF iter   2:  -163.18389970761064    1.20830e+01   1.88691e-02 DIIS
   @RHF iter   3:  -196.19294833533911   -3.30090e+01   2.75589e-02 DIIS
   @RHF iter   4:  -207.48255058905386   -1.12896e+01   1.82402e-02 DIIS
   @RHF iter   5:  -212.28511709362328   -4.80257e+00   1.08276e-02 DIIS
   @RHF iter   6:  -214.53112763408808   -2.24601e+00   4.52314e-03 DIIS
   @RHF iter   7:  -215.09936841751880   -5.68241e-01   1.11879e-03 DIIS
   @RHF iter   8:  -215.13917007222022   -3.98017e-02   3.36418e-04 DIIS
   @RHF iter   9:  -215.14234009541769   -3.17002e-03   9.48149e-05 DIIS
   @RHF iter  10:  -215.14259925357294   -2.59158e-04   2.63473e-05 DIIS
   @RHF iter  11:  -215.14263828727820   -3.90337e-05   7.92446e-06 DIIS
   @RHF iter  12:  -215.14264106514213   -2.77786e-06   1.42493e-06 DIIS
   @RHF iter  13:  -215.14264118265277   -1.17511e-07   2.64955e-07 DIIS
   @RHF iter  14:  -215.14264118717790   -4.52513e-09   4.65458e-08 DIIS
   @RHF iter  15:  -215.14264118732655   -1.48646e-10   9.48032e-09 DIIS

  ==> Post-Iterations <==

	Orbital Energies (a.u.)
	-----------------------

	Doubly Occupied:                                                      

	   1A    -26.306997     2A    -20.528995     3A    -11.308453  
	   4A     -1.625557     5A     -1.326744     6A     -0.969632  
	   7A     -0.778212     8A     -0.720540     9A     -0.700682  
	  10A     -0.635839    11A     -0.587570    12A     -0.547879  
	  13A     -0.521106    14A     -0.481571  

	Virtual:                                                              

	  15A      0.029751    16A      0.042848    17A      0.045567  
	  18A      0.053934    19A      0.071663    20A      0.097393  
	  21A      0.119903    22A      0.132789    23A      0.142079  
	  24A      0.167565    25A      0.179944    26A      0.186433  
	  27A      0.197883    28A      0.204837    29A      0.230376  
	  30A      0.240798    31A      0.244191    32A      0.256703  
	  33A      0.287172    34A      0.307540    35A      0.313629  
	  36A      0.317531    37A      0.335629    38A      0.337601  
	  39A      0.346336    40A      0.369033    41A      0.373635  
	  42A      0.392377    43A      0.396605    44A      0.399603  
	  45A      0.416477    46A      0.443219    47A      0.444053  
	  48A      0.458076    49A      0.470683    50A      0.475070  
	  51A      0.489914    52A      0.498137    53A      0.506277  
	  54A      0.522759    55A      0.557579    56A      0.564639  
	  57A      0.619053    58A      0.683649    59A      0.701853  
	  60A      0.720392    61A      0.737243    62A      0.753842  
	  63A      0.759997    64A      0.787463    65A      0.795089  
	  66A      0.812294    67A      0.825013    68A      0.850620  
	  69A      0.870573    70A      0.876598    71A      0.902028  
	  72A      0.919048    73A      0.921008    74A      0.941700  
	  75A      0.948444    76A      0.980218    77A      0.997684  
	  78A      0.999939    79A      1.024298    80A      1.027078  
	  81A      1.031617    82A      1.063767    83A      1.065798  
	  84A      1.074129    85A      1.081454    86A      1.108302  
	  87A      1.128061    88A      1.132499    89A      1.146840  
	  90A      1.161998    91A      1.196824    92A      1.201351  
	  93A      1.217886    94A      1.247199    95A      1.247584  
	  96A      1.291256    97A      1.304221    98A      1.304481  
	  99A      1.360293   100A      1.368746   101A      1.392820  
	 102A      1.470563   103A      1.495825   104A      1.526772  
	 105A      1.537756   106A      1.559178   107A      1.584013  
	 108A      1.594719   109A      1.599643   110A      1.633199  
	 111A      1.655897   112A      1.672909   113A      1.679790  
	 114A      1.703879   115A      1.738808   116A      1.744490  
	 117A      1.756541   118A      1.769931   119A      1.826847  
	 120A      1.841485   121A      1.850556   122A      1.922261  
	 123A      1.946479   124A      2.003114   125A      2.041081  
	 126A      2.061000   127A      2.120683   128A      2.133097  
	 129A      2.142177   130A      2.169572   131A      2.172415  
	 132A      2.215089   133A      2.279351   134A      2.396832  
	 135A      2.432509   136A      2.442703   137A      2.513018  
	 138A      2.561084   139A      2.577016   140A      2.591418  
	 141A      2.629048   142A      2.701003   143A      2.764020  
	 144A      2.828464   145A      2.840945   146A      2.909957  
	 147A      2.919670   148A      2.926723   149A      3.003185  
	 150A      3.035881   151A      3.106287   152A      3.157289  
	 153A      3.180458   154A      3.280674   155A      3.316478  
	 156A      3.374740   157A      3.418790   158A      3.474012  
	 159A      3.495507   160A      3.531245   161A      3.548402  
	 162A      3.586814   163A      3.587878   164A      3.632293  
	 165A      3.633638   166A      3.732431   167A      3.746003  
	 168A      3.801047   169A      3.887657   170A      3.890943  
	 171A      3.932408   172A      4.023045   173A      4.064197  
	 174A      4.067885   175A      4.081629   176A      4.120069  
	 177A      4.137532   178A      4.156939   179A      4.198721  
	 180A      4.241181   181A      4.266329   182A      4.346577  
	 183A      4.351814   184A      4.387098   185A      4.422600  
	 186A      4.506762   187A      4.508929   188A      4.546030  
	 189A      4.608499   190A      4.694113   191A      4.703801  
	 192A      4.738806   193A      4.761676   194A      4.772558  
	 195A      4.819460   196A      4.851575   197A      4.880260  
	 198A      4.920306   199A      4.954122   200A      5.072062  
	 201A      5.077126   202A      5.119640   203A      5.181000  
	 204A      5.195785   205A      5.274354   206A      5.336168  
	 207A      5.343336   208A      5.379214   209A      5.516481  
	 210A      5.618282   211A      5.635864   212A      5.677258  
	 213A      5.684147   214A      5.721128   215A      5.726141  
	 216A      5.796486   217A      5.923669   218A      6.046624  
	 219A      6.147570   220A      6.149530   221A      6.224431  
	 222A      6.511994   223A      6.593179   224A      6.667505  
	 225A      6.695888   226A      6.817984   227A      7.151463  
	 228A      7.225263   229A      7.228293   230A      7.369744  
	 231A      7.420252   232A      7.492628   233A      7.501420  
	 234A      7.633092   235A      7.885549   236A      8.066641  
	 237A      8.180535   238A      8.976163   239A      9.196380  
	 240A      9.244433   241A      9.313642   242A      9.317318  
	 243A      9.423862   244A      9.542930   245A      9.564298  
	 246A      9.638088   247A      9.705575   248A      9.829261  
	 249A     10.002145   250A     10.317190   251A     16.551152  
	 252A     16.880596   253A     17.918013  

	Final Occupation by Irrep:
	          A 
	DOCC [    14 ]

  Energy converged.

  @RHF Final Energy:  -215.14264118732655

   => Energetics <=

    Nuclear Repulsion Energy =             85.0092778370283355
    One-Electron Energy =                -466.2242858363517257
    Two-Electron Energy =                 166.0723668119968863
    DFT Exchange-Correlation Energy =       0.0000000000000000
    Empirical Dispersion Energy =           0.0000000000000000
    Total Energy =                       -215.1426411873265181



Properties will be evaluated at   0.000000,   0.000000,   0.000000 Bohr
  ==> Properties <==


Properties computed using the SCF density density matrix
  Nuclear Dipole Moment: (a.u.)
     X:    -0.0544      Y:    -2.4174      Z:     0.8816

  Electronic Dipole Moment: (a.u.)
     X:    -0.4182      Y:     2.4324      Z:    -0.9388

  Dipole Moment: (a.u.)
     X:    -0.4726      Y:     0.0150      Z:    -0.0572     Total:     0.4763

  Dipole Moment: (Debye)
     X:    -1.2012      Y:     0.0381      Z:    -0.1454     Total:     1.2106


  Saving occupied orbitals to File 180.

  Saving SAPT 2-DIMER file.

*** tstop() called on node36.bme.utexas.edu at Fri Jun 20 14:59:37 2014
Module time:
	user time   =      18.18 seconds =       0.30 minutes
	system time =       0.37 seconds =       0.01 minutes
	total time  =          5 seconds =       0.08 minutes
Total time:
	user time   =      18.18 seconds =       0.30 minutes
	system time =       0.37 seconds =       0.01 minutes
	total time  =          5 seconds =       0.08 minutes

  //>>>>>>>>>>>>>>>>>>>>>>>>>>>>>>>>>>>//
  //            Monomer A HF           //
  //<<<<<<<<<<<<<<<<<<<<<<<<<<<<<<<<<<<//


  No DF_BASIS_SCF auxiliary basis selected, defaulting to aug-cc-pvtz-jkfit


*** tstart() called on node36.bme.utexas.edu
*** at Fri Jun 20 14:59:37 2014


         ---------------------------------------------------------
                                   SCF
            by Justin Turney, Rob Parrish, and Andy Simmonett
                              RHF Reference
                        4 Threads,   7000 MiB Core
         ---------------------------------------------------------

  ==> Geometry <==

    Molecular point group: c1
    Full point group: C1

    Geometry (in Angstrom), charge = 0, multiplicity = 1:

       Center              X                  Y                   Z       
    ------------   -----------------  -----------------  -----------------
           F         -0.544982711412     0.648259259746    -0.298385070651
           C         -1.128918711412    -0.556028740254     0.078358929349
           H         -0.348867711412    -1.231556740254     0.415521929349
           H         -1.834255711412    -0.362964740254     0.881007929349
           H         -1.645479711412    -0.974224740254    -0.780301070651
           O(Gh)      1.532980240588    -0.231532548254     0.255377895349
           H(Gh)      2.353119240588     0.256610451746     0.168872895349
           H(Gh)      0.861228240588     0.386997451746    -0.046315104651

  Running in c1 symmetry.

  Nuclear repulsion =   37.291316429333840

  Charge       = 0
  Multiplicity = 1
  Electrons    = 18
  Nalpha       = 9
  Nbeta        = 9

  ==> Algorithm <==

  SCF Algorithm Type is DF.
  DIIS enabled.
  MOM disabled.
  Fractional occupation disabled.
  Guess Type is CORE.
  Energy threshold   = 1.00e-08
  Density threshold  = 1.00e-08
  Integral threshold = 0.00e+00

  ==> Primary Basis <==

  Basis Set: AUG-CC-PVTZ
    Number of shells: 87
    Number of basis function: 253
    Number of Cartesian functions: 290
    Spherical Harmonics?: true
    Max angular momentum: 3

  ==> Pre-Iterations <==

   -------------------------------------------------------
    Irrep   Nso     Nmo     Nalpha   Nbeta   Ndocc  Nsocc
   -------------------------------------------------------
     A        253     253       0       0       0       0
   -------------------------------------------------------
    Total     253     253       9       9       9       0
   -------------------------------------------------------

 OEINTS: Wrapper to libmints.
   by Justin Turney

   Calculation information:
      Number of atoms:                   8
      Number of AO shells:              87
      Number of SO shells:              87
      Number of primitives:            145
      Number of atomic orbitals:       290
      Number of basis functions:       253

      Number of irreps:                  1
      Number of functions per irrep: [ 253 ]

      Overlap, kinetic, potential, dipole, and quadrupole integrals
        stored in file 35.

  ==> Integral Setup <==

  ==> DFJK: Density-Fitted J/K Matrices <==

    J tasked:                  Yes
    K tasked:                  Yes
    wK tasked:                  No
    OpenMP threads:              4
    Integrals threads:           4
    Memory (MB):              5006
    Algorithm:                Core
    Integral Cache:           LOAD
    Schwarz Cutoff:          0E+00
    Fitting Condition:       1E-12

   => Auxiliary Basis Set <=

  Basis Set: aug-cc-pvtz-jkfit
    Number of shells: 160
    Number of basis function: 542
    Number of Cartesian functions: 668
    Spherical Harmonics?: true
    Max angular momentum: 4

  Minimum eigenvalue in the overlap matrix is 5.9197778565E-05.
  Using Symmetric Orthogonalization.
  SCF Guess: Core (One-Electron) Hamiltonian.

  Guess energy:  -110.65259905319166

  ==> Iterations <==

                        Total Energy        Delta E     RMS |[F,P]|

   @RHF iter   1:  -113.77383167494835   -1.13774e+02   4.01851e-02 
   @RHF iter   2:  -108.93684276529848    4.83699e+00   1.32150e-02 DIIS
   @RHF iter   3:  -127.26023149235638   -1.83234e+01   2.41360e-02 DIIS
   @RHF iter   4:  -131.71438790588962   -4.45416e+00   1.85416e-02 DIIS
   @RHF iter   5:  -135.62347347666326   -3.90909e+00   1.24798e-02 DIIS
   @RHF iter   6:  -138.31593356118341   -2.69246e+00   5.41063e-03 DIIS
   @RHF iter   7:  -138.96951269179024   -6.53579e-01   2.24734e-03 DIIS
   @RHF iter   8:  -139.09448679874734   -1.24974e-01   3.72955e-04 DIIS
   @RHF iter   9:  -139.09715008682903   -2.66329e-03   9.58604e-05 DIIS
   @RHF iter  10:  -139.09746760200431   -3.17515e-04   1.12231e-05 DIIS
   @RHF iter  11:  -139.09747295686776   -5.35486e-06   3.05375e-06 DIIS
   @RHF iter  12:  -139.09747344074643   -4.83879e-07   7.68770e-07 DIIS
   @RHF iter  13:  -139.09747346163118   -2.08848e-08   6.05681e-08 DIIS
   @RHF iter  14:  -139.09747346188342   -2.52243e-10   8.69115e-09 DIIS

  ==> Post-Iterations <==

	Orbital Energies (a.u.)
	-----------------------

	Doubly Occupied:                                                      

	   1A    -26.277118     2A    -11.305780     3A     -1.583541  
	   4A     -0.956337     5A     -0.694102     6A     -0.693835  
	   7A     -0.671531     8A     -0.533092     9A     -0.532541  

	Virtual:                                                              

	  10A      0.027018    11A      0.041287    12A      0.045366  
	  13A      0.050736    14A      0.074581    15A      0.098345  
	  16A      0.118981    17A      0.119172    18A      0.128188  
	  19A      0.155766    20A      0.164621    21A      0.169125  
	  22A      0.201096    23A      0.202389    24A      0.210581  
	  25A      0.244796    26A      0.247676    27A      0.267591  
	  28A      0.290589    29A      0.305938    30A      0.312111  
	  31A      0.320521    32A      0.329285    33A      0.344387  
	  34A      0.345681    35A      0.356509    36A      0.374269  
	  37A      0.380597    38A      0.388787    39A      0.392895  
	  40A      0.397296    41A      0.424855    42A      0.441046  
	  43A      0.446559    44A      0.468398    45A      0.472196  
	  46A      0.484631    47A      0.495371    48A      0.514323  
	  49A      0.521546    50A      0.523360    51A      0.559972  
	  52A      0.631047    53A      0.680708    54A      0.700543  
	  55A      0.739702    56A      0.744398    57A      0.763596  
	  58A      0.773932    59A      0.789175    60A      0.791662  
	  61A      0.817942    62A      0.840800    63A      0.848779  
	  64A      0.858225    65A      0.877365    66A      0.904622  
	  67A      0.905906    68A      0.915933    69A      0.927248  
	  70A      0.965212    71A      0.979704    72A      0.981254  
	  73A      0.982953    74A      1.010872    75A      1.028517  
	  76A      1.034553    77A      1.056639    78A      1.066861  
	  79A      1.083010    80A      1.085530    81A      1.118791  
	  82A      1.128221    83A      1.141289    84A      1.144376  
	  85A      1.168307    86A      1.181257    87A      1.220335  
	  88A      1.227324    89A      1.256897    90A      1.274305  
	  91A      1.301001    92A      1.322756    93A      1.331896  
	  94A      1.367365    95A      1.390495    96A      1.416513  
	  97A      1.457993    98A      1.513941    99A      1.558270  
	 100A      1.574486   101A      1.577230   102A      1.587796  
	 103A      1.613334   104A      1.616120   105A      1.659604  
	 106A      1.682161   107A      1.691483   108A      1.707364  
	 109A      1.736300   110A      1.740671   111A      1.758000  
	 112A      1.768447   113A      1.803014   114A      1.826515  
	 115A      1.848526   116A      1.872084   117A      1.918422  
	 118A      1.926086   119A      1.950030   120A      1.982328  
	 121A      2.035661   122A      2.038656   123A      2.135476  
	 124A      2.148939   125A      2.180108   126A      2.182077  
	 127A      2.206954   128A      2.264985   129A      2.405963  
	 130A      2.539463   131A      2.553546   132A      2.582151  
	 133A      2.598482   134A      2.639797   135A      2.659542  
	 136A      2.749145   137A      2.750962   138A      2.844625  
	 139A      2.886329   140A      2.959013   141A      2.964577  
	 142A      3.019935   143A      3.057753   144A      3.064484  
	 145A      3.144545   146A      3.235846   147A      3.270519  
	 148A      3.287971   149A      3.289368   150A      3.326499  
	 151A      3.415516   152A      3.440836   153A      3.450941  
	 154A      3.481895   155A      3.518936   156A      3.523960  
	 157A      3.552304   158A      3.576723   159A      3.598277  
	 160A      3.599696   161A      3.654306   162A      3.681596  
	 163A      3.726407   164A      3.760689   165A      3.826630  
	 166A      3.837834   167A      3.896719   168A      3.918897  
	 169A      4.006490   170A      4.030181   171A      4.074807  
	 172A      4.097943   173A      4.115765   174A      4.135885  
	 175A      4.255809   176A      4.268783   177A      4.331291  
	 178A      4.420127   179A      4.447349   180A      4.475301  
	 181A      4.538251   182A      4.606505   183A      4.730220  
	 184A      4.730964   185A      4.746033   186A      4.764787  
	 187A      4.802095   188A      4.811273   189A      4.863940  
	 190A      4.886544   191A      4.917578   192A      4.932055  
	 193A      4.993392   194A      5.015241   195A      5.142629  
	 196A      5.179400   197A      5.193073   198A      5.233590  
	 199A      5.282113   200A      5.325552   201A      5.446048  
	 202A      5.537190   203A      5.630413   204A      5.649405  
	 205A      5.666537   206A      5.697260   207A      5.777581  
	 208A      5.817052   209A      5.828133   210A      5.832674  
	 211A      6.018318   212A      6.079602   213A      6.157841  
	 214A      6.181800   215A      6.248028   216A      6.398774  
	 217A      6.601458   218A      6.688513   219A      6.880263  
	 220A      7.000249   221A      7.239960   222A      7.291425  
	 223A      7.740588   224A      7.952057   225A      8.115842  
	 226A      8.283772   227A      8.344141   228A      8.915992  
	 229A      9.054242   230A      9.224264   231A      9.297518  
	 232A      9.355509   233A      9.356627   234A      9.460683  
	 235A      9.575942   236A      9.583025   237A      9.633818  
	 238A      9.717574   239A      9.835264   240A      9.852175  
	 241A      9.910875   242A     10.012901   243A     10.101376  
	 244A     10.332182   245A     10.463968   246A     11.432433  
	 247A     11.744867   248A     12.429798   249A     13.878864  
	 250A     14.020938   251A     16.627035   252A     17.882915  
	 253A     66.763945  

	Final Occupation by Irrep:
	          A 
	DOCC [     9 ]

  Energy converged.

  @RHF Final Energy:  -139.09747346188342

   => Energetics <=

    Nuclear Repulsion Energy =             37.2913164293338397
    One-Electron Energy =                -266.2818325922752365
    Two-Electron Energy =                  89.8930427010580075
    DFT Exchange-Correlation Energy =       0.0000000000000000
    Empirical Dispersion Energy =           0.0000000000000000
    Total Energy =                       -139.0974734618833963



Properties will be evaluated at   0.000000,   0.000000,   0.000000 Bohr
  ==> Properties <==


Properties computed using the SCF density density matrix
  Nuclear Dipole Moment: (a.u.)
     X:   -29.3039      Y:    -0.1334      Z:    -3.2108

  Electronic Dipole Moment: (a.u.)
     X:    28.9590      Y:    -0.5771      Z:     3.4330

  Dipole Moment: (a.u.)
     X:    -0.3449      Y:    -0.7105      Z:     0.2222     Total:     0.8204

  Dipole Moment: (Debye)
     X:    -0.8766      Y:    -1.8058      Z:     0.5648     Total:     2.0853


  Saving occupied orbitals to File 180.

  Saving SAPT 2-MONOMER_A file.

*** tstop() called on node36.bme.utexas.edu at Fri Jun 20 14:59:40 2014
Module time:
	user time   =      11.45 seconds =       0.19 minutes
	system time =       0.21 seconds =       0.00 minutes
	total time  =          3 seconds =       0.05 minutes
Total time:
	user time   =      29.70 seconds =       0.50 minutes
	system time =       0.58 seconds =       0.01 minutes
	total time  =          8 seconds =       0.13 minutes

  //>>>>>>>>>>>>>>>>>>>>>>>>>>>>>>>>>>>//
  //            Monomer B HF           //
  //<<<<<<<<<<<<<<<<<<<<<<<<<<<<<<<<<<<//


  No DF_BASIS_SCF auxiliary basis selected, defaulting to aug-cc-pvtz-jkfit


*** tstart() called on node36.bme.utexas.edu
*** at Fri Jun 20 14:59:40 2014


         ---------------------------------------------------------
                                   SCF
            by Justin Turney, Rob Parrish, and Andy Simmonett
                              RHF Reference
                        4 Threads,   7000 MiB Core
         ---------------------------------------------------------

  ==> Geometry <==

    Molecular point group: c1
    Full point group: C1

    Geometry (in Angstrom), charge = 0, multiplicity = 1:

       Center              X                  Y                   Z       
    ------------   -----------------  -----------------  -----------------
           F(Gh)     -0.544982711412     0.648259259746    -0.298385070651
           C(Gh)     -1.128918711412    -0.556028740254     0.078358929349
           H(Gh)     -0.348867711412    -1.231556740254     0.415521929349
           H(Gh)     -1.834255711412    -0.362964740254     0.881007929349
           H(Gh)     -1.645479711412    -0.974224740254    -0.780301070651
           O          1.532980240588    -0.231532548254     0.255377895349
           H          2.353119240588     0.256610451746     0.168872895349
           H          0.861228240588     0.386997451746    -0.046315104651

  Running in c1 symmetry.

  Nuclear repulsion =    9.169319769108411

  Charge       = 0
  Multiplicity = 1
  Electrons    = 10
  Nalpha       = 5
  Nbeta        = 5

  ==> Algorithm <==

  SCF Algorithm Type is DF.
  DIIS enabled.
  MOM disabled.
  Fractional occupation disabled.
  Guess Type is CORE.
  Energy threshold   = 1.00e-08
  Density threshold  = 1.00e-08
  Integral threshold = 0.00e+00

  ==> Primary Basis <==

  Basis Set: AUG-CC-PVTZ
    Number of shells: 87
    Number of basis function: 253
    Number of Cartesian functions: 290
    Spherical Harmonics?: true
    Max angular momentum: 3

  ==> Pre-Iterations <==

   -------------------------------------------------------
    Irrep   Nso     Nmo     Nalpha   Nbeta   Ndocc  Nsocc
   -------------------------------------------------------
     A        253     253       0       0       0       0
   -------------------------------------------------------
    Total     253     253       5       5       5       0
   -------------------------------------------------------

 OEINTS: Wrapper to libmints.
   by Justin Turney

   Calculation information:
      Number of atoms:                   8
      Number of AO shells:              87
      Number of SO shells:              87
      Number of primitives:            145
      Number of atomic orbitals:       290
      Number of basis functions:       253

      Number of irreps:                  1
      Number of functions per irrep: [ 253 ]

      Overlap, kinetic, potential, dipole, and quadrupole integrals
        stored in file 35.

  ==> Integral Setup <==

  ==> DFJK: Density-Fitted J/K Matrices <==

    J tasked:                  Yes
    K tasked:                  Yes
    wK tasked:                  No
    OpenMP threads:              4
    Integrals threads:           4
    Memory (MB):              5006
    Algorithm:                Core
    Integral Cache:           LOAD
    Schwarz Cutoff:          0E+00
    Fitting Condition:       1E-12

   => Auxiliary Basis Set <=

  Basis Set: aug-cc-pvtz-jkfit
    Number of shells: 160
    Number of basis function: 542
    Number of Cartesian functions: 668
    Spherical Harmonics?: true
    Max angular momentum: 4

  Minimum eigenvalue in the overlap matrix is 5.9197778565E-05.
  Using Symmetric Orthogonalization.
  SCF Guess: Core (One-Electron) Hamiltonian.

  Guess energy:   -60.18791950509801

  ==> Iterations <==

                        Total Energy        Delta E     RMS |[F,P]|

   @RHF iter   1:   -61.29829158393511   -6.12983e+01   3.19387e-02 
   @RHF iter   2:   -62.28816211442120   -9.89871e-01   1.13110e-02 DIIS
   @RHF iter   3:   -72.64428977558191   -1.03561e+01   1.35297e-02 DIIS
   @RHF iter   4:   -75.17238206423907   -2.52809e+00   6.21998e-03 DIIS
   @RHF iter   5:   -76.03731864817905   -8.64937e-01   7.66207e-04 DIIS
   @RHF iter   6:   -76.05971978807835   -2.24011e-02   1.92371e-04 DIIS
   @RHF iter   7:   -76.06043511512411   -7.15327e-04   3.06530e-05 DIIS
   @RHF iter   8:   -76.06045588222450   -2.07671e-05   4.89655e-06 DIIS
   @RHF iter   9:   -76.06045652892426   -6.46700e-07   6.91047e-07 DIIS
   @RHF iter  10:   -76.06045654834199   -1.94177e-08   8.48022e-08 DIIS
   @RHF iter  11:   -76.06045654866791   -3.25926e-10   3.19818e-08 DIIS
   @RHF iter  12:   -76.06045654869702   -2.91038e-11   1.78465e-09 DIIS

  ==> Post-Iterations <==

	Orbital Energies (a.u.)
	-----------------------

	Doubly Occupied:                                                      

	   1A    -20.567842     2A     -1.352491     3A     -0.715280  
	   4A     -0.585394     5A     -0.510230  

	Virtual:                                                              

	   6A      0.022426     7A      0.038696     8A      0.047762  
	   9A      0.051841    10A      0.067269    11A      0.095606  
	  12A      0.106556    13A      0.123691    14A      0.124203  
	  15A      0.154593    16A      0.175198    17A      0.175979  
	  18A      0.193243    19A      0.194090    20A      0.216148  
	  21A      0.236151    22A      0.249397    23A      0.260361  
	  24A      0.278019    25A      0.299849    26A      0.301552  
	  27A      0.304613    28A      0.313978    29A      0.330192  
	  30A      0.345916    31A      0.355488    32A      0.371329  
	  33A      0.381971    34A      0.397040    35A      0.406836  
	  36A      0.410261    37A      0.428895    38A      0.457048  
	  39A      0.459717    40A      0.472357    41A      0.495394  
	  42A      0.509362    43A      0.510253    44A      0.514089  
	  45A      0.527444    46A      0.551951    47A      0.585151  
	  48A      0.599544    49A      0.636718    50A      0.656180  
	  51A      0.667772    52A      0.709920    53A      0.752109  
	  54A      0.762621    55A      0.784981    56A      0.785094  
	  57A      0.844381    58A      0.876047    59A      0.880682  
	  60A      0.910716    61A      0.940053    62A      0.959183  
	  63A      0.972174    64A      0.976672    65A      0.989851  
	  66A      0.994499    67A      1.018012    68A      1.036462  
	  69A      1.040140    70A      1.044859    71A      1.070017  
	  72A      1.071137    73A      1.089322    74A      1.094892  
	  75A      1.113135    76A      1.114572    77A      1.122544  
	  78A      1.125748    79A      1.133130    80A      1.147425  
	  81A      1.163592    82A      1.182156    83A      1.233388  
	  84A      1.237274    85A      1.246752    86A      1.267544  
	  87A      1.296089    88A      1.309978    89A      1.325802  
	  90A      1.328954    91A      1.382039    92A      1.390724  
	  93A      1.400181    94A      1.411247    95A      1.415363  
	  96A      1.496662    97A      1.530043    98A      1.581634  
	  99A      1.583563   100A      1.643774   101A      1.661883  
	 102A      1.676620   103A      1.700922   104A      1.716995  
	 105A      1.783187   106A      1.783489   107A      1.821286  
	 108A      1.833403   109A      1.879100   110A      1.882291  
	 111A      1.916306   112A      1.949460   113A      1.967203  
	 114A      2.000787   115A      2.040814   116A      2.054749  
	 117A      2.086698   118A      2.123604   119A      2.146615  
	 120A      2.212266   121A      2.242707   122A      2.253513  
	 123A      2.327048   124A      2.397334   125A      2.411187  
	 126A      2.424982   127A      2.450891   128A      2.454142  
	 129A      2.464862   130A      2.548929   131A      2.552195  
	 132A      2.597650   133A      2.681056   134A      2.689255  
	 135A      2.711341   136A      2.730772   137A      2.796311  
	 138A      2.824860   139A      2.852500   140A      2.950815  
	 141A      2.969343   142A      3.023217   143A      3.252585  
	 144A      3.317724   145A      3.500333   146A      3.528523  
	 147A      3.604739   148A      3.664151   149A      3.688212  
	 150A      3.774999   151A      3.779606   152A      3.845726  
	 153A      3.854264   154A      3.911575   155A      3.924328  
	 156A      3.995785   157A      4.011537   158A      4.061084  
	 159A      4.062446   160A      4.073852   161A      4.130249  
	 162A      4.147025   163A      4.186683   164A      4.214183  
	 165A      4.245637   166A      4.293371   167A      4.297076  
	 168A      4.368898   169A      4.414215   170A      4.453092  
	 171A      4.473189   172A      4.496537   173A      4.531988  
	 174A      4.547741   175A      4.573876   176A      4.598837  
	 177A      4.625871   178A      4.642581   179A      4.662065  
	 180A      4.704963   181A      4.768708   182A      4.854532  
	 183A      4.857828   184A      4.909635   185A      4.948859  
	 186A      5.052663   187A      5.062339   188A      5.109037  
	 189A      5.175612   190A      5.198343   191A      5.245727  
	 192A      5.295201   193A      5.332987   194A      5.377251  
	 195A      5.382169   196A      5.390892   197A      5.443985  
	 198A      5.478626   199A      5.519530   200A      5.548940  
	 201A      5.680879   202A      5.749580   203A      5.765936  
	 204A      5.875261   205A      5.953163   206A      5.970559  
	 207A      6.173570   208A      6.277052   209A      6.279851  
	 210A      6.310812   211A      6.469468   212A      6.673168  
	 213A      6.768806   214A      6.810211   215A      6.853632  
	 216A      6.887932   217A      7.155513   218A      7.211101  
	 219A      7.214300   220A      7.342370   221A      7.406342  
	 222A      7.462833   223A      7.471848   224A      7.621685  
	 225A      7.767253   226A      7.771065   227A      7.855709  
	 228A      8.036026   229A      8.057673   230A      8.149790  
	 231A      8.211262   232A      8.326659   233A      9.020853  
	 234A     10.393043   235A     10.507948   236A     10.534323  
	 237A     10.645645   238A     10.677199   239A     10.848319  
	 240A     10.981933   241A     11.004646   242A     12.601745  
	 243A     13.102502   244A     13.362997   245A     13.366176  
	 246A     13.751779   247A     14.014469   248A     14.693256  
	 249A     15.135464   250A     16.239234   251A     16.924420  
	 252A     52.872387   253A     77.687160  

	Final Occupation by Irrep:
	          A 
	DOCC [     5 ]

  Energy converged.

  @RHF Final Energy:   -76.06045654869702

   => Energetics <=

    Nuclear Repulsion Energy =              9.1693197691084105
    One-Electron Energy =                -122.9970800205834252
    Two-Electron Energy =                  37.7673037027779230
    DFT Exchange-Correlation Energy =       0.0000000000000000
    Empirical Dispersion Energy =           0.0000000000000000
    Total Energy =                        -76.0604565486970898



Properties will be evaluated at   0.000000,   0.000000,   0.000000 Bohr
  ==> Properties <==


Properties computed using the SCF density density matrix
  Nuclear Dipole Moment: (a.u.)
     X:    29.2495      Y:    -2.2840      Z:     4.0924

  Electronic Dipole Moment: (a.u.)
     X:   -29.1507      Y:     3.0180      Z:    -4.3498

  Dipole Moment: (a.u.)
     X:     0.0988      Y:     0.7340      Z:    -0.2574     Total:     0.7841

  Dipole Moment: (Debye)
     X:     0.2512      Y:     1.8657      Z:    -0.6543     Total:     1.9930


  Saving occupied orbitals to File 180.

  Saving SAPT 2-MONOMER_B file.

*** tstop() called on node36.bme.utexas.edu at Fri Jun 20 14:59:43 2014
Module time:
	user time   =       8.65 seconds =       0.14 minutes
	system time =       0.18 seconds =       0.00 minutes
	total time  =          3 seconds =       0.05 minutes
Total time:
	user time   =      38.36 seconds =       0.64 minutes
	system time =       0.76 seconds =       0.01 minutes
	total time  =         11 seconds =       0.18 minutes
  No DF_BASIS_SAPT auxiliary basis selected, defaulting to aug-cc-pvtz-ri

  //>>>>>>>>>>>>>>>>>>>>>>>>>>>>>>>>>>>//
  //               SAPT2+              //
  //<<<<<<<<<<<<<<<<<<<<<<<<<<<<<<<<<<<//


*** tstart() called on node36.bme.utexas.edu
*** at Fri Jun 20 14:59:43 2014

        SAPT2+  
    Ed Hohenstein
     6 June 2009

      Orbital Information
  --------------------------
    NSO        =       253
    NMO        =       253
    NRI        =       548
    NOCC A     =         9
    NOCC B     =         5
    FOCC A     =         2
    FOCC B     =         1
    NVIR A     =       244
    NVIR B     =       248

    Estimated memory usage: 389.2 MB

    Elst10,r            =    -0.031438041076 H
    Exch10 (S^2)        =     0.059513123756 H
    Exch10              =     0.060735273165 H
    Ind20,r (A<-B)      =    -0.012326834353 H
    Ind20,r (B<-A)      =    -0.014451075920 H
    Ind20,r             =    -0.026777910273 H
    Exch-Ind20,r (A<-B) =     0.005497299758 H
    Exch-Ind20,r (B<-A) =     0.013380589493 H
    Exch-Ind20,r        =     0.018877889251 H
    Disp20              =    -0.014795781796 H
    Exch-Disp20         =     0.003235669852 H
    Elst12,r            =    -0.000440565164 H
    Exch11              =     0.000023140502 H
    Exch12              =     0.006645576856 H
    Ind22               =    -0.003881253141 H
    Disp21              =     0.000779320673 H
    Disp22 (SDQ)        =    -0.000152280576 H

    (i =   1 of   4)         40 seconds
    (i =   2 of   4)         80 seconds
    (i =   3 of   4)        120 seconds
    (i =   4 of   4)        161 seconds

    Disp220 (T)         =    -0.001036589871 H

    (i =   1 of   7)         19 seconds
    (i =   2 of   7)         38 seconds
    (i =   3 of   7)         57 seconds
    (i =   4 of   7)         74 seconds
    (i =   5 of   7)         91 seconds
    (i =   6 of   7)        109 seconds
    (i =   7 of   7)        126 seconds

    Disp202 (T)         =    -0.001092264880 H

    Disp22 (T)          =    -0.002128854751 H

    SAPT Results  
  -----------------------------------------------------------------------
    Electrostatics         -31.87860624 mH     -20.00412826 kcal mol^-1
      Elst10,r             -31.43804108 mH     -19.72766944 kcal mol^-1
      Elst12,r              -0.44056516 mH      -0.27645883 kcal mol^-1

    Exchange                67.40399052 mH      42.29664439 kcal mol^-1
      Exch10                60.73527317 mH      38.11196090 kcal mol^-1
      Exch10(S^2)           59.51312376 mH      37.34505053 kcal mol^-1
      Exch11(S^2)            0.02314050 mH       0.01452089 kcal mol^-1
      Exch12(S^2)            6.64557686 mH       4.17016261 kcal mol^-1

    Induction              -15.15345642 mH      -9.50893786 kcal mol^-1
      Ind20,r              -26.77791027 mH     -16.80339309 kcal mol^-1
      Ind22                 -3.88125314 mH      -2.43552322 kcal mol^-1
      Exch-Ind20,r          18.87788925 mH      11.84605485 kcal mol^-1
      Exch-Ind22             2.73620556 mH       1.71699498 kcal mol^-1
      delta HF,r (2)        -6.10838781 mH      -3.83307138 kcal mol^-1

    Dispersion             -13.06192660 mH      -8.19648303 kcal mol^-1
      Disp20               -14.79578180 mH      -9.28449364 kcal mol^-1
      Disp21                 0.77932067 mH       0.48903113 kcal mol^-1
      Disp22 (SDQ)          -0.15228058 mH      -0.09555751 kcal mol^-1
      Disp22 (T)            -2.12885475 mH      -1.33587658 kcal mol^-1
      Exch-Disp20            3.23566985 mH       2.03041357 kcal mol^-1

    Total HF                15.28882325 mH       9.59388184 kcal mol^-1
    Total SAPT0              3.72871131 mH       2.33980177 kcal mol^-1
    Total SAPT2              8.81181592 mH       5.52949820 kcal mol^-1
    Total SAPT2+             7.31000127 mH       4.58709524 kcal mol^-1

*** tstop() called on node36.bme.utexas.edu at Fri Jun 20 15:07:34 2014
Module time:
	user time   =    1846.40 seconds =      30.77 minutes
	system time =      13.52 seconds =       0.23 minutes
	total time  =        471 seconds =       7.85 minutes
Total time:
	user time   =    1884.77 seconds =      31.41 minutes
	system time =      14.28 seconds =       0.24 minutes
	total time  =        482 seconds =       8.03 minutes

*** PSI4 exiting successfully. Buy a developer a beer!
