    -----------------------------------------------------------------------
          PSI4: An Open-Source Ab Initio Electronic Structure Package
                              PSI 4.0.0-beta4 Driver

    J. M. Turney, A. C. Simmonett, R. M. Parrish, E. G. Hohenstein,
    F. A. Evangelista, J. T. Fermann, B. J. Mintz, L. A. Burns, J. J. Wilke,
    M. L. Abrams, N. J. Russ, M. L. Leininger, C. L. Janssen, E. T. Seidl,
    W. D. Allen, H. F. Schaefer, R. A. King, E. F. Valeev, C. D. Sherrill,
    and T. D. Crawford, WIREs Comput. Mol. Sci., (2011) (doi: 10.1002/wcms.93)

                         Additional Contributions by
    A. E. DePrince, M. Saitow, U. Bozkaya, A. Yu. Sokolov
    -----------------------------------------------------------------------

    Process ID:   5200
    PSI4DATADIR: /home/xzhu216/psi4/psi4-install/share/psi

    Using LocalCommunicator (Number of processes = 1)

    Memory level set to 256.000 MB

  ==> Input File <==

--------------------------------------------------------------------------
#psi4
#
memory 7 gb

molecule MeF_Water {
0 1
    F    -0.104451000     0.931588000    -0.417503000
    C    -0.688387000    -0.272700000    -0.040759000
    H     0.091664000    -0.948228000     0.296404000
    H    -1.393724000    -0.079636000     0.761890000
    H    -1.204948000    -0.690896000    -0.899419000
--
0 1
    O     2.484456334    -0.004382626     0.213700983
    H     3.304595334     0.483760374     0.127195983
    H     1.812704334     0.614147374    -0.087992017
units angstrom
no_reorient  #important for SAPT in psi4, default
symmetry c1  #important for SAPT in psi4, default
}

set {
basis aug-cc-pVTZ
scf_type DF
freeze_core True
}
energy('sapt2+')
--------------------------------------------------------------------------

  Memory set to   7.000 GiB by Python script.

  //>>>>>>>>>>>>>>>>>>>>>>>>>>>>>>>>>>>//
  //              Dimer HF             //
  //<<<<<<<<<<<<<<<<<<<<<<<<<<<<<<<<<<<//


  No DF_BASIS_SCF auxiliary basis selected, defaulting to aug-cc-pvtz-jkfit


*** tstart() called on node36.bme.utexas.edu
*** at Fri Jun 20 15:38:27 2014


         ---------------------------------------------------------
                                   SCF
            by Justin Turney, Rob Parrish, and Andy Simmonett
                              RHF Reference
                        4 Threads,   7000 MiB Core
         ---------------------------------------------------------

  ==> Geometry <==

    Molecular point group: c1
    Full point group: C1

    Geometry (in Angstrom), charge = 0, multiplicity = 1:

       Center              X                  Y                   Z       
    ------------   -----------------  -----------------  -----------------
           F         -0.721841538530     0.667705055043    -0.325190585928
           C         -1.305777538530    -0.536582944957     0.051553414072
           H         -0.525726538530    -1.212110944957     0.388716414072
           H         -2.011114538530    -0.343518944957     0.854202414072
           H         -1.822338538530    -0.954778944957    -0.807106585928
           O          1.867065795470    -0.268265570957     0.306013397072
           H          2.687204795470     0.219877429043     0.219508397072
           H          1.195313795470     0.350264429043     0.004320397072

  Running in c1 symmetry.

  Nuclear repulsion =   78.380028780713431

  Charge       = 0
  Multiplicity = 1
  Electrons    = 28
  Nalpha       = 14
  Nbeta        = 14

  ==> Algorithm <==

  SCF Algorithm Type is DF.
  DIIS enabled.
  MOM disabled.
  Fractional occupation disabled.
  Guess Type is CORE.
  Energy threshold   = 1.00e-08
  Density threshold  = 1.00e-08
  Integral threshold = 0.00e+00

  ==> Primary Basis <==

  Basis Set: AUG-CC-PVTZ
    Number of shells: 87
    Number of basis function: 253
    Number of Cartesian functions: 290
    Spherical Harmonics?: true
    Max angular momentum: 3

  ==> Pre-Iterations <==

   -------------------------------------------------------
    Irrep   Nso     Nmo     Nalpha   Nbeta   Ndocc  Nsocc
   -------------------------------------------------------
     A        253     253       0       0       0       0
   -------------------------------------------------------
    Total     253     253      14      14      14       0
   -------------------------------------------------------

 OEINTS: Wrapper to libmints.
   by Justin Turney

   Calculation information:
      Number of atoms:                   8
      Number of AO shells:              87
      Number of SO shells:              87
      Number of primitives:            145
      Number of atomic orbitals:       290
      Number of basis functions:       253

      Number of irreps:                  1
      Number of functions per irrep: [ 253 ]

      Overlap, kinetic, potential, dipole, and quadrupole integrals
        stored in file 35.

  ==> Integral Setup <==

  ==> DFJK: Density-Fitted J/K Matrices <==

    J tasked:                  Yes
    K tasked:                  Yes
    wK tasked:                  No
    OpenMP threads:              4
    Integrals threads:           4
    Memory (MB):              5006
    Algorithm:                Core
    Integral Cache:           SAVE
    Schwarz Cutoff:          0E+00
    Fitting Condition:       1E-12

   => Auxiliary Basis Set <=

  Basis Set: aug-cc-pvtz-jkfit
    Number of shells: 160
    Number of basis function: 542
    Number of Cartesian functions: 668
    Spherical Harmonics?: true
    Max angular momentum: 4

  Minimum eigenvalue in the overlap matrix is 6.4581706463E-05.
  Using Symmetric Orthogonalization.
  SCF Guess: Core (One-Electron) Hamiltonian.

  Guess energy:  -171.12823441359620

  ==> Iterations <==

                        Total Energy        Delta E     RMS |[F,P]|

   @RHF iter   1:  -175.20281331315880   -1.75203e+02   5.11113e-02 
   @RHF iter   2:  -166.21547032999638    8.98734e+00   1.83839e-02 DIIS
   @RHF iter   3:  -198.05212221670968   -3.18367e+01   2.69534e-02 DIIS
   @RHF iter   4:  -207.74401274720884   -9.69189e+00   1.81183e-02 DIIS
   @RHF iter   5:  -212.32775775861489   -4.58375e+00   1.09034e-02 DIIS
   @RHF iter   6:  -214.62345805618116   -2.29570e+00   4.22820e-03 DIIS
   @RHF iter   7:  -215.12627651208805   -5.02818e-01   9.96149e-04 DIIS
   @RHF iter   8:  -215.15920368201250   -3.29272e-02   2.45535e-04 DIIS
   @RHF iter   9:  -215.16098115520879   -1.77747e-03   8.86841e-05 DIIS
   @RHF iter  10:  -215.16119854570655   -2.17390e-04   2.41721e-05 DIIS
   @RHF iter  11:  -215.16123253900003   -3.39933e-05   6.61731e-06 DIIS
   @RHF iter  12:  -215.16123477120357   -2.23220e-06   1.37708e-06 DIIS
   @RHF iter  13:  -215.16123486257328   -9.13697e-08   2.66889e-07 DIIS
   @RHF iter  14:  -215.16123486657926   -4.00598e-09   4.35085e-08 DIIS
   @RHF iter  15:  -215.16123486670529   -1.26022e-10   8.22881e-09 DIIS

  ==> Post-Iterations <==

	Orbital Energies (a.u.)
	-----------------------

	Doubly Occupied:                                                      

	   1A    -26.292549     2A    -20.552747     3A    -11.307531  
	   4A     -1.600959     5A     -1.340095     6A     -0.961943  
	   7A     -0.731795     8A     -0.705898     9A     -0.687474  
	  10A     -0.676716    11A     -0.578348    12A     -0.540100  
	  13A     -0.536435    14A     -0.497762  

	Virtual:                                                              

	  15A      0.029937    16A      0.040714    17A      0.046222  
	  18A      0.055479    19A      0.071234    20A      0.097604  
	  21A      0.122983    22A      0.130072    23A      0.143021  
	  24A      0.164268    25A      0.177598    26A      0.185225  
	  27A      0.201175    28A      0.202875    29A      0.220143  
	  30A      0.232407    31A      0.236306    32A      0.259387  
	  33A      0.285592    34A      0.302562    35A      0.304640  
	  36A      0.319958    37A      0.322545    38A      0.324766  
	  39A      0.341518    40A      0.358996    41A      0.363781  
	  42A      0.378936    43A      0.385205    44A      0.392404  
	  45A      0.402710    46A      0.433172    47A      0.440576  
	  48A      0.447633    49A      0.464001    50A      0.466156  
	  51A      0.476154    52A      0.486943    53A      0.507140  
	  54A      0.525432    55A      0.525495    56A      0.584315  
	  57A      0.586768    58A      0.656404    59A      0.691292  
	  60A      0.724237    61A      0.738995    62A      0.741534  
	  63A      0.757912    64A      0.770201    65A      0.778607  
	  66A      0.795230    67A      0.814332    68A      0.845038  
	  69A      0.862942    70A      0.894289    71A      0.903242  
	  72A      0.905960    73A      0.920367    74A      0.928035  
	  75A      0.938861    76A      0.955873    77A      0.966786  
	  78A      0.973417    79A      1.001547    80A      1.001738  
	  81A      1.017264    82A      1.025235    83A      1.034550  
	  84A      1.042061    85A      1.064438    86A      1.078209  
	  87A      1.082925    88A      1.098202    89A      1.131793  
	  90A      1.139601    91A      1.142919    92A      1.186622  
	  93A      1.194730    94A      1.221673    95A      1.223388  
	  96A      1.239087    97A      1.249653    98A      1.274969  
	  99A      1.278799   100A      1.300209   101A      1.350175  
	 102A      1.356091   103A      1.410939   104A      1.471144  
	 105A      1.482791   106A      1.536063   107A      1.572284  
	 108A      1.573065   109A      1.601356   110A      1.607124  
	 111A      1.614348   112A      1.627198   113A      1.635250  
	 114A      1.675204   115A      1.675809   116A      1.699387  
	 117A      1.720366   118A      1.745895   119A      1.761588  
	 120A      1.770736   121A      1.873368   122A      1.885804  
	 123A      1.916850   124A      1.976567   125A      1.985730  
	 126A      1.996106   127A      2.052078   128A      2.064089  
	 129A      2.089405   130A      2.099494   131A      2.170157  
	 132A      2.191091   133A      2.264749   134A      2.320145  
	 135A      2.360716   136A      2.387672   137A      2.468299  
	 138A      2.506965   139A      2.515453   140A      2.548102  
	 141A      2.606012   142A      2.624130   143A      2.764069  
	 144A      2.775166   145A      2.804420   146A      2.862549  
	 147A      2.927410   148A      2.939676   149A      2.970376  
	 150A      2.992068   151A      3.036533   152A      3.089696  
	 153A      3.154747   154A      3.199354   155A      3.269084  
	 156A      3.320915   157A      3.346079   158A      3.354795  
	 159A      3.445200   160A      3.481130   161A      3.518493  
	 162A      3.538673   163A      3.557008   164A      3.574911  
	 165A      3.586266   166A      3.683000   167A      3.691470  
	 168A      3.755680   169A      3.815260   170A      3.864362  
	 171A      3.878003   172A      3.916136   173A      3.983559  
	 174A      4.028724   175A      4.051498   176A      4.082068  
	 177A      4.084226   178A      4.104126   179A      4.148332  
	 180A      4.180661   181A      4.194214   182A      4.244028  
	 183A      4.303480   184A      4.364131   185A      4.410532  
	 186A      4.423234   187A      4.445584   188A      4.447423  
	 189A      4.480868   190A      4.505797   191A      4.596217  
	 192A      4.690372   193A      4.739388   194A      4.745233  
	 195A      4.747678   196A      4.782778   197A      4.818792  
	 198A      4.866984   199A      4.914226   200A      4.942479  
	 201A      4.980624   202A      5.025750   203A      5.064231  
	 204A      5.171899   205A      5.196459   206A      5.210200  
	 207A      5.293856   208A      5.306496   209A      5.371300  
	 210A      5.443932   211A      5.555133   212A      5.604039  
	 213A      5.631859   214A      5.661427   215A      5.672424  
	 216A      5.761995   217A      5.768377   218A      6.009091  
	 219A      6.037193   220A      6.138832   221A      6.176227  
	 222A      6.335962   223A      6.578098   224A      6.611994  
	 225A      6.627040   226A      6.782285   227A      7.005313  
	 228A      7.161218   229A      7.165877   230A      7.309902  
	 231A      7.345714   232A      7.365500   233A      7.430445  
	 234A      7.453510   235A      7.717190   236A      8.000499  
	 237A      8.050476   238A      8.862347   239A      9.051233  
	 240A      9.140702   241A      9.218252   242A      9.258682  
	 243A      9.407894   244A      9.418158   245A      9.494007  
	 246A      9.520338   247A      9.606897   248A      9.826005  
	 249A      9.880566   250A      9.961133   251A     15.405293  
	 252A     16.246228   253A     17.600658  

	Final Occupation by Irrep:
	          A 
	DOCC [    14 ]

  Energy converged.

  @RHF Final Energy:  -215.16123486670529

   => Energetics <=

    Nuclear Repulsion Energy =             78.3800287807134310
    One-Electron Energy =                -453.0618226253039893
    Two-Electron Energy =                 159.5205589778849458
    DFT Exchange-Correlation Energy =       0.0000000000000000
    Empirical Dispersion Energy =           0.0000000000000000
    Total Energy =                       -215.1612348667056267



Properties will be evaluated at   0.000000,   0.000000,   0.000000 Bohr
  ==> Properties <==


Properties computed using the SCF density density matrix
  Nuclear Dipole Moment: (a.u.)
     X:     0.2431      Y:    -2.4501      Z:     0.9266

  Electronic Dipole Moment: (a.u.)
     X:    -0.5789      Y:     2.4516      Z:    -0.9637

  Dipole Moment: (a.u.)
     X:    -0.3358      Y:     0.0015      Z:    -0.0371     Total:     0.3378

  Dipole Moment: (Debye)
     X:    -0.8535      Y:     0.0039      Z:    -0.0943     Total:     0.8587


  Saving occupied orbitals to File 180.

  Saving SAPT 2-DIMER file.

*** tstop() called on node36.bme.utexas.edu at Fri Jun 20 15:38:34 2014
Module time:
	user time   =      25.60 seconds =       0.43 minutes
	system time =       0.31 seconds =       0.01 minutes
	total time  =          7 seconds =       0.12 minutes
Total time:
	user time   =      25.60 seconds =       0.43 minutes
	system time =       0.31 seconds =       0.01 minutes
	total time  =          7 seconds =       0.12 minutes

  //>>>>>>>>>>>>>>>>>>>>>>>>>>>>>>>>>>>//
  //            Monomer A HF           //
  //<<<<<<<<<<<<<<<<<<<<<<<<<<<<<<<<<<<//


  No DF_BASIS_SCF auxiliary basis selected, defaulting to aug-cc-pvtz-jkfit


*** tstart() called on node36.bme.utexas.edu
*** at Fri Jun 20 15:38:34 2014


         ---------------------------------------------------------
                                   SCF
            by Justin Turney, Rob Parrish, and Andy Simmonett
                              RHF Reference
                        4 Threads,   7000 MiB Core
         ---------------------------------------------------------

  ==> Geometry <==

    Molecular point group: c1
    Full point group: C1

    Geometry (in Angstrom), charge = 0, multiplicity = 1:

       Center              X                  Y                   Z       
    ------------   -----------------  -----------------  -----------------
           F         -0.721841538530     0.667705055043    -0.325190585928
           C         -1.305777538530    -0.536582944957     0.051553414072
           H         -0.525726538530    -1.212110944957     0.388716414072
           H         -2.011114538530    -0.343518944957     0.854202414072
           H         -1.822338538530    -0.954778944957    -0.807106585928
           O(Gh)      1.867065795470    -0.268265570957     0.306013397072
           H(Gh)      2.687204795470     0.219877429043     0.219508397072
           H(Gh)      1.195313795470     0.350264429043     0.004320397072

  Running in c1 symmetry.

  Nuclear repulsion =   37.291316429333854

  Charge       = 0
  Multiplicity = 1
  Electrons    = 18
  Nalpha       = 9
  Nbeta        = 9

  ==> Algorithm <==

  SCF Algorithm Type is DF.
  DIIS enabled.
  MOM disabled.
  Fractional occupation disabled.
  Guess Type is CORE.
  Energy threshold   = 1.00e-08
  Density threshold  = 1.00e-08
  Integral threshold = 0.00e+00

  ==> Primary Basis <==

  Basis Set: AUG-CC-PVTZ
    Number of shells: 87
    Number of basis function: 253
    Number of Cartesian functions: 290
    Spherical Harmonics?: true
    Max angular momentum: 3

  ==> Pre-Iterations <==

   -------------------------------------------------------
    Irrep   Nso     Nmo     Nalpha   Nbeta   Ndocc  Nsocc
   -------------------------------------------------------
     A        253     253       0       0       0       0
   -------------------------------------------------------
    Total     253     253       9       9       9       0
   -------------------------------------------------------

 OEINTS: Wrapper to libmints.
   by Justin Turney

   Calculation information:
      Number of atoms:                   8
      Number of AO shells:              87
      Number of SO shells:              87
      Number of primitives:            145
      Number of atomic orbitals:       290
      Number of basis functions:       253

      Number of irreps:                  1
      Number of functions per irrep: [ 253 ]

      Overlap, kinetic, potential, dipole, and quadrupole integrals
        stored in file 35.

  ==> Integral Setup <==

  ==> DFJK: Density-Fitted J/K Matrices <==

    J tasked:                  Yes
    K tasked:                  Yes
    wK tasked:                  No
    OpenMP threads:              4
    Integrals threads:           4
    Memory (MB):              5006
    Algorithm:                Core
    Integral Cache:           LOAD
    Schwarz Cutoff:          0E+00
    Fitting Condition:       1E-12

   => Auxiliary Basis Set <=

  Basis Set: aug-cc-pvtz-jkfit
    Number of shells: 160
    Number of basis function: 542
    Number of Cartesian functions: 668
    Spherical Harmonics?: true
    Max angular momentum: 4

  Minimum eigenvalue in the overlap matrix is 6.4581706463E-05.
  Using Symmetric Orthogonalization.
  SCF Guess: Core (One-Electron) Hamiltonian.

  Guess energy:  -110.65012207880460

  ==> Iterations <==

                        Total Energy        Delta E     RMS |[F,P]|

   @RHF iter   1:  -113.78935637656457   -1.13789e+02   4.00222e-02 
   @RHF iter   2:  -108.95881342305620    4.83054e+00   1.31772e-02 DIIS
   @RHF iter   3:  -127.31072326489399   -1.83519e+01   2.40923e-02 DIIS
   @RHF iter   4:  -131.73242899855242   -4.42171e+00   1.85318e-02 DIIS
   @RHF iter   5:  -135.62579577982910   -3.89337e+00   1.24850e-02 DIIS
   @RHF iter   6:  -138.31386120363689   -2.68807e+00   5.42444e-03 DIIS
   @RHF iter   7:  -138.96838604955829   -6.54525e-01   2.26105e-03 DIIS
   @RHF iter   8:  -139.09437758539005   -1.25992e-01   3.75119e-04 DIIS
   @RHF iter   9:  -139.09707114634247   -2.69356e-03   9.58023e-05 DIIS
   @RHF iter  10:  -139.09738638095271   -3.15235e-04   1.12677e-05 DIIS
   @RHF iter  11:  -139.09739159143308   -5.21048e-06   3.05132e-06 DIIS
   @RHF iter  12:  -139.09739207117448   -4.79741e-07   7.54586e-07 DIIS
   @RHF iter  13:  -139.09739209186810   -2.06936e-08   5.99186e-08 DIIS
   @RHF iter  14:  -139.09739209212225   -2.54147e-10   8.50973e-09 DIIS

  ==> Post-Iterations <==

	Orbital Energies (a.u.)
	-----------------------

	Doubly Occupied:                                                      

	   1A    -26.277162     2A    -11.305790     3A     -1.583586  
	   4A     -0.956358     5A     -0.694112     6A     -0.693866  
	   7A     -0.671560     8A     -0.533107     9A     -0.532565  

	Virtual:                                                              

	  10A      0.026911    11A      0.040047    12A      0.045603  
	  13A      0.051244    14A      0.073742    15A      0.099054  
	  16A      0.116902    17A      0.122278    18A      0.128281  
	  19A      0.152222    20A      0.160940    21A      0.164790  
	  22A      0.192575    23A      0.203069    24A      0.208422  
	  25A      0.236784    26A      0.242376    27A      0.264484  
	  28A      0.293474    29A      0.299468    30A      0.305814  
	  31A      0.323374    32A      0.327524    33A      0.333330  
	  34A      0.340909    35A      0.347488    36A      0.362328  
	  37A      0.375918    38A      0.378794    39A      0.384146  
	  40A      0.394246    41A      0.413351    42A      0.437848  
	  43A      0.441989    44A      0.463385    45A      0.463780  
	  46A      0.467395    47A      0.483244    48A      0.499446  
	  49A      0.515379    50A      0.522346    51A      0.575598  
	  52A      0.628428    53A      0.655573    54A      0.669546  
	  55A      0.712536    56A      0.720893    57A      0.753672  
	  58A      0.777421    59A      0.788256    60A      0.798817  
	  61A      0.820985    62A      0.831231    63A      0.842191  
	  64A      0.853229    65A      0.877429    66A      0.898085  
	  67A      0.902955    68A      0.907198    69A      0.917008  
	  70A      0.941165    71A      0.956748    72A      0.960541  
	  73A      0.968898    74A      0.978949    75A      1.007529  
	  76A      1.013417    77A      1.036682    78A      1.041500  
	  79A      1.053307    80A      1.062690    81A      1.081754  
	  82A      1.081902    83A      1.093298    84A      1.116863  
	  85A      1.135398    86A      1.149960    87A      1.198649  
	  88A      1.204226    89A      1.234537    90A      1.238706  
	  91A      1.257149    92A      1.257776    93A      1.275683  
	  94A      1.300498    95A      1.307136    96A      1.346379  
	  97A      1.404844    98A      1.426234    99A      1.491687  
	 100A      1.512978   101A      1.536317   102A      1.572670  
	 103A      1.589959   104A      1.605420   105A      1.633724  
	 106A      1.660423   107A      1.668888   108A      1.673741  
	 109A      1.696038   110A      1.701984   111A      1.742056  
	 112A      1.753972   113A      1.768840   114A      1.773844  
	 115A      1.797344   116A      1.826843   117A      1.827893  
	 118A      1.898290   119A      1.917286   120A      1.917559  
	 121A      1.999175   122A      2.017701   123A      2.060889  
	 124A      2.097242   125A      2.132843   126A      2.170221  
	 127A      2.184221   128A      2.237663   129A      2.304624  
	 130A      2.468853   131A      2.498243   132A      2.551890  
	 133A      2.560612   134A      2.581678   135A      2.591314  
	 136A      2.656549   137A      2.673998   138A      2.778584  
	 139A      2.843657   140A      2.917635   141A      2.985268  
	 142A      3.003402   143A      3.051715   144A      3.094374  
	 145A      3.147687   146A      3.196724   147A      3.203488  
	 148A      3.220781   149A      3.254621   150A      3.281010  
	 151A      3.328874   152A      3.340499   153A      3.364346  
	 154A      3.370787   155A      3.465990   156A      3.466597  
	 157A      3.515941   158A      3.528810   159A      3.560316  
	 160A      3.566452   161A      3.588514   162A      3.597639  
	 163A      3.626773   164A      3.709623   165A      3.739051  
	 166A      3.765114   167A      3.807803   168A      3.868172  
	 169A      3.882410   170A      3.914283   171A      4.031693  
	 172A      4.064892   173A      4.086825   174A      4.101412  
	 175A      4.176044   176A      4.229918   177A      4.244134  
	 178A      4.421515   179A      4.436508   180A      4.443849  
	 181A      4.509415   182A      4.549173   183A      4.630914  
	 184A      4.653522   185A      4.708497   186A      4.737495  
	 187A      4.746789   188A      4.766623   189A      4.789150  
	 190A      4.817337   191A      4.892450   192A      4.893150  
	 193A      4.933802   194A      4.955078   195A      4.967231  
	 196A      5.044006   197A      5.060620   198A      5.074937  
	 199A      5.185797   200A      5.290272   201A      5.324419  
	 202A      5.402572   203A      5.568252   204A      5.633283  
	 205A      5.644235   206A      5.652043   207A      5.661873  
	 208A      5.670004   209A      5.691566   210A      5.770926  
	 211A      5.913890   212A      5.987646   213A      6.062310  
	 214A      6.143033   215A      6.143827   216A      6.275958  
	 217A      6.539101   218A      6.582205   219A      6.633743  
	 220A      6.776803   221A      7.130065   222A      7.190569  
	 223A      7.718537   224A      7.876484   225A      8.059928  
	 226A      8.187924   227A      8.299830   228A      8.822992  
	 229A      8.927707   230A      9.072177   231A      9.177683  
	 232A      9.233510   233A      9.276827   234A      9.428274  
	 235A      9.435242   236A      9.513314   237A      9.533546  
	 238A      9.622769   239A      9.756182   240A      9.839584  
	 241A      9.868982   242A      9.899205   243A      9.973277  
	 244A     10.045307   245A     10.336785   246A     11.287010  
	 247A     11.665100   248A     12.181813   249A     13.670298  
	 250A     13.936888   251A     15.424458   252A     17.602746  
	 253A     65.536124  

	Final Occupation by Irrep:
	          A 
	DOCC [     9 ]

  Energy converged.

  @RHF Final Energy:  -139.09739209212225

   => Energetics <=

    Nuclear Repulsion Energy =             37.2913164293338539
    One-Electron Energy =                -266.2812077462398292
    Two-Electron Energy =                  89.8924992247833927
    DFT Exchange-Correlation Energy =       0.0000000000000000
    Empirical Dispersion Energy =           0.0000000000000000
    Total Energy =                       -139.0973920921225897



Properties will be evaluated at   0.000000,   0.000000,   0.000000 Bohr
  ==> Properties <==


Properties computed using the SCF density density matrix
  Nuclear Dipole Moment: (a.u.)
     X:   -35.3198      Y:     0.5281      Z:    -4.1226

  Electronic Dipole Moment: (a.u.)
     X:    34.9747      Y:    -1.2388      Z:     4.3449

  Dipole Moment: (a.u.)
     X:    -0.3451      Y:    -0.7108      Z:     0.2223     Total:     0.8208

  Dipole Moment: (Debye)
     X:    -0.8771      Y:    -1.8066      Z:     0.5650     Total:     2.0862


  Saving occupied orbitals to File 180.

  Saving SAPT 2-MONOMER_A file.

*** tstop() called on node36.bme.utexas.edu at Fri Jun 20 15:38:39 2014
Module time:
	user time   =      18.64 seconds =       0.31 minutes
	system time =       0.18 seconds =       0.00 minutes
	total time  =          5 seconds =       0.08 minutes
Total time:
	user time   =      44.26 seconds =       0.74 minutes
	system time =       0.49 seconds =       0.01 minutes
	total time  =         12 seconds =       0.20 minutes

  //>>>>>>>>>>>>>>>>>>>>>>>>>>>>>>>>>>>//
  //            Monomer B HF           //
  //<<<<<<<<<<<<<<<<<<<<<<<<<<<<<<<<<<<//


  No DF_BASIS_SCF auxiliary basis selected, defaulting to aug-cc-pvtz-jkfit


*** tstart() called on node36.bme.utexas.edu
*** at Fri Jun 20 15:38:39 2014


         ---------------------------------------------------------
                                   SCF
            by Justin Turney, Rob Parrish, and Andy Simmonett
                              RHF Reference
                        4 Threads,   7000 MiB Core
         ---------------------------------------------------------

  ==> Geometry <==

    Molecular point group: c1
    Full point group: C1

    Geometry (in Angstrom), charge = 0, multiplicity = 1:

       Center              X                  Y                   Z       
    ------------   -----------------  -----------------  -----------------
           F(Gh)     -0.721841538530     0.667705055043    -0.325190585928
           C(Gh)     -1.305777538530    -0.536582944957     0.051553414072
           H(Gh)     -0.525726538530    -1.212110944957     0.388716414072
           H(Gh)     -2.011114538530    -0.343518944957     0.854202414072
           H(Gh)     -1.822338538530    -0.954778944957    -0.807106585928
           O          1.867065795470    -0.268265570957     0.306013397072
           H          2.687204795470     0.219877429043     0.219508397072
           H          1.195313795470     0.350264429043     0.004320397072

  Running in c1 symmetry.

  Nuclear repulsion =    9.169319769108418

  Charge       = 0
  Multiplicity = 1
  Electrons    = 10
  Nalpha       = 5
  Nbeta        = 5

  ==> Algorithm <==

  SCF Algorithm Type is DF.
  DIIS enabled.
  MOM disabled.
  Fractional occupation disabled.
  Guess Type is CORE.
  Energy threshold   = 1.00e-08
  Density threshold  = 1.00e-08
  Integral threshold = 0.00e+00

  ==> Primary Basis <==

  Basis Set: AUG-CC-PVTZ
    Number of shells: 87
    Number of basis function: 253
    Number of Cartesian functions: 290
    Spherical Harmonics?: true
    Max angular momentum: 3

  ==> Pre-Iterations <==

   -------------------------------------------------------
    Irrep   Nso     Nmo     Nalpha   Nbeta   Ndocc  Nsocc
   -------------------------------------------------------
     A        253     253       0       0       0       0
   -------------------------------------------------------
    Total     253     253       5       5       5       0
   -------------------------------------------------------

 OEINTS: Wrapper to libmints.
   by Justin Turney

   Calculation information:
      Number of atoms:                   8
      Number of AO shells:              87
      Number of SO shells:              87
      Number of primitives:            145
      Number of atomic orbitals:       290
      Number of basis functions:       253

      Number of irreps:                  1
      Number of functions per irrep: [ 253 ]

      Overlap, kinetic, potential, dipole, and quadrupole integrals
        stored in file 35.

  ==> Integral Setup <==

  ==> DFJK: Density-Fitted J/K Matrices <==

    J tasked:                  Yes
    K tasked:                  Yes
    wK tasked:                  No
    OpenMP threads:              4
    Integrals threads:           4
    Memory (MB):              5006
    Algorithm:                Core
    Integral Cache:           LOAD
    Schwarz Cutoff:          0E+00
    Fitting Condition:       1E-12

   => Auxiliary Basis Set <=

  Basis Set: aug-cc-pvtz-jkfit
    Number of shells: 160
    Number of basis function: 542
    Number of Cartesian functions: 668
    Spherical Harmonics?: true
    Max angular momentum: 4

  Minimum eigenvalue in the overlap matrix is 6.4581706463E-05.
  Using Symmetric Orthogonalization.
  SCF Guess: Core (One-Electron) Hamiltonian.

  Guess energy:   -60.18692699731758

  ==> Iterations <==

                        Total Energy        Delta E     RMS |[F,P]|

   @RHF iter   1:   -61.30645644474047   -6.13065e+01   3.18292e-02 
   @RHF iter   2:   -62.25382372177810   -9.47367e-01   1.13198e-02 DIIS
   @RHF iter   3:   -72.65621641628042   -1.04024e+01   1.35076e-02 DIIS
   @RHF iter   4:   -75.18075579720444   -2.52454e+00   6.18788e-03 DIIS
   @RHF iter   5:   -76.03833750980195   -8.57582e-01   7.45076e-04 DIIS
   @RHF iter   6:   -76.05968286091843   -2.13454e-02   1.92139e-04 DIIS
   @RHF iter   7:   -76.06039676502969   -7.13904e-04   3.03645e-05 DIIS
   @RHF iter   8:   -76.06041719862530   -2.04336e-05   4.81162e-06 DIIS
   @RHF iter   9:   -76.06041782610122   -6.27476e-07   6.88314e-07 DIIS
   @RHF iter  10:   -76.06041784536581   -1.92646e-08   8.38068e-08 DIIS
   @RHF iter  11:   -76.06041784568747   -3.21663e-10   3.12768e-08 DIIS
   @RHF iter  12:   -76.06041784571656   -2.90896e-11   2.17276e-09 DIIS

  ==> Post-Iterations <==

	Orbital Energies (a.u.)
	-----------------------

	Doubly Occupied:                                                      

	   1A    -20.567882     2A     -1.352519     3A     -0.715301  
	   4A     -0.585407     5A     -0.510253  

	Virtual:                                                              

	   6A      0.022345     7A      0.037961     8A      0.047640  
	   9A      0.053650    10A      0.065573    11A      0.094504  
	  12A      0.105277    13A      0.121282    14A      0.124835  
	  15A      0.154690    16A      0.173748    17A      0.174938  
	  18A      0.193766    19A      0.194813    20A      0.206229  
	  21A      0.226281    22A      0.250679    23A      0.253181  
	  24A      0.276452    25A      0.291250    26A      0.295740  
	  27A      0.300157    28A      0.308084    29A      0.323244  
	  30A      0.335178    31A      0.344164    32A      0.359702  
	  33A      0.378430    34A      0.381338    35A      0.396267  
	  36A      0.399843    37A      0.424749    38A      0.441704  
	  39A      0.456288    40A      0.464834    41A      0.481399  
	  42A      0.495096    43A      0.498526    44A      0.509208  
	  45A      0.528602    46A      0.557778    47A      0.568467  
	  48A      0.603107    49A      0.634292    50A      0.662836  
	  51A      0.676109    52A      0.688485    53A      0.743907  
	  54A      0.752134    55A      0.763811    56A      0.765411  
	  57A      0.846113    58A      0.856489    59A      0.864237  
	  60A      0.883188    61A      0.929149    62A      0.947887  
	  63A      0.954855    64A      0.961635    65A      0.973917  
	  66A      0.979343    67A      0.984001    68A      1.005795  
	  69A      1.018666    70A      1.020025    71A      1.041388  
	  72A      1.047160    73A      1.061219    74A      1.063957  
	  75A      1.073847    76A      1.084573    77A      1.095440  
	  78A      1.113847    79A      1.117238    80A      1.124759  
	  81A      1.140785    82A      1.163058    83A      1.185605  
	  84A      1.211264    85A      1.231982    86A      1.243245  
	  87A      1.248893    88A      1.249279    89A      1.281223  
	  90A      1.301547    91A      1.314957    92A      1.324924  
	  93A      1.341773    94A      1.385581    95A      1.389503  
	  96A      1.429332    97A      1.458303    98A      1.496131  
	  99A      1.544568   100A      1.598898   101A      1.613559  
	 102A      1.620678   103A      1.632651   104A      1.688014  
	 105A      1.711028   106A      1.734192   107A      1.798555  
	 108A      1.799605   109A      1.822509   110A      1.846850  
	 111A      1.897628   112A      1.914530   113A      1.920804  
	 114A      1.980704   115A      1.995290   116A      2.025493  
	 117A      2.052631   118A      2.097601   119A      2.117388  
	 120A      2.150515   121A      2.233031   122A      2.233901  
	 123A      2.307869   124A      2.317755   125A      2.346479  
	 126A      2.382714   127A      2.384522   128A      2.423979  
	 129A      2.444907   130A      2.490018   131A      2.504292  
	 132A      2.516108   133A      2.593184   134A      2.600454  
	 135A      2.693599   136A      2.712343   137A      2.719997  
	 138A      2.764282   139A      2.817007   140A      2.910671  
	 141A      2.932855   142A      2.934912   143A      3.250913  
	 144A      3.303292   145A      3.431950   146A      3.439779  
	 147A      3.555382   148A      3.635600   149A      3.674415  
	 150A      3.691865   151A      3.794778   152A      3.801248  
	 153A      3.809686   154A      3.870973   155A      3.907882  
	 156A      3.941859   157A      3.986388   158A      4.010845  
	 159A      4.037127   160A      4.051441   161A      4.087294  
	 162A      4.105334   163A      4.121029   164A      4.162389  
	 165A      4.188763   166A      4.194139   167A      4.259789  
	 168A      4.267101   169A      4.299190   170A      4.341278  
	 171A      4.403584   172A      4.420497   173A      4.426848  
	 174A      4.475733   175A      4.492293   176A      4.497020  
	 177A      4.541952   178A      4.590692   179A      4.592541  
	 180A      4.659600   181A      4.727360   182A      4.753633  
	 183A      4.798128   184A      4.834654   185A      4.886363  
	 186A      4.959949   187A      4.981720   188A      5.034910  
	 189A      5.067656   190A      5.152696   191A      5.160051  
	 192A      5.184359   193A      5.250162   194A      5.312438  
	 195A      5.316412   196A      5.354898   197A      5.385837  
	 198A      5.405921   199A      5.451102   200A      5.480375  
	 201A      5.490695   202A      5.515082   203A      5.546966  
	 204A      5.761039   205A      5.892232   206A      5.948578  
	 207A      6.001754   208A      6.264065   209A      6.271006  
	 210A      6.273883   211A      6.300968   212A      6.592852  
	 213A      6.748415   214A      6.785764   215A      6.809162  
	 216A      6.873500   217A      7.003668   218A      7.150520  
	 219A      7.182036   220A      7.297906   221A      7.334330  
	 222A      7.345946   223A      7.417344   224A      7.440395  
	 225A      7.679948   226A      7.750242   227A      7.796327  
	 228A      7.916518   229A      7.998963   230A      8.068052  
	 231A      8.140874   232A      8.213833   233A      8.872556  
	 234A     10.299735   235A     10.364553   236A     10.443026  
	 237A     10.572692   238A     10.606289   239A     10.805041  
	 240A     10.844385   241A     10.932938   242A     12.083740  
	 243A     13.096213   244A     13.124123   245A     13.355928  
	 246A     13.458179   247A     13.793514   248A     14.654356  
	 249A     15.022350   250A     16.160549   251A     16.279256  
	 252A     52.508078   253A     75.332940  

	Final Occupation by Irrep:
	          A 
	DOCC [     5 ]

  Energy converged.

  @RHF Final Energy:   -76.06041784571656

   => Energetics <=

    Nuclear Repulsion Energy =              9.1693197691084176
    One-Electron Energy =                -122.9967489349120768
    Two-Electron Energy =                  37.7670113200871214
    DFT Exchange-Correlation Energy =       0.0000000000000000
    Empirical Dispersion Energy =           0.0000000000000000
    Total Energy =                        -76.0604178457165432



Properties will be evaluated at   0.000000,   0.000000,   0.000000 Bohr
  ==> Properties <==


Properties computed using the SCF density density matrix
  Nuclear Dipole Moment: (a.u.)
     X:    35.5628      Y:    -2.9782      Z:     5.0492

  Electronic Dipole Moment: (a.u.)
     X:   -35.4639      Y:     3.7123      Z:    -5.3067

  Dipole Moment: (a.u.)
     X:     0.0989      Y:     0.7341      Z:    -0.2575     Total:     0.7842

  Dipole Moment: (Debye)
     X:     0.2514      Y:     1.8659      Z:    -0.6544     Total:     1.9933


  Saving occupied orbitals to File 180.

  Saving SAPT 2-MONOMER_B file.

*** tstop() called on node36.bme.utexas.edu at Fri Jun 20 15:38:43 2014
Module time:
	user time   =      15.15 seconds =       0.25 minutes
	system time =       0.14 seconds =       0.00 minutes
	total time  =          4 seconds =       0.07 minutes
Total time:
	user time   =      59.42 seconds =       0.99 minutes
	system time =       0.63 seconds =       0.01 minutes
	total time  =         16 seconds =       0.27 minutes
  No DF_BASIS_SAPT auxiliary basis selected, defaulting to aug-cc-pvtz-ri

  //>>>>>>>>>>>>>>>>>>>>>>>>>>>>>>>>>>>//
  //               SAPT2+              //
  //<<<<<<<<<<<<<<<<<<<<<<<<<<<<<<<<<<<//


*** tstart() called on node36.bme.utexas.edu
*** at Fri Jun 20 15:38:43 2014

        SAPT2+  
    Ed Hohenstein
     6 June 2009

      Orbital Information
  --------------------------
    NSO        =       253
    NMO        =       253
    NRI        =       548
    NOCC A     =         9
    NOCC B     =         5
    FOCC A     =         2
    FOCC B     =         1
    NVIR A     =       244
    NVIR B     =       248

    Estimated memory usage: 389.2 MB

    Elst10,r            =    -0.009461605566 H
    Exch10 (S^2)        =     0.008284006686 H
    Exch10              =     0.008311643779 H
    Ind20,r (A<-B)      =    -0.001834156453 H
    Ind20,r (B<-A)      =    -0.001404258706 H
    Ind20,r             =    -0.003238415160 H
    Exch-Ind20,r (A<-B) =     0.000681035002 H
    Exch-Ind20,r (B<-A) =     0.001128646947 H
    Exch-Ind20,r        =     0.001809681949 H
    Disp20              =    -0.004352070596 H
    Exch-Disp20         =     0.000574919580 H
    Elst12,r            =     0.000270149471 H
    Exch11              =     0.000012406029 H
    Exch12              =     0.001484647585 H
    Ind22               =    -0.000523364682 H
    Disp21              =     0.000086901934 H
    Disp22 (SDQ)        =    -0.000039137249 H

    (i =   1 of   4)         40 seconds
    (i =   2 of   4)         80 seconds
    (i =   3 of   4)        120 seconds
    (i =   4 of   4)        160 seconds

    Disp220 (T)         =    -0.000344278500 H

    (i =   1 of   7)         21 seconds
    (i =   2 of   7)         43 seconds
    (i =   3 of   7)         65 seconds
    (i =   4 of   7)         86 seconds
    (i =   5 of   7)        108 seconds
    (i =   6 of   7)        130 seconds
    (i =   7 of   7)        151 seconds

    Disp202 (T)         =    -0.000360174594 H

    Disp22 (T)          =    -0.000704453094 H

    SAPT Results  
  -----------------------------------------------------------------------
    Electrostatics          -9.19145609 mH      -5.76772602 kcal mol^-1
      Elst10,r              -9.46160557 mH      -5.93724738 kcal mol^-1
      Elst12,r               0.27014947 mH       0.16952136 kcal mol^-1

    Exchange                 9.80869739 mH       6.15505080 kcal mol^-1
      Exch10                 8.31164378 mH       5.21563543 kcal mol^-1
      Exch10(S^2)            8.28400669 mH       5.19829289 kcal mol^-1
      Exch11(S^2)            0.01240603 mH       0.00778490 kcal mol^-1
      Exch12(S^2)            1.48464758 mH       0.93163046 kcal mol^-1

    Induction               -2.50586660 mH      -1.57245510 kcal mol^-1
      Ind20,r               -3.23841516 mH      -2.03213628 kcal mol^-1
      Ind22                 -0.52336468 mH      -0.32841631 kcal mol^-1
      Exch-Ind20,r           1.80968195 mH       1.13559261 kcal mol^-1
      Exch-Ind22             0.29246516 mH       0.18352467 kcal mol^-1
      delta HF,r (2)        -0.84623387 mH      -0.53101979 kcal mol^-1

    Dispersion              -4.43383943 mH      -2.78227636 kcal mol^-1
      Disp20                -4.35207060 mH      -2.73096564 kcal mol^-1
      Disp21                 0.08690193 mH       0.05453179 kcal mol^-1
      Disp22 (SDQ)          -0.03913725 mH      -0.02455900 kcal mol^-1
      Disp22 (T)            -0.70445309 mH      -0.44205101 kcal mol^-1
      Exch-Disp20            0.57491958 mH       0.36076750 kcal mol^-1

    Total HF                -3.42492887 mH      -2.14917540 kcal mol^-1
    Total SAPT0             -7.20207988 mH      -4.51937355 kcal mol^-1
    Total SAPT2             -5.66577632 mH      -3.55532846 kcal mol^-1
    Total SAPT2+            -6.32246473 mH      -3.96740668 kcal mol^-1

*** tstop() called on node36.bme.utexas.edu at Fri Jun 20 15:47:05 2014
Module time:
	user time   =    1967.33 seconds =      32.79 minutes
	system time =      15.35 seconds =       0.26 minutes
	total time  =        502 seconds =       8.37 minutes
Total time:
	user time   =    2026.75 seconds =      33.78 minutes
	system time =      15.98 seconds =       0.27 minutes
	total time  =        518 seconds =       8.63 minutes

*** PSI4 exiting successfully. Buy a developer a beer!
