
    -----------------------------------------------------------------------
          Psi4: An Open-Source Ab Initio Electronic Structure Package
                               Psi4 1.4a2.dev224 

                         Git: Rev {master} e453b16 


    R. M. Parrish, L. A. Burns, D. G. A. Smith, A. C. Simmonett,
    A. E. DePrince III, E. G. Hohenstein, U. Bozkaya, A. Yu. Sokolov,
    R. Di Remigio, R. M. Richard, J. F. Gonthier, A. M. James,
    H. R. McAlexander, A. Kumar, M. Saitow, X. Wang, B. P. Pritchard,
    P. Verma, H. F. Schaefer III, K. Patkowski, R. A. King, E. F. Valeev,
    F. A. Evangelista, J. M. Turney, T. D. Crawford, and C. D. Sherrill,
    J. Chem. Theory Comput. 13(7) pp 3185--3197 (2017).
    (doi: 10.1021/acs.jctc.7b00174)


                         Additional Contributions by
    P. Kraus, H. Kruse, M. H. Lechner, M. C. Schieber, R. A. Shaw,
    A. Alenaizan, R. Galvelis, Z. L. Glick, S. Lehtola, and J. P. Misiewicz

    -----------------------------------------------------------------------


    Psi4 started on: Thursday, 23 April 2020 10:27PM

    Process ID: 33805
    Host:       node36.bme.utexas.edu
    PSIDATADIR: /home/liuchw/anaconda3/envs/psi4env/share/psi4
    Memory:     500.0 MiB
    Threads:    8
    
  ==> Input File <==

--------------------------------------------------------------------------
#Generated by lconvert.py for sapt job

memory 50 GB

molecule  {
0 1
  F       1.798660   -0.304510    0.000170
  C       1.627340    1.070430    0.000110
  H       0.564780    1.293980    0.000090
  H       2.096650    1.483170   -0.888820
  H       2.096630    1.483250    0.889000
--
0 1
  F      -4.145120   -0.151280    0.000240
  C      -3.973920   -1.526230    0.000150
  H      -4.443370   -1.938920   -0.888720
  H      -4.443160   -1.939010    0.889100
  H      -2.911380   -1.749890    0.000020
units angstrom
no_reorient
symmetry c1
}

set {
scf_type DF
basis aug-cc-pvtz
freeze_core True
guess SAD
}
energy('sapt2+')
--------------------------------------------------------------------------

  Memory set to  46.566 GiB by Python driver.

Scratch directory: /scratch/liuchw/

  //>>>>>>>>>>>>>>>>>>>>>>>>>>>>>>>>>>>//
  //              Dimer HF             //
  //<<<<<<<<<<<<<<<<<<<<<<<<<<<<<<<<<<<//


*** tstart() called on node36.bme.utexas.edu
*** at Thu Apr 23 22:27:31 2020

   => Loading Basis Set <=

    Name: AUG-CC-PVTZ
    Role: ORBITAL
    Keyword: BASIS
    atoms 1, 6      entry F          line   377 file /home/liuchw/anaconda3/envs/psi4env/share/psi4/basis/aug-cc-pvtz.gbs 
    atoms 2, 7      entry C          line   239 file /home/liuchw/anaconda3/envs/psi4env/share/psi4/basis/aug-cc-pvtz.gbs 
    atoms 3-5, 8-10 entry H          line    40 file /home/liuchw/anaconda3/envs/psi4env/share/psi4/basis/aug-cc-pvtz.gbs 


         ---------------------------------------------------------
                                   SCF
               by Justin Turney, Rob Parrish, Andy Simmonett
                          and Daniel G. A. Smith
                              RHF Reference
                        8 Threads,  47683 MiB Core
         ---------------------------------------------------------

  ==> Geometry <==

    Molecular point group: c1
    Full point group: C1

    Geometry (in Angstrom), charge = 0, multiplicity = 1:

       Center              X                  Y                   Z               Mass       
    ------------   -----------------  -----------------  -----------------  -----------------
         F            2.971918124223    -0.076612495858    -0.000000252036    18.998403162730
         C            2.800598124223     1.298327504142    -0.000060252036    12.000000000000
         H            1.738038124223     1.521877504142    -0.000080252036     1.007825032230
         H            3.269908124223     1.711067504142    -0.888990252036     1.007825032230
         H            3.269888124223     1.711147504142     0.888829747964     1.007825032230
         F           -2.971861875777     0.076617504142     0.000069747964    18.998403162730
         C           -2.800661875777    -1.298332495858    -0.000020252036    12.000000000000
         H           -3.270111875777    -1.711022495858    -0.888890252036     1.007825032230
         H           -3.269901875777    -1.711112495858     0.888929747964     1.007825032230
         H           -1.738121875777    -1.521992495858    -0.000150252036     1.007825032230

  Running in c1 symmetry.

  Rotational constants: A =      0.42990  B =      0.02822  C =      0.02675 [cm^-1]
  Rotational constants: A =  12887.97050  B =    846.04954  C =    801.95695 [MHz]
  Nuclear repulsion =  103.355518681689588

  Charge       = 0
  Multiplicity = 1
  Electrons    = 36
  Nalpha       = 18
  Nbeta        = 18

  ==> Algorithm <==

  SCF Algorithm Type is DF.
  DIIS enabled.
  MOM disabled.
  Fractional occupation disabled.
  Guess Type is SAD.
  Energy threshold   = 1.00e-08
  Density threshold  = 1.00e-08
  Integral threshold = 0.00e+00

  ==> Primary Basis <==

  Basis Set: AUG-CC-PVTZ
    Blend: AUG-CC-PVTZ
    Number of shells: 110
    Number of basis function: 322
    Number of Cartesian functions: 370
    Spherical Harmonics?: true
    Max angular momentum: 3

   => Loading Basis Set <=

    Name: (AUG-CC-PVTZ AUX)
    Role: JKFIT
    Keyword: DF_BASIS_SCF
    atoms 1, 6      entry F          line   348 file /home/liuchw/anaconda3/envs/psi4env/share/psi4/basis/aug-cc-pvtz-jkfit.gbs 
    atoms 2, 7      entry C          line   162 file /home/liuchw/anaconda3/envs/psi4env/share/psi4/basis/aug-cc-pvtz-jkfit.gbs 
    atoms 3-5, 8-10 entry H          line    70 file /home/liuchw/anaconda3/envs/psi4env/share/psi4/basis/aug-cc-pvtz-jkfit.gbs 

  ==> Pre-Iterations <==

   -------------------------------------------------------
    Irrep   Nso     Nmo     Nalpha   Nbeta   Ndocc  Nsocc
   -------------------------------------------------------
     A        322     322       0       0       0       0
   -------------------------------------------------------
    Total     322     322      18      18      18       0
   -------------------------------------------------------

  ==> Integral Setup <==

  ==> DiskDFJK: Density-Fitted J/K Matrices <==

    J tasked:                  Yes
    K tasked:                  Yes
    wK tasked:                  No
    OpenMP threads:              8
    Integrals threads:           8
    Memory [MiB]:            35762
    Algorithm:                Core
    Integral Cache:           SAVE
    Schwarz Cutoff:          1E-12
    Fitting Condition:       1E-10

   => Auxiliary Basis Set <=

  Basis Set: (AUG-CC-PVTZ AUX)
    Blend: AUG-CC-PVTZ-JKFIT
    Number of shells: 204
    Number of basis function: 692
    Number of Cartesian functions: 854
    Spherical Harmonics?: true
    Max angular momentum: 4

  Minimum eigenvalue in the overlap matrix is 7.5276118274E-05.
  Using Symmetric Orthogonalization.

  SCF Guess: Superposition of Atomic Densities via on-the-fly atomic UHF.

  ==> Iterations <==

                           Total Energy        Delta E     RMS |[F,P]|

   @DF-RHF iter SAD:  -276.87112927389126   -2.76871e+02   0.00000e+00 
   @DF-RHF iter   1:  -278.12038905648433   -1.24926e+00   1.19155e-03 DIIS
   @DF-RHF iter   2:  -278.18457618930120   -6.41871e-02   5.59478e-04 DIIS
   @DF-RHF iter   3:  -278.19412590526008   -9.54972e-03   1.37044e-04 DIIS
   @DF-RHF iter   4:  -278.19522062247120   -1.09472e-03   3.33932e-05 DIIS
   @DF-RHF iter   5:  -278.19530313328414   -8.25108e-05   8.04164e-06 DIIS
   @DF-RHF iter   6:  -278.19530727625641   -4.14297e-06   1.38895e-06 DIIS
   @DF-RHF iter   7:  -278.19530749303522   -2.16779e-07   2.04373e-07 DIIS
   @DF-RHF iter   8:  -278.19530749772122   -4.68600e-09   4.08747e-08 DIIS
   @DF-RHF iter   9:  -278.19530749793898   -2.17767e-10   9.32299e-09 DIIS
  Energy and wave function converged.


  ==> Post-Iterations <==

    Orbital Energies [Eh]
    ---------------------

    Doubly Occupied:                                                      

       1A    -26.278200     2A    -26.278198     3A    -11.304390  
       4A    -11.304389     5A     -1.585971     6A     -1.585968  
       7A     -0.955373     8A     -0.955370     9A     -0.695052  
      10A     -0.694870    11A     -0.694635    12A     -0.694629  
      13A     -0.673624    14A     -0.673590    15A     -0.531614  
      16A     -0.531553    17A     -0.530938    18A     -0.530933  

    Virtual:                                                              

      19A      0.028172    20A      0.034748    21A      0.044629  
      22A      0.050397    23A      0.055882    24A      0.057638  
      25A      0.080101    26A      0.101724    27A      0.112269  
      28A      0.126306    29A      0.126652    30A      0.133124  
      31A      0.142187    32A      0.148954    33A      0.187841  
      34A      0.192885    35A      0.200473    36A      0.210295  
      37A      0.212551    38A      0.219138    39A      0.224279  
      40A      0.231106    41A      0.238575    42A      0.242527  
      43A      0.257512    44A      0.280420    45A      0.303798  
      46A      0.318457    47A      0.319926    48A      0.321832  
      49A      0.330261    50A      0.331222    51A      0.336475  
      52A      0.340772    53A      0.344231    54A      0.345793  
      55A      0.348145    56A      0.366313    57A      0.383142  
      58A      0.383698    59A      0.394020    60A      0.394644  
      61A      0.400020    62A      0.402043    63A      0.418488  
      64A      0.431214    65A      0.447254    66A      0.450878  
      67A      0.464853    68A      0.468812    69A      0.473646  
      70A      0.477102    71A      0.493499    72A      0.524940  
      73A      0.525868    74A      0.531940    75A      0.547377  
      76A      0.548670    77A      0.650590    78A      0.661474  
      79A      0.666686    80A      0.669090    81A      0.738849  
      82A      0.744201    83A      0.764833    84A      0.772864  
      85A      0.802385    86A      0.806703    87A      0.816547  
      88A      0.818897    89A      0.864619    90A      0.873044  
      91A      0.884302    92A      0.894375    93A      0.900392  
      94A      0.905732    95A      0.939675    96A      0.939740  
      97A      0.940652    98A      0.942286    99A      0.948343  
     100A      0.983791   101A      1.001375   102A      1.005339  
     103A      1.018120   104A      1.020244   105A      1.034729  
     106A      1.039238   107A      1.040990   108A      1.041533  
     109A      1.046261   110A      1.050803   111A      1.059091  
     112A      1.067611   113A      1.069215   114A      1.071418  
     115A      1.072130   116A      1.073546   117A      1.078412  
     118A      1.108494   119A      1.185071   120A      1.185352  
     121A      1.188913   122A      1.200072   123A      1.216927  
     124A      1.227844   125A      1.238143   126A      1.238489  
     127A      1.247554   128A      1.252371   129A      1.256773  
     130A      1.258739   131A      1.263647   132A      1.268508  
     133A      1.284408   134A      1.303307   135A      1.367705  
     136A      1.372478   137A      1.549950   138A      1.553378  
     139A      1.553488   140A      1.561034   141A      1.571921  
     142A      1.579829   143A      1.595905   144A      1.597118  
     145A      1.619907   146A      1.623292   147A      1.636276  
     148A      1.645055   149A      1.666786   150A      1.670558  
     151A      1.678519   152A      1.683210   153A      1.683486  
     154A      1.696171   155A      1.743876   156A      1.743941  
     157A      1.747192   158A      1.751560   159A      1.786455  
     160A      1.787297   161A      1.882744   162A      1.890578  
     163A      1.892517   164A      1.902958   165A      1.909752  
     166A      1.919533   167A      2.015014   168A      2.021198  
     169A      2.037736   170A      2.050531   171A      2.099576  
     172A      2.102307   173A      2.141335   174A      2.147937  
     175A      2.148806   176A      2.164953   177A      2.561749  
     178A      2.565176   179A      2.692726   180A      2.717752  
     181A      2.910334   182A      2.918092   183A      2.937850  
     184A      2.938805   185A      2.941145   186A      2.948369  
     187A      3.041603   188A      3.046440   189A      3.057527  
     190A      3.062971   191A      3.064989   192A      3.074341  
     193A      3.171294   194A      3.172423   195A      3.189577  
     196A      3.193099   197A      3.248221   198A      3.252929  
     199A      3.257097   200A      3.259630   201A      3.433778  
     202A      3.435662   203A      3.438312   204A      3.445831  
     205A      3.511996   206A      3.515979   207A      3.519485  
     208A      3.521934   209A      3.522515   210A      3.529695  
     211A      3.537479   212A      3.538237   213A      3.542549  
     214A      3.543815   215A      3.548177   216A      3.550180  
     217A      3.655249   218A      3.655282   219A      3.755082  
     220A      3.756534   221A      3.758416   222A      3.773751  
     223A      3.861006   224A      3.865483   225A      3.866056  
     226A      3.868935   227A      4.028213   228A      4.029380  
     229A      4.038688   230A      4.041188   231A      4.045255  
     232A      4.046525   233A      4.089794   234A      4.090126  
     235A      4.091155   236A      4.095698   237A      4.150436  
     238A      4.152430   239A      4.193039   240A      4.196317  
     241A      4.418228   242A      4.419673   243A      4.421048  
     244A      4.425050   245A      4.454688   246A      4.461669  
     247A      4.681692   248A      4.687843   249A      4.730019  
     250A      4.730561   251A      4.730889   252A      4.745832  
     253A      4.747740   254A      4.749296   255A      4.751972  
     256A      4.753862   257A      4.868749   258A      4.870247  
     259A      4.928897   260A      4.933532   261A      4.985371  
     262A      4.985791   263A      4.992225   264A      4.998886  
     265A      5.168117   266A      5.172369   267A      5.173961  
     268A      5.176972   269A      5.301055   270A      5.301377  
     271A      5.539235   272A      5.540974   273A      5.634860  
     274A      5.635251   275A      5.641396   276A      5.642282  
     277A      5.642637   278A      5.644671   279A      5.744846  
     280A      5.746747   281A      5.754417   282A      5.757706  
     283A      5.994155   284A      5.999149   285A      6.131876  
     286A      6.133448   287A      6.136156   288A      6.149033  
     289A      6.558649   290A      6.561600   291A      6.562573  
     292A      6.577002   293A      7.126905   294A      7.131062  
     295A      8.952989   296A      8.954403   297A      8.988319  
     298A      8.988753   299A      9.227403   300A      9.227408  
     301A      9.227424   302A      9.227853   303A      9.394671  
     304A      9.397026   305A      9.424925   306A      9.426290  
     307A      9.429667   308A      9.432430   309A      9.458709  
     310A      9.459607   311A      9.462416   312A      9.464980  
     313A      9.821279   314A      9.826008   315A      9.828274  
     316A      9.828390   317A      9.889816   318A      9.897741  
     319A     15.080843   320A     15.118647   321A     17.468424  
     322A     17.489460  

    Final Occupation by Irrep:
              A 
    DOCC [    18 ]

  @DF-RHF Final Energy:  -278.19530749793898

   => Energetics <=

    Nuclear Repulsion Energy =            103.3555186816895883
    One-Electron Energy =                -590.1030535122486071
    Two-Electron Energy =                 208.5522273326200207
    Total Energy =                       -278.1953074979389839

Computation Completed


Properties will be evaluated at   0.000000,   0.000000,   0.000000 [a0]

Properties computed using the SCF density matrix

  Nuclear Dipole Moment: [e a0]
     X:    -0.0003      Y:    -0.0000      Z:    -0.0004

  Electronic Dipole Moment: [e a0]
     X:     0.0003      Y:     0.0000      Z:     0.0003

  Dipole Moment: [e a0]
     X:    -0.0001      Y:     0.0000      Z:    -0.0001     Total:     0.0001

  Dipole Moment: [D]
     X:    -0.0002      Y:     0.0000      Z:    -0.0002     Total:     0.0003


*** tstop() called on node36.bme.utexas.edu at Thu Apr 23 22:27:38 2020
Module time:
	user time   =      42.21 seconds =       0.70 minutes
	system time =       1.85 seconds =       0.03 minutes
	total time  =          7 seconds =       0.12 minutes
Total time:
	user time   =      42.21 seconds =       0.70 minutes
	system time =       1.85 seconds =       0.03 minutes
	total time  =          7 seconds =       0.12 minutes

  //>>>>>>>>>>>>>>>>>>>>>>>>>>>>>>>>>>>//
  //            Monomer A HF           //
  //<<<<<<<<<<<<<<<<<<<<<<<<<<<<<<<<<<<//


*** tstart() called on node36.bme.utexas.edu
*** at Thu Apr 23 22:27:38 2020

   => Loading Basis Set <=

    Name: AUG-CC-PVTZ
    Role: ORBITAL
    Keyword: BASIS
    atoms 1, 6      entry F          line   377 file /home/liuchw/anaconda3/envs/psi4env/share/psi4/basis/aug-cc-pvtz.gbs 
    atoms 2, 7      entry C          line   239 file /home/liuchw/anaconda3/envs/psi4env/share/psi4/basis/aug-cc-pvtz.gbs 
    atoms 3-5, 8-10 entry H          line    40 file /home/liuchw/anaconda3/envs/psi4env/share/psi4/basis/aug-cc-pvtz.gbs 


         ---------------------------------------------------------
                                   SCF
               by Justin Turney, Rob Parrish, Andy Simmonett
                          and Daniel G. A. Smith
                              RHF Reference
                        8 Threads,  47683 MiB Core
         ---------------------------------------------------------

  ==> Geometry <==

    Molecular point group: c1
    Full point group: C1

    Geometry (in Angstrom), charge = 0, multiplicity = 1:

       Center              X                  Y                   Z               Mass       
    ------------   -----------------  -----------------  -----------------  -----------------
         F            2.971918124223    -0.076612495858    -0.000000252036    18.998403162730
         C            2.800598124223     1.298327504142    -0.000060252036    12.000000000000
         H            1.738038124223     1.521877504142    -0.000080252036     1.007825032230
         H            3.269908124223     1.711067504142    -0.888990252036     1.007825032230
         H            3.269888124223     1.711147504142     0.888829747964     1.007825032230
      Gh(F)          -2.971861875777     0.076617504142     0.000069747964    18.998403162730
      Gh(C)          -2.800661875777    -1.298332495858    -0.000020252036    12.000000000000
      Gh(H)          -3.270111875777    -1.711022495858    -0.888890252036     1.007825032230
      Gh(H)          -3.269901875777    -1.711112495858     0.888929747964     1.007825032230
      Gh(H)          -1.738121875777    -1.521992495858    -0.000150252036     1.007825032230

  Running in c1 symmetry.

  Rotational constants: A =      0.42990  B =      0.02822  C =      0.02675 [cm^-1]
  Rotational constants: A =  12887.97050  B =    846.04954  C =    801.95695 [MHz]
  Nuclear repulsion =   37.360568269539847

  Charge       = 0
  Multiplicity = 1
  Electrons    = 18
  Nalpha       = 9
  Nbeta        = 9

  ==> Algorithm <==

  SCF Algorithm Type is DF.
  DIIS enabled.
  MOM disabled.
  Fractional occupation disabled.
  Guess Type is SAD.
  Energy threshold   = 1.00e-08
  Density threshold  = 1.00e-08
  Integral threshold = 0.00e+00

  ==> Primary Basis <==

  Basis Set: AUG-CC-PVTZ
    Blend: AUG-CC-PVTZ
    Number of shells: 110
    Number of basis function: 322
    Number of Cartesian functions: 370
    Spherical Harmonics?: true
    Max angular momentum: 3

   => Loading Basis Set <=

    Name: (AUG-CC-PVTZ AUX)
    Role: JKFIT
    Keyword: DF_BASIS_SCF
    atoms 1, 6      entry F          line   348 file /home/liuchw/anaconda3/envs/psi4env/share/psi4/basis/aug-cc-pvtz-jkfit.gbs 
    atoms 2, 7      entry C          line   162 file /home/liuchw/anaconda3/envs/psi4env/share/psi4/basis/aug-cc-pvtz-jkfit.gbs 
    atoms 3-5, 8-10 entry H          line    70 file /home/liuchw/anaconda3/envs/psi4env/share/psi4/basis/aug-cc-pvtz-jkfit.gbs 

  ==> Pre-Iterations <==

   -------------------------------------------------------
    Irrep   Nso     Nmo     Nalpha   Nbeta   Ndocc  Nsocc
   -------------------------------------------------------
     A        322     322       0       0       0       0
   -------------------------------------------------------
    Total     322     322       9       9       9       0
   -------------------------------------------------------

  ==> Integral Setup <==

  ==> DiskDFJK: Density-Fitted J/K Matrices <==

    J tasked:                  Yes
    K tasked:                  Yes
    wK tasked:                  No
    OpenMP threads:              8
    Integrals threads:           8
    Memory [MiB]:            35762
    Algorithm:                Core
    Integral Cache:           LOAD
    Schwarz Cutoff:          1E-12
    Fitting Condition:       1E-10

   => Auxiliary Basis Set <=

  Basis Set: (AUG-CC-PVTZ AUX)
    Blend: AUG-CC-PVTZ-JKFIT
    Number of shells: 204
    Number of basis function: 692
    Number of Cartesian functions: 854
    Spherical Harmonics?: true
    Max angular momentum: 4

  Minimum eigenvalue in the overlap matrix is 7.5276118274E-05.
  Using Symmetric Orthogonalization.

  SCF Guess: Superposition of Atomic Densities via on-the-fly atomic UHF.

  ==> Iterations <==

                           Total Energy        Delta E     RMS |[F,P]|

   @DF-RHF iter SAD:  -138.43529333937880   -1.38435e+02   0.00000e+00 
   @DF-RHF iter   1:  -139.05978968321665   -6.24496e-01   8.43845e-04 DIIS
   @DF-RHF iter   2:  -139.09197467909374   -3.21850e-02   3.97542e-04 DIIS
   @DF-RHF iter   3:  -139.09679139503223   -4.81672e-03   9.71106e-05 DIIS
   @DF-RHF iter   4:  -139.09734045564826   -5.49061e-04   2.36918e-05 DIIS
   @DF-RHF iter   5:  -139.09738203476451   -4.15791e-05   5.71137e-06 DIIS
   @DF-RHF iter   6:  -139.09738412885741   -2.09409e-06   9.91021e-07 DIIS
   @DF-RHF iter   7:  -139.09738423973823   -1.10881e-07   1.50949e-07 DIIS
   @DF-RHF iter   8:  -139.09738424231779   -2.57955e-09   3.16878e-08 DIIS
   @DF-RHF iter   9:  -139.09738424244983   -1.32047e-10   7.06689e-09 DIIS
  Energy and wave function converged.


  ==> Post-Iterations <==

    Orbital Energies [Eh]
    ---------------------

    Doubly Occupied:                                                      

       1A    -26.278354     2A    -11.305516     3A     -1.586065  
       4A     -0.956269     5A     -0.695374     6A     -0.695005  
       7A     -0.673920     8A     -0.532443     9A     -0.531615  

    Virtual:                                                              

      10A      0.022740    11A      0.032846    12A      0.044333  
      13A      0.050797    14A      0.051109    15A      0.058280  
      16A      0.077766    17A      0.093184    18A      0.108891  
      19A      0.109964    20A      0.119226    21A      0.125966  
      22A      0.135892    23A      0.140609    24A      0.182562  
      25A      0.190219    26A      0.195774    27A      0.204004  
      28A      0.208634    29A      0.219697    30A      0.223263  
      31A      0.234862    32A      0.243389    33A      0.247669  
      34A      0.255158    35A      0.267892    36A      0.277874  
      37A      0.304151    38A      0.312568    39A      0.319049  
      40A      0.323205    41A      0.327292    42A      0.331407  
      43A      0.338061    44A      0.338384    45A      0.343166  
      46A      0.355402    47A      0.361059    48A      0.371900  
      49A      0.386431    50A      0.394645    51A      0.398623  
      52A      0.402152    53A      0.409897    54A      0.415446  
      55A      0.419956    56A      0.446691    57A      0.448612  
      58A      0.470993    59A      0.472782    60A      0.479579  
      61A      0.482994    62A      0.518592    63A      0.524232  
      64A      0.531569    65A      0.540800    66A      0.543605  
      67A      0.555438    68A      0.604956    69A      0.657096  
      70A      0.662099    71A      0.668111    72A      0.681752  
      73A      0.740623    74A      0.768304    75A      0.809269  
      76A      0.809370    77A      0.836300    78A      0.864517  
      79A      0.878409    80A      0.883004    81A      0.897522  
      82A      0.905109    83A      0.936212    84A      0.938217  
      85A      0.952317    86A      0.953059    87A      0.959163  
      88A      0.964060    89A      0.993527    90A      1.003279  
      91A      1.015699    92A      1.021078    93A      1.021217  
      94A      1.030055    95A      1.038384    96A      1.040912  
      97A      1.051609    98A      1.051648    99A      1.062345  
     100A      1.066855   101A      1.070460   102A      1.070849  
     103A      1.076573   104A      1.081857   105A      1.102029  
     106A      1.113621   107A      1.114107   108A      1.123009  
     109A      1.128108   110A      1.150790   111A      1.186348  
     112A      1.192534   113A      1.193744   114A      1.201192  
     115A      1.210635   116A      1.237479   117A      1.239448  
     118A      1.244194   119A      1.251587   120A      1.257679  
     121A      1.259492   122A      1.262189   123A      1.279719  
     124A      1.287042   125A      1.327111   126A      1.335447  
     127A      1.369341   128A      1.388571   129A      1.409502  
     130A      1.434107   131A      1.554880   132A      1.561166  
     133A      1.569137   134A      1.596028   135A      1.626678  
     136A      1.631915   137A      1.666423   138A      1.670664  
     139A      1.677907   140A      1.680139   141A      1.686238  
     142A      1.716362   143A      1.734677   144A      1.743494  
     145A      1.748796   146A      1.780603   147A      1.781242  
     148A      1.789472   149A      1.859629   150A      1.873590  
     151A      1.880553   152A      1.885332   153A      1.894941  
     154A      1.903505   155A      1.906658   156A      2.016803  
     157A      2.039112   158A      2.045864   159A      2.054538  
     160A      2.067730   161A      2.101549   162A      2.143767  
     163A      2.153425   164A      2.167616   165A      2.185104  
     166A      2.257588   167A      2.369409   168A      2.401982  
     169A      2.418039   170A      2.562008   171A      2.684331  
     172A      2.697669   173A      2.705427   174A      2.716326  
     175A      2.913692   176A      2.939787   177A      2.942618  
     178A      3.044089   179A      3.060115   180A      3.068809  
     181A      3.171838   182A      3.191140   183A      3.234548  
     184A      3.249315   185A      3.251787   186A      3.254203  
     187A      3.265824   188A      3.326349   189A      3.377736  
     190A      3.436501   191A      3.439149   192A      3.517410  
     193A      3.519015   194A      3.524430   195A      3.537297  
     196A      3.543444   197A      3.544555   198A      3.606162  
     199A      3.609106   200A      3.647098   201A      3.656116  
     202A      3.754627   203A      3.756121   204A      3.760141  
     205A      3.771988   206A      3.796517   207A      3.801086  
     208A      3.810921   209A      3.862452   210A      3.866142  
     211A      3.979238   212A      4.013543   213A      4.017125  
     214A      4.027954   215A      4.032992   216A      4.041691  
     217A      4.044942   218A      4.085776   219A      4.087288  
     220A      4.089483   221A      4.091663   222A      4.147445  
     223A      4.154425   224A      4.167322   225A      4.193301  
     226A      4.247686   227A      4.406144   228A      4.418094  
     229A      4.422309   230A      4.452809   231A      4.456538  
     232A      4.468355   233A      4.568170   234A      4.572752  
     235A      4.576307   236A      4.684594   237A      4.706450  
     238A      4.711377   239A      4.729708   240A      4.734341  
     241A      4.740453   242A      4.747661   243A      4.752067  
     244A      4.868271   245A      4.929976   246A      4.957177  
     247A      4.963042   248A      4.988004   249A      4.990864  
     250A      5.023630   251A      5.168891   252A      5.174322  
     253A      5.183155   254A      5.184969   255A      5.297614  
     256A      5.299984   257A      5.343570   258A      5.350386  
     259A      5.365943   260A      5.433498   261A      5.461462  
     262A      5.464353   263A      5.539183   264A      5.635103  
     265A      5.640871   266A      5.641306   267A      5.745247  
     268A      5.755511   269A      5.851906   270A      5.941627  
     271A      5.953365   272A      5.995503   273A      6.132846  
     274A      6.139957   275A      6.235742   276A      6.275606  
     277A      6.280293   278A      6.561054   279A      6.565831  
     280A      6.759398   281A      6.770130   282A      6.829147  
     283A      7.128280   284A      7.129908   285A      7.731570  
     286A      7.733211   287A      7.903329   288A      8.113742  
     289A      8.119820   290A      8.953739   291A      8.988580  
     292A      9.227371   293A      9.227614   294A      9.396011  
     295A      9.425817   296A      9.431035   297A      9.460419  
     298A      9.462090   299A      9.824635   300A      9.827023  
     301A      9.893586   302A     10.186896   303A     10.294747  
     304A     10.364073   305A     10.589071   306A     10.589245  
     307A     10.780145   308A     10.851995   309A     10.856624  
     310A     11.892847   311A     13.059994   312A     13.062460  
     313A     13.352651   314A     13.356249   315A     13.742654  
     316A     14.648563   317A     14.653457   318A     15.099857  
     319A     16.173344   320A     17.478135   321A     52.254293  
     322A     74.705012  

    Final Occupation by Irrep:
              A 
    DOCC [     9 ]

  @DF-RHF Final Energy:  -139.09738424244983

   => Energetics <=

    Nuclear Repulsion Energy =             37.3605682695398471
    One-Electron Energy =                -266.4067829085304311
    Two-Electron Energy =                  89.9488303965407709
    Total Energy =                       -139.0973842424498343

Computation Completed


Properties will be evaluated at   0.000000,   0.000000,   0.000000 [a0]

Properties computed using the SCF density matrix

  Nuclear Dipole Moment: [e a0]
     X:    97.9420      Y:    22.7609      Z:    -0.0011

  Electronic Dipole Moment: [e a0]
     X:   -98.0421      Y:   -21.9552      Z:     0.0011

  Dipole Moment: [e a0]
     X:    -0.1001      Y:     0.8057      Z:    -0.0000     Total:     0.8119

  Dipole Moment: [D]
     X:    -0.2543      Y:     2.0479      Z:    -0.0001     Total:     2.0637


*** tstop() called on node36.bme.utexas.edu at Thu Apr 23 22:27:42 2020
Module time:
	user time   =      24.98 seconds =       0.42 minutes
	system time =       1.13 seconds =       0.02 minutes
	total time  =          4 seconds =       0.07 minutes
Total time:
	user time   =      67.24 seconds =       1.12 minutes
	system time =       2.99 seconds =       0.05 minutes
	total time  =         11 seconds =       0.18 minutes

  //>>>>>>>>>>>>>>>>>>>>>>>>>>>>>>>>>>>//
  //            Monomer B HF           //
  //<<<<<<<<<<<<<<<<<<<<<<<<<<<<<<<<<<<//


*** tstart() called on node36.bme.utexas.edu
*** at Thu Apr 23 22:27:42 2020

   => Loading Basis Set <=

    Name: AUG-CC-PVTZ
    Role: ORBITAL
    Keyword: BASIS
    atoms 1, 6      entry F          line   377 file /home/liuchw/anaconda3/envs/psi4env/share/psi4/basis/aug-cc-pvtz.gbs 
    atoms 2, 7      entry C          line   239 file /home/liuchw/anaconda3/envs/psi4env/share/psi4/basis/aug-cc-pvtz.gbs 
    atoms 3-5, 8-10 entry H          line    40 file /home/liuchw/anaconda3/envs/psi4env/share/psi4/basis/aug-cc-pvtz.gbs 


         ---------------------------------------------------------
                                   SCF
               by Justin Turney, Rob Parrish, Andy Simmonett
                          and Daniel G. A. Smith
                              RHF Reference
                        8 Threads,  47683 MiB Core
         ---------------------------------------------------------

  ==> Geometry <==

    Molecular point group: c1
    Full point group: C1

    Geometry (in Angstrom), charge = 0, multiplicity = 1:

       Center              X                  Y                   Z               Mass       
    ------------   -----------------  -----------------  -----------------  -----------------
      Gh(F)           2.971918124223    -0.076612495858    -0.000000252036    18.998403162730
      Gh(C)           2.800598124223     1.298327504142    -0.000060252036    12.000000000000
      Gh(H)           1.738038124223     1.521877504142    -0.000080252036     1.007825032230
      Gh(H)           3.269908124223     1.711067504142    -0.888990252036     1.007825032230
      Gh(H)           3.269888124223     1.711147504142     0.888829747964     1.007825032230
         F           -2.971861875777     0.076617504142     0.000069747964    18.998403162730
         C           -2.800661875777    -1.298332495858    -0.000020252036    12.000000000000
         H           -3.270111875777    -1.711022495858    -0.888890252036     1.007825032230
         H           -3.269901875777    -1.711112495858     0.888929747964     1.007825032230
         H           -1.738121875777    -1.521992495858    -0.000150252036     1.007825032230

  Running in c1 symmetry.

  Rotational constants: A =      0.42990  B =      0.02822  C =      0.02675 [cm^-1]
  Rotational constants: A =  12887.97050  B =    846.04954  C =    801.95695 [MHz]
  Nuclear repulsion =   37.360623124908415

  Charge       = 0
  Multiplicity = 1
  Electrons    = 18
  Nalpha       = 9
  Nbeta        = 9

  ==> Algorithm <==

  SCF Algorithm Type is DF.
  DIIS enabled.
  MOM disabled.
  Fractional occupation disabled.
  Guess Type is SAD.
  Energy threshold   = 1.00e-08
  Density threshold  = 1.00e-08
  Integral threshold = 0.00e+00

  ==> Primary Basis <==

  Basis Set: AUG-CC-PVTZ
    Blend: AUG-CC-PVTZ
    Number of shells: 110
    Number of basis function: 322
    Number of Cartesian functions: 370
    Spherical Harmonics?: true
    Max angular momentum: 3

   => Loading Basis Set <=

    Name: (AUG-CC-PVTZ AUX)
    Role: JKFIT
    Keyword: DF_BASIS_SCF
    atoms 1, 6      entry F          line   348 file /home/liuchw/anaconda3/envs/psi4env/share/psi4/basis/aug-cc-pvtz-jkfit.gbs 
    atoms 2, 7      entry C          line   162 file /home/liuchw/anaconda3/envs/psi4env/share/psi4/basis/aug-cc-pvtz-jkfit.gbs 
    atoms 3-5, 8-10 entry H          line    70 file /home/liuchw/anaconda3/envs/psi4env/share/psi4/basis/aug-cc-pvtz-jkfit.gbs 

  ==> Pre-Iterations <==

   -------------------------------------------------------
    Irrep   Nso     Nmo     Nalpha   Nbeta   Ndocc  Nsocc
   -------------------------------------------------------
     A        322     322       0       0       0       0
   -------------------------------------------------------
    Total     322     322       9       9       9       0
   -------------------------------------------------------

  ==> Integral Setup <==

  ==> DiskDFJK: Density-Fitted J/K Matrices <==

    J tasked:                  Yes
    K tasked:                  Yes
    wK tasked:                  No
    OpenMP threads:              8
    Integrals threads:           8
    Memory [MiB]:            35762
    Algorithm:                Core
    Integral Cache:           LOAD
    Schwarz Cutoff:          1E-12
    Fitting Condition:       1E-10

   => Auxiliary Basis Set <=

  Basis Set: (AUG-CC-PVTZ AUX)
    Blend: AUG-CC-PVTZ-JKFIT
    Number of shells: 204
    Number of basis function: 692
    Number of Cartesian functions: 854
    Spherical Harmonics?: true
    Max angular momentum: 4

  Minimum eigenvalue in the overlap matrix is 7.5276118274E-05.
  Using Symmetric Orthogonalization.

  SCF Guess: Superposition of Atomic Densities via on-the-fly atomic UHF.

  ==> Iterations <==

                           Total Energy        Delta E     RMS |[F,P]|

   @DF-RHF iter SAD:  -138.43529887904535   -1.38435e+02   0.00000e+00 
   @DF-RHF iter   1:  -139.05978979916262   -6.24491e-01   8.43844e-04 DIIS
   @DF-RHF iter   2:  -139.09197477145486   -3.21850e-02   3.97541e-04 DIIS
   @DF-RHF iter   3:  -139.09679148066300   -4.81671e-03   9.71102e-05 DIIS
   @DF-RHF iter   4:  -139.09734054020350   -5.49060e-04   2.36917e-05 DIIS
   @DF-RHF iter   5:  -139.09738211899946   -4.15788e-05   5.71138e-06 DIIS
   @DF-RHF iter   6:  -139.09738421309709   -2.09410e-06   9.91025e-07 DIIS
   @DF-RHF iter   7:  -139.09738432397910   -1.10882e-07   1.50951e-07 DIIS
   @DF-RHF iter   8:  -139.09738432655837   -2.57927e-09   3.16888e-08 DIIS
   @DF-RHF iter   9:  -139.09738432669064   -1.32275e-10   7.06695e-09 DIIS
  Energy and wave function converged.


  ==> Post-Iterations <==

    Orbital Energies [Eh]
    ---------------------

    Doubly Occupied:                                                      

       1A    -26.278355     2A    -11.305516     3A     -1.586067  
       4A     -0.956268     5A     -0.695375     6A     -0.695006  
       7A     -0.673922     8A     -0.532443     9A     -0.531613  

    Virtual:                                                              

      10A      0.022741    11A      0.032846    12A      0.044333  
      13A      0.050797    14A      0.051108    15A      0.058282  
      16A      0.077765    17A      0.093184    18A      0.108891  
      19A      0.109965    20A      0.119227    21A      0.125966  
      22A      0.135892    23A      0.140609    24A      0.182564  
      25A      0.190220    26A      0.195775    27A      0.204004  
      28A      0.208633    29A      0.219697    30A      0.223263  
      31A      0.234861    32A      0.243389    33A      0.247670  
      34A      0.255154    35A      0.267896    36A      0.277874  
      37A      0.304151    38A      0.312567    39A      0.319049  
      40A      0.323204    41A      0.327294    42A      0.331408  
      43A      0.338061    44A      0.338381    45A      0.343166  
      46A      0.355405    47A      0.361061    48A      0.371898  
      49A      0.386429    50A      0.394644    51A      0.398626  
      52A      0.402156    53A      0.409898    54A      0.415446  
      55A      0.419956    56A      0.446691    57A      0.448614  
      58A      0.470993    59A      0.472785    60A      0.479577  
      61A      0.482992    62A      0.518594    63A      0.524236  
      64A      0.531568    65A      0.540800    66A      0.543606  
      67A      0.555435    68A      0.604955    69A      0.657097  
      70A      0.662098    71A      0.668111    72A      0.681756  
      73A      0.740624    74A      0.768304    75A      0.809269  
      76A      0.809370    77A      0.836301    78A      0.864517  
      79A      0.878409    80A      0.883005    81A      0.897522  
      82A      0.905111    83A      0.936209    84A      0.938217  
      85A      0.952318    86A      0.953058    87A      0.959166  
      88A      0.964059    89A      0.993528    90A      1.003277  
      91A      1.015698    92A      1.021077    93A      1.021219  
      94A      1.030057    95A      1.038383    96A      1.040913  
      97A      1.051610    98A      1.051648    99A      1.062348  
     100A      1.066854   101A      1.070460   102A      1.070850  
     103A      1.076574   104A      1.081856   105A      1.102030  
     106A      1.113613   107A      1.114108   108A      1.123009  
     109A      1.128110   110A      1.150789   111A      1.186349  
     112A      1.192534   113A      1.193746   114A      1.201191  
     115A      1.210634   116A      1.237478   117A      1.239447  
     118A      1.244192   119A      1.251586   120A      1.257678  
     121A      1.259493   122A      1.262190   123A      1.279720  
     124A      1.287048   125A      1.327115   126A      1.335449  
     127A      1.369343   128A      1.388572   129A      1.409508  
     130A      1.434105   131A      1.554880   132A      1.561166  
     133A      1.569136   134A      1.596026   135A      1.626678  
     136A      1.631916   137A      1.666423   138A      1.670664  
     139A      1.677908   140A      1.680139   141A      1.686241  
     142A      1.716364   143A      1.734677   144A      1.743495  
     145A      1.748793   146A      1.780605   147A      1.781242  
     148A      1.789472   149A      1.859629   150A      1.873589  
     151A      1.880551   152A      1.885332   153A      1.894941  
     154A      1.903508   155A      1.906656   156A      2.016801  
     157A      2.039108   158A      2.045866   159A      2.054541  
     160A      2.067733   161A      2.101551   162A      2.143764  
     163A      2.153426   164A      2.167619   165A      2.185101  
     166A      2.257586   167A      2.369409   168A      2.401984  
     169A      2.418039   170A      2.562003   171A      2.684332  
     172A      2.697672   173A      2.705428   174A      2.716334  
     175A      2.913693   176A      2.939784   177A      2.942619  
     178A      3.044093   179A      3.060117   180A      3.068806  
     181A      3.171839   182A      3.191141   183A      3.234547  
     184A      3.249318   185A      3.251787   186A      3.254201  
     187A      3.265823   188A      3.326348   189A      3.377734  
     190A      3.436501   191A      3.439152   192A      3.517412  
     193A      3.519014   194A      3.524435   195A      3.537297  
     196A      3.543442   197A      3.544555   198A      3.606164  
     199A      3.609101   200A      3.647100   201A      3.656120  
     202A      3.754625   203A      3.756126   204A      3.760140  
     205A      3.771988   206A      3.796515   207A      3.801087  
     208A      3.810919   209A      3.862449   210A      3.866138  
     211A      3.979236   212A      4.013542   213A      4.017121  
     214A      4.027955   215A      4.032996   216A      4.041682  
     217A      4.044940   218A      4.085773   219A      4.087292  
     220A      4.089485   221A      4.091665   222A      4.147448  
     223A      4.154423   224A      4.167329   225A      4.193299  
     226A      4.247684   227A      4.406149   228A      4.418086  
     229A      4.422319   230A      4.452809   231A      4.456538  
     232A      4.468358   233A      4.568172   234A      4.572757  
     235A      4.576306   236A      4.684597   237A      4.706455  
     238A      4.711372   239A      4.729707   240A      4.734341  
     241A      4.740455   242A      4.747668   243A      4.752061  
     244A      4.868269   245A      4.929974   246A      4.957179  
     247A      4.963046   248A      4.987998   249A      4.990861  
     250A      5.023639   251A      5.168883   252A      5.174317  
     253A      5.183148   254A      5.184968   255A      5.297617  
     256A      5.299982   257A      5.343570   258A      5.350393  
     259A      5.365947   260A      5.433501   261A      5.461463  
     262A      5.464355   263A      5.539175   264A      5.635088  
     265A      5.640865   266A      5.641307   267A      5.745244  
     268A      5.755520   269A      5.851908   270A      5.941642  
     271A      5.953354   272A      5.995492   273A      6.132844  
     274A      6.139947   275A      6.235754   276A      6.275611  
     277A      6.280304   278A      6.561057   279A      6.565826  
     280A      6.759385   281A      6.770132   282A      6.829141  
     283A      7.128292   284A      7.129921   285A      7.731575  
     286A      7.733225   287A      7.903325   288A      8.113757  
     289A      8.119838   290A      8.953739   291A      8.988580  
     292A      9.227370   293A      9.227617   294A      9.396012  
     295A      9.425815   296A      9.431037   297A      9.460419  
     298A      9.462090   299A      9.824642   300A      9.827022  
     301A      9.893586   302A     10.186905   303A     10.294746  
     304A     10.364081   305A     10.589071   306A     10.589242  
     307A     10.780148   308A     10.851996   309A     10.856621  
     310A     11.892841   311A     13.059994   312A     13.062460  
     313A     13.352646   314A     13.356248   315A     13.742646  
     316A     14.648558   317A     14.653454   318A     15.099875  
     319A     16.173323   320A     17.478082   321A     52.254405  
     322A     74.704973  

    Final Occupation by Irrep:
              A 
    DOCC [     9 ]

  @DF-RHF Final Energy:  -139.09738432669064

   => Energetics <=

    Nuclear Repulsion Energy =             37.3606231249084146
    One-Electron Energy =                -266.4068845845451960
    Two-Electron Energy =                  89.9488771329461230
    Total Energy =                       -139.0973843266906442

Computation Completed


Properties will be evaluated at   0.000000,   0.000000,   0.000000 [a0]

Properties computed using the SCF density matrix

  Nuclear Dipole Moment: [e a0]
     X:   -97.9424      Y:   -22.7609      Z:     0.0007

  Electronic Dipole Moment: [e a0]
     X:    98.0424      Y:    21.9552      Z:    -0.0008

  Dipole Moment: [e a0]
     X:     0.1000      Y:    -0.8057      Z:    -0.0001     Total:     0.8119

  Dipole Moment: [D]
     X:     0.2542      Y:    -2.0479      Z:    -0.0001     Total:     2.0636


*** tstop() called on node36.bme.utexas.edu at Thu Apr 23 22:27:46 2020
Module time:
	user time   =      24.92 seconds =       0.42 minutes
	system time =       1.17 seconds =       0.02 minutes
	total time  =          4 seconds =       0.07 minutes
Total time:
	user time   =      92.23 seconds =       1.54 minutes
	system time =       4.17 seconds =       0.07 minutes
	total time  =         15 seconds =       0.25 minutes
  Constructing Basis Sets for SAPT...

   => Loading Basis Set <=

    Name: (AUG-CC-PVTZ AUX)
    Role: RIFIT
    Keyword: DF_BASIS_SAPT
    atoms 1, 6      entry F          line   322 file /home/liuchw/anaconda3/envs/psi4env/share/psi4/basis/aug-cc-pvtz-ri.gbs 
    atoms 2, 7      entry C          line   148 file /home/liuchw/anaconda3/envs/psi4env/share/psi4/basis/aug-cc-pvtz-ri.gbs 
    atoms 3-5, 8-10 entry H          line    30 file /home/liuchw/anaconda3/envs/psi4env/share/psi4/basis/aug-cc-pvtz-ri.gbs 


  //>>>>>>>>>>>>>>>>>>>>>>>>>>>>>>>>>>>//
  //               SAPT2+              //
  //<<<<<<<<<<<<<<<<<<<<<<<<<<<<<<<<<<<//


*** tstart() called on node36.bme.utexas.edu
*** at Thu Apr 23 22:27:47 2020

        SAPT2+  
    Ed Hohenstein
     6 June 2009

      Orbital Information
  --------------------------
    NSO        =       322
    NMO        =       322
    NRI        =       700
    NOCC A     =         9
    NOCC B     =         9
    FOCC A     =         2
    FOCC B     =         2
    NVIR A     =       313
    NVIR B     =       313

    Estimated memory usage: 739.1 MB

    Natural Orbital Cutoff:   1.000E-06
    Disp(T3) Truncation:            Yes
    CCD (vv|vv) Truncation:         Yes
    MBPT T2 Truncation:             Yes

    Monomer A: 180 virtual orbitals dropped
    Monomer B: 180 virtual orbitals dropped

    Elst10,r            =    -0.000530173152 [Eh]
    Exch10 (S^2)        =     0.000000286067 [Eh]
    Exch10              =     0.000000286067 [Eh]
    Ind20,r (A<-B)      =    -0.000004414996 [Eh]
    Ind20,r (B<-A)      =    -0.000004414538 [Eh]
    Ind20,r             =    -0.000008829534 [Eh]
    Exch-Ind20,r (A<-B) =     0.000000014659 [Eh]
    Exch-Ind20,r (B<-A) =     0.000000014649 [Eh]
    Exch-Ind20,r        =     0.000000029308 [Eh]
    Disp20              =    -0.000076666344 [Eh]
    Disp20 (NO)         =    -0.000074297648 [Eh]
    Exch-Disp20         =     0.000000048951 [Eh]
    Elst12,r            =     0.000084123001 [Eh]
    Exch11              =    -0.000000014364 [Eh]
    Exch12              =     0.000000095454 [Eh]
    Ind22               =     0.000000800240 [Eh]
    Disp21              =     0.000001723117 [Eh]
    Disp22 (SDQ)        =     0.000001973439 [Eh]

    (i =   1 of   7)          4 seconds
    (i =   2 of   7)          8 seconds
    (i =   3 of   7)         13 seconds
    (i =   4 of   7)         17 seconds
    (i =   5 of   7)         21 seconds
    (i =   6 of   7)         24 seconds
    (i =   7 of   7)         28 seconds

    Disp220 (T)         =    -0.000005859457 [Eh]

    (i =   1 of   7)          4 seconds
    (i =   2 of   7)          8 seconds
    (i =   3 of   7)         11 seconds
    (i =   4 of   7)         15 seconds
    (i =   5 of   7)         19 seconds
    (i =   6 of   7)         22 seconds
    (i =   7 of   7)         26 seconds

    Disp202 (T)         =    -0.000005859612 [Eh]

    Disp22 (T)          =    -0.000011719069 [Eh]

    Est. Disp220 (T)    =    -0.000006046263 [Eh]
    Est. Disp202 (T)    =    -0.000006046423 [Eh]

    Est. Disp22 (T)     =    -0.000012092686 [Eh]

    SAPT Results 
  --------------------------------------------------------------------------------------------------------
    Electrostatics                 -0.44605015 [mEh]      -0.27990070 [kcal/mol]      -1.17110451 [kJ/mol]
      Elst10,r                     -0.53017315 [mEh]      -0.33268868 [kcal/mol]      -1.39196942 [kJ/mol]
      Elst12,r                      0.08412300 [mEh]       0.05278798 [kcal/mol]       0.22086491 [kJ/mol]

    Exchange                        0.00036716 [mEh]       0.00023039 [kcal/mol]       0.00096397 [kJ/mol]
      Exch10                        0.00028607 [mEh]       0.00017951 [kcal/mol]       0.00075107 [kJ/mol]
      Exch10(S^2)                   0.00028607 [mEh]       0.00017951 [kcal/mol]       0.00075107 [kJ/mol]
      Exch11(S^2)                  -0.00001436 [mEh]      -0.00000901 [kcal/mol]      -0.00003771 [kJ/mol]
      Exch12(S^2)                   0.00009545 [mEh]       0.00005990 [kcal/mol]       0.00025062 [kJ/mol]

    Induction                      -0.00824413 [mEh]      -0.00517327 [kcal/mol]      -0.02164496 [kJ/mol]
      Ind20,r                      -0.00882953 [mEh]      -0.00554062 [kcal/mol]      -0.02318194 [kJ/mol]
      Ind22                         0.00080024 [mEh]       0.00050216 [kcal/mol]       0.00210103 [kJ/mol]
      Exch-Ind20,r                  0.00002931 [mEh]       0.00001839 [kcal/mol]       0.00007695 [kJ/mol]
      Exch-Ind22                   -0.00000266 [mEh]      -0.00000167 [kcal/mol]      -0.00000697 [kJ/mol]
      delta HF,r (2)               -0.00024149 [mEh]      -0.00015154 [kcal/mol]      -0.00063403 [kJ/mol]

    Dispersion                     -0.08501352 [mEh]      -0.05334679 [kcal/mol]      -0.22320297 [kJ/mol]
      Disp20                       -0.07666634 [mEh]      -0.04810886 [kcal/mol]      -0.20128746 [kJ/mol]
      Disp21                        0.00172312 [mEh]       0.00108127 [kcal/mol]       0.00452404 [kJ/mol]
      Disp22 (SDQ)                  0.00197344 [mEh]       0.00123835 [kcal/mol]       0.00518126 [kJ/mol]
      Disp22 (T)                   -0.01171907 [mEh]      -0.00735383 [kcal/mol]      -0.03076841 [kJ/mol]
      Est. Disp22 (T)              -0.01209269 [mEh]      -0.00758828 [kcal/mol]      -0.03174934 [kJ/mol]
      Exch-Disp20                   0.00004895 [mEh]       0.00003072 [kcal/mol]       0.00012852 [kJ/mol]

  Total HF                         -0.53892880 [mEh]      -0.33818293 [kcal/mol]      -1.41495737 [kJ/mol]
  Total SAPT0                      -0.61554619 [mEh]      -0.38626107 [kcal/mol]      -1.61611630 [kJ/mol]
  Total SAPT2                      -0.53054452 [mEh]      -0.33292171 [kcal/mol]      -1.39294444 [kJ/mol]
  Total SAPT2+                     -0.53894065 [mEh]      -0.33819036 [kcal/mol]      -1.41498847 [kJ/mol]

  Special recipe for scaled SAPT0 (see Manual):
    Electrostatics sSAPT0          -0.53017315 [mEh]      -0.33268868 [kcal/mol]      -1.39196942 [kJ/mol]
    Exchange sSAPT0                 0.00028607 [mEh]       0.00017951 [kcal/mol]       0.00075107 [kJ/mol]
    Induction sSAPT0               -0.00904171 [mEh]      -0.00567376 [kcal/mol]      -0.02373902 [kJ/mol]
    Dispersion sSAPT0              -0.07661739 [mEh]      -0.04807814 [kcal/mol]      -0.20115894 [kJ/mol]
  Total sSAPT0                     -0.61554619 [mEh]      -0.38626107 [kcal/mol]      -1.61611630 [kJ/mol]
  --------------------------------------------------------------------------------------------------------

*** tstop() called on node36.bme.utexas.edu at Thu Apr 23 22:29:48 2020
Module time:
	user time   =     853.16 seconds =      14.22 minutes
	system time =      38.89 seconds =       0.65 minutes
	total time  =        121 seconds =       2.02 minutes
Total time:
	user time   =     946.41 seconds =      15.77 minutes
	system time =      43.12 seconds =       0.72 minutes
	total time  =        137 seconds =       2.28 minutes

    Psi4 stopped on: Thursday, 23 April 2020 10:29PM
    Psi4 wall time for execution: 0:02:16.49

*** Psi4 exiting successfully. Buy a developer a beer!
