    -----------------------------------------------------------------------
          PSI4: An Open-Source Ab Initio Electronic Structure Package
                              PSI 4.0.0-beta4 Driver

    J. M. Turney, A. C. Simmonett, R. M. Parrish, E. G. Hohenstein,
    F. A. Evangelista, J. T. Fermann, B. J. Mintz, L. A. Burns, J. J. Wilke,
    M. L. Abrams, N. J. Russ, M. L. Leininger, C. L. Janssen, E. T. Seidl,
    W. D. Allen, H. F. Schaefer, R. A. King, E. F. Valeev, C. D. Sherrill,
    and T. D. Crawford, WIREs Comput. Mol. Sci., (2011) (doi: 10.1002/wcms.93)

                         Additional Contributions by
    A. E. DePrince, M. Saitow, U. Bozkaya, A. Yu. Sokolov
    -----------------------------------------------------------------------

    Process ID:  15480
    PSI4DATADIR: /home/xzhu216/psi4/psi4-install/share/psi

    Using LocalCommunicator (Number of processes = 1)

    Memory level set to 256.000 MB

  ==> Input File <==

--------------------------------------------------------------------------
#psi4
#
memory 7 gb

molecule MeF_MeF {
0 1
    F     1.798660000    -0.304510000     0.000167000
    C     1.627343000     1.070432000     0.000107000
    H     0.564776000     1.293985000     0.000086000
    H     2.096654000     1.483171000    -0.888816000
    H     2.096634000     1.483247000     0.889004000
--
0 1
    F    -1.540950518     0.354562522     0.000214293
    C    -1.369756518    -1.020392478     0.000124293
    H    -1.839199518    -1.433083478    -0.888750707
    H    -1.838992518    -1.433174478     0.889066293
    H    -0.307210518    -1.244048478    -0.000009707
units angstrom
no_reorient  #important for SAPT in psi4, default
symmetry c1  #important for SAPT in psi4, default
}

set {
basis aug-cc-pVTZ
scf_type DF
freeze_core True
}
energy('sapt2+')
--------------------------------------------------------------------------

  Memory set to   7.000 GiB by Python script.

  //>>>>>>>>>>>>>>>>>>>>>>>>>>>>>>>>>>>//
  //              Dimer HF             //
  //<<<<<<<<<<<<<<<<<<<<<<<<<<<<<<<<<<<//


  No DF_BASIS_SCF auxiliary basis selected, defaulting to aug-cc-pvtz-jkfit


*** tstart() called on node66.bme.utexas.edu
*** at Fri Jun 20 15:39:20 2014


         ---------------------------------------------------------
                                   SCF
            by Justin Turney, Rob Parrish, and Andy Simmonett
                              RHF Reference
                        4 Threads,   7000 MiB Core
         ---------------------------------------------------------

  ==> Geometry <==

    Molecular point group: c1
    Full point group: C1

    Geometry (in Angstrom), charge = 0, multiplicity = 1:

       Center              X                  Y                   Z       
    ------------   -----------------  -----------------  -----------------
           F          1.669833867860    -0.329533064861     0.000011160710
           C          1.498516867860     1.045408935139    -0.000048839290
           H          0.435949867860     1.268961935139    -0.000069839290
           H          1.967827867860     1.458147935139    -0.888971839290
           H          1.967807867860     1.458223935139     0.888848160710
           F         -1.669776650140     0.329539457139     0.000058453710
           C         -1.498582650140    -1.045415542861    -0.000031546290
           H         -1.968025650140    -1.458106542861    -0.888906546290
           H         -1.967818650140    -1.458197542861     0.888910453710
           H         -0.436036650140    -1.269071542861    -0.000165546290

  Running in c1 symmetry.

  Nuclear repulsion =  125.317482499382493

  Charge       = 0
  Multiplicity = 1
  Electrons    = 36
  Nalpha       = 18
  Nbeta        = 18

  ==> Algorithm <==

  SCF Algorithm Type is DF.
  DIIS enabled.
  MOM disabled.
  Fractional occupation disabled.
  Guess Type is CORE.
  Energy threshold   = 1.00e-08
  Density threshold  = 1.00e-08
  Integral threshold = 0.00e+00

  ==> Primary Basis <==

  Basis Set: AUG-CC-PVTZ
    Number of shells: 110
    Number of basis function: 322
    Number of Cartesian functions: 370
    Spherical Harmonics?: true
    Max angular momentum: 3

  ==> Pre-Iterations <==

   -------------------------------------------------------
    Irrep   Nso     Nmo     Nalpha   Nbeta   Ndocc  Nsocc
   -------------------------------------------------------
     A        322     322       0       0       0       0
   -------------------------------------------------------
    Total     322     322      18      18      18       0
   -------------------------------------------------------

 OEINTS: Wrapper to libmints.
   by Justin Turney

   Calculation information:
      Number of atoms:                  10
      Number of AO shells:             110
      Number of SO shells:             110
      Number of primitives:            186
      Number of atomic orbitals:       370
      Number of basis functions:       322

      Number of irreps:                  1
      Number of functions per irrep: [ 322 ]

      Overlap, kinetic, potential, dipole, and quadrupole integrals
        stored in file 35.

  ==> Integral Setup <==

  ==> DFJK: Density-Fitted J/K Matrices <==

    J tasked:                  Yes
    K tasked:                  Yes
    wK tasked:                  No
    OpenMP threads:              4
    Integrals threads:           4
    Memory (MB):              5006
    Algorithm:                Core
    Integral Cache:           SAVE
    Schwarz Cutoff:          0E+00
    Fitting Condition:       1E-12

   => Auxiliary Basis Set <=

  Basis Set: aug-cc-pvtz-jkfit
    Number of shells: 204
    Number of basis function: 692
    Number of Cartesian functions: 854
    Spherical Harmonics?: true
    Max angular momentum: 4

  Minimum eigenvalue in the overlap matrix is 3.6217192203E-05.
  Using Symmetric Orthogonalization.
  SCF Guess: Core (One-Electron) Hamiltonian.

  Guess energy:  -221.94335281442733

  ==> Iterations <==

                        Total Energy        Delta E     RMS |[F,P]|

   @RHF iter   1:  -227.80648943979958   -2.27806e+02   4.44064e-02 
   @RHF iter   2:  -213.54430732161205    1.42622e+01   1.60812e-02 DIIS
   @RHF iter   3:  -256.47780867308563   -4.29335e+01   2.52411e-02 DIIS
   @RHF iter   4:  -266.33668839408989   -9.85888e+00   1.79550e-02 DIIS
   @RHF iter   5:  -273.51925996217642   -7.18257e+00   1.09825e-02 DIIS
   @RHF iter   6:  -277.48195519963986   -3.96270e+00   3.79889e-03 DIIS
   @RHF iter   7:  -278.09085881253367   -6.08904e-01   1.56572e-03 DIIS
   @RHF iter   8:  -278.19246025003821   -1.01601e-01   2.53840e-04 DIIS
   @RHF iter   9:  -278.19519855337728   -2.73830e-03   5.77876e-05 DIIS
   @RHF iter  10:  -278.19546869133467   -2.70138e-04   9.70398e-06 DIIS
   @RHF iter  11:  -278.19547820347799   -9.51214e-06   2.12482e-06 DIIS
   @RHF iter  12:  -278.19547865937551   -4.55898e-07   3.59963e-07 DIIS
   @RHF iter  13:  -278.19547867683281   -1.74573e-08   1.00879e-07 DIIS
   @RHF iter  14:  -278.19547867801072   -1.17791e-09   3.14442e-08 DIIS
   @RHF iter  15:  -278.19547867809086   -8.01492e-11   1.37081e-08 DIIS
   @RHF iter  16:  -278.19547867810184   -1.09708e-11   2.73147e-09 DIIS

  ==> Post-Iterations <==

	Orbital Energies (a.u.)
	-----------------------

	Doubly Occupied:                                                      

	   1A    -26.279019     2A    -26.279015     3A    -11.297654  
	   4A    -11.297650     5A     -1.588644     6A     -1.587305  
	   7A     -0.953471     8A     -0.950084     9A     -0.712362  
	  10A     -0.695668    11A     -0.693092    12A     -0.682249  
	  13A     -0.676146    14A     -0.667884    15A     -0.541117  
	  16A     -0.529439    17A     -0.527790    18A     -0.513707  

	Virtual:                                                              

	  19A      0.030898    20A      0.038162    21A      0.043145  
	  22A      0.054591    23A      0.055625    24A      0.066625  
	  25A      0.087593    26A      0.119090    27A      0.119302  
	  28A      0.125728    29A      0.130378    30A      0.144052  
	  31A      0.154823    32A      0.159090    33A      0.194885  
	  34A      0.215205    35A      0.216758    36A      0.220293  
	  37A      0.227584    38A      0.229597    39A      0.232069  
	  40A      0.268490    41A      0.276566    42A      0.281530  
	  43A      0.308002    44A      0.316552    45A      0.317075  
	  46A      0.319778    47A      0.326482    48A      0.326972  
	  49A      0.327585    50A      0.331801    51A      0.367124  
	  52A      0.367367    53A      0.392979    54A      0.394229  
	  55A      0.399363    56A      0.400736    57A      0.410530  
	  58A      0.414204    59A      0.438192    60A      0.440638  
	  61A      0.446955    62A      0.450185    63A      0.455127  
	  64A      0.474403    65A      0.479876    66A      0.497987  
	  67A      0.515449    68A      0.517908    69A      0.521707  
	  70A      0.550034    71A      0.553143    72A      0.557419  
	  73A      0.571102    74A      0.585616    75A      0.595538  
	  76A      0.617549    77A      0.664204    78A      0.681480  
	  79A      0.749928    80A      0.761049    81A      0.786735  
	  82A      0.788270    83A      0.789698    84A      0.814179  
	  85A      0.818937    86A      0.838661    87A      0.840398  
	  88A      0.872319    89A      0.883255    90A      0.886536  
	  91A      0.913385    92A      0.919125    93A      0.935687  
	  94A      0.939537    95A      0.951624    96A      0.964593  
	  97A      0.981769    98A      0.987064    99A      0.987486  
	 100A      0.997796   101A      1.014192   102A      1.023146  
	 103A      1.042586   104A      1.042609   105A      1.047038  
	 106A      1.064073   107A      1.074527   108A      1.084027  
	 109A      1.085396   110A      1.108615   111A      1.113624  
	 112A      1.128567   113A      1.132859   114A      1.144145  
	 115A      1.150365   116A      1.172131   117A      1.189417  
	 118A      1.199006   119A      1.212336   120A      1.227976  
	 121A      1.230390   122A      1.243782   123A      1.252275  
	 124A      1.290772   125A      1.296374   126A      1.297718  
	 127A      1.306365   128A      1.317556   129A      1.345599  
	 130A      1.363889   131A      1.389034   132A      1.432090  
	 133A      1.478016   134A      1.502025   135A      1.545632  
	 136A      1.553596   137A      1.564134   138A      1.578581  
	 139A      1.582037   140A      1.610608   141A      1.629430  
	 142A      1.648673   143A      1.654258   144A      1.679184  
	 145A      1.680498   146A      1.682237   147A      1.690462  
	 148A      1.703993   149A      1.737642   150A      1.741645  
	 151A      1.750766   152A      1.757967   153A      1.760394  
	 154A      1.778725   155A      1.806968   156A      1.814409  
	 157A      1.882646   158A      1.896925   159A      1.899483  
	 160A      1.929027   161A      1.931965   162A      1.984274  
	 163A      2.005416   164A      2.014824   165A      2.026087  
	 166A      2.030276   167A      2.079972   168A      2.098975  
	 169A      2.124307   170A      2.175671   171A      2.210328  
	 172A      2.223131   173A      2.252063   174A      2.259248  
	 175A      2.276837   176A      2.304041   177A      2.626111  
	 178A      2.635178   179A      2.772502   180A      2.819951  
	 181A      2.977048   182A      2.977449   183A      2.978662  
	 184A      2.986925   185A      3.028235   186A      3.054703  
	 187A      3.105142   188A      3.112744   189A      3.117354  
	 190A      3.119300   191A      3.163908   192A      3.184826  
	 193A      3.236996   194A      3.245619   195A      3.254197  
	 196A      3.287382   197A      3.292341   198A      3.330106  
	 199A      3.357371   200A      3.410523   201A      3.451331  
	 202A      3.485693   203A      3.496857   204A      3.515144  
	 205A      3.528310   206A      3.531809   207A      3.540968  
	 208A      3.555908   209A      3.559541   210A      3.578094  
	 211A      3.578286   212A      3.583197   213A      3.635475  
	 214A      3.641954   215A      3.690322   216A      3.707249  
	 217A      3.742982   218A      3.772119   219A      3.783577  
	 220A      3.788053   221A      3.834830   222A      3.887212  
	 223A      3.894996   224A      3.899736   225A      3.953467  
	 226A      3.978922   227A      4.030859   228A      4.059971  
	 229A      4.074920   230A      4.090005   231A      4.091190  
	 232A      4.124363   233A      4.130084   234A      4.132470  
	 235A      4.144793   236A      4.200316   237A      4.242311  
	 238A      4.251514   239A      4.298926   240A      4.305680  
	 241A      4.416343   242A      4.447014   243A      4.455229  
	 244A      4.463109   245A      4.496569   246A      4.570405  
	 247A      4.720561   248A      4.735496   249A      4.751508  
	 250A      4.752973   251A      4.767800   252A      4.798498  
	 253A      4.799251   254A      4.805773   255A      4.819835  
	 256A      4.866133   257A      4.896172   258A      4.921862  
	 259A      4.932342   260A      4.968370   261A      4.984471  
	 262A      5.056750   263A      5.080039   264A      5.085082  
	 265A      5.179796   266A      5.207649   267A      5.245546  
	 268A      5.314421   269A      5.349432   270A      5.360054  
	 271A      5.606092   272A      5.615503   273A      5.644651  
	 274A      5.648148   275A      5.658735   276A      5.662073  
	 277A      5.665740   278A      5.696053   279A      5.760589  
	 280A      5.800614   281A      5.850252   282A      5.947374  
	 283A      6.050279   284A      6.084377   285A      6.136659  
	 286A      6.178411   287A      6.187721   288A      6.369058  
	 289A      6.587569   290A      6.612552   291A      6.620034  
	 292A      6.711178   293A      7.176792   294A      7.195907  
	 295A      9.013003   296A      9.031021   297A      9.057908  
	 298A      9.067481   299A      9.224776   300A      9.236407  
	 301A      9.246708   302A      9.264839   303A      9.401790  
	 304A      9.422105   305A      9.426320   306A      9.444026  
	 307A      9.484886   308A      9.490092   309A      9.501461  
	 310A      9.575558   311A      9.594574   312A      9.595201  
	 313A      9.840324   314A      9.842243   315A      9.876808  
	 316A      9.904768   317A      9.941526   318A      9.961002  
	 319A     15.424655   320A     15.440616   321A     17.783507  
	 322A     17.842115  

	Final Occupation by Irrep:
	          A 
	DOCC [    18 ]

  Energy converged.

  @RHF Final Energy:  -278.19547867810184

   => Energetics <=

    Nuclear Repulsion Energy =            125.3174824993824927
    One-Electron Energy =                -634.0813280652504318
    Two-Electron Energy =                 230.5683668877658192
    DFT Exchange-Correlation Energy =       0.0000000000000000
    Empirical Dispersion Energy =           0.0000000000000000
    Total Energy =                       -278.1954786781021198



Properties will be evaluated at   0.000000,   0.000000,   0.000000 Bohr
  ==> Properties <==


Properties computed using the SCF density density matrix
  Nuclear Dipole Moment: (a.u.)
     X:    -0.0003      Y:    -0.0000      Z:    -0.0004

  Electronic Dipole Moment: (a.u.)
     X:     0.0002      Y:     0.0000      Z:     0.0003

  Dipole Moment: (a.u.)
     X:    -0.0001      Y:    -0.0000      Z:    -0.0001     Total:     0.0001

  Dipole Moment: (Debye)
     X:    -0.0003      Y:    -0.0000      Z:    -0.0002     Total:     0.0003


  Saving occupied orbitals to File 180.

  Saving SAPT 2-DIMER file.

*** tstop() called on node66.bme.utexas.edu at Fri Jun 20 15:39:47 2014
Module time:
	user time   =     101.54 seconds =       1.69 minutes
	system time =       1.30 seconds =       0.02 minutes
	total time  =         27 seconds =       0.45 minutes
Total time:
	user time   =     101.54 seconds =       1.69 minutes
	system time =       1.30 seconds =       0.02 minutes
	total time  =         27 seconds =       0.45 minutes

  //>>>>>>>>>>>>>>>>>>>>>>>>>>>>>>>>>>>//
  //            Monomer A HF           //
  //<<<<<<<<<<<<<<<<<<<<<<<<<<<<<<<<<<<//


  No DF_BASIS_SCF auxiliary basis selected, defaulting to aug-cc-pvtz-jkfit


*** tstart() called on node66.bme.utexas.edu
*** at Fri Jun 20 15:39:47 2014


         ---------------------------------------------------------
                                   SCF
            by Justin Turney, Rob Parrish, and Andy Simmonett
                              RHF Reference
                        4 Threads,   7000 MiB Core
         ---------------------------------------------------------

  ==> Geometry <==

    Molecular point group: c1
    Full point group: C1

    Geometry (in Angstrom), charge = 0, multiplicity = 1:

       Center              X                  Y                   Z       
    ------------   -----------------  -----------------  -----------------
           F          1.669833867860    -0.329533064861     0.000011160710
           C          1.498516867860     1.045408935139    -0.000048839290
           H          0.435949867860     1.268961935139    -0.000069839290
           H          1.967827867860     1.458147935139    -0.888971839290
           H          1.967807867860     1.458223935139     0.888848160710
           F(Gh)     -1.669776650140     0.329539457139     0.000058453710
           C(Gh)     -1.498582650140    -1.045415542861    -0.000031546290
           H(Gh)     -1.968025650140    -1.458106542861    -0.888906546290
           H(Gh)     -1.967818650140    -1.458197542861     0.888910453710
           H(Gh)     -0.436036650140    -1.269071542861    -0.000165546290

  Running in c1 symmetry.

  Nuclear repulsion =   37.360518930035020

  Charge       = 0
  Multiplicity = 1
  Electrons    = 18
  Nalpha       = 9
  Nbeta        = 9

  ==> Algorithm <==

  SCF Algorithm Type is DF.
  DIIS enabled.
  MOM disabled.
  Fractional occupation disabled.
  Guess Type is CORE.
  Energy threshold   = 1.00e-08
  Density threshold  = 1.00e-08
  Integral threshold = 0.00e+00

  ==> Primary Basis <==

  Basis Set: AUG-CC-PVTZ
    Number of shells: 110
    Number of basis function: 322
    Number of Cartesian functions: 370
    Spherical Harmonics?: true
    Max angular momentum: 3

  ==> Pre-Iterations <==

   -------------------------------------------------------
    Irrep   Nso     Nmo     Nalpha   Nbeta   Ndocc  Nsocc
   -------------------------------------------------------
     A        322     322       0       0       0       0
   -------------------------------------------------------
    Total     322     322       9       9       9       0
   -------------------------------------------------------

 OEINTS: Wrapper to libmints.
   by Justin Turney

   Calculation information:
      Number of atoms:                  10
      Number of AO shells:             110
      Number of SO shells:             110
      Number of primitives:            186
      Number of atomic orbitals:       370
      Number of basis functions:       322

      Number of irreps:                  1
      Number of functions per irrep: [ 322 ]

      Overlap, kinetic, potential, dipole, and quadrupole integrals
        stored in file 35.

  ==> Integral Setup <==

  ==> DFJK: Density-Fitted J/K Matrices <==

    J tasked:                  Yes
    K tasked:                  Yes
    wK tasked:                  No
    OpenMP threads:              4
    Integrals threads:           4
    Memory (MB):              5006
    Algorithm:                Core
    Integral Cache:           LOAD
    Schwarz Cutoff:          0E+00
    Fitting Condition:       1E-12

   => Auxiliary Basis Set <=

  Basis Set: aug-cc-pvtz-jkfit
    Number of shells: 204
    Number of basis function: 692
    Number of Cartesian functions: 854
    Spherical Harmonics?: true
    Max angular momentum: 4

  Minimum eigenvalue in the overlap matrix is 3.6217192203E-05.
  Using Symmetric Orthogonalization.
  SCF Guess: Core (One-Electron) Hamiltonian.

  Guess energy:  -110.67049699109003

  ==> Iterations <==

                        Total Energy        Delta E     RMS |[F,P]|

   @RHF iter   1:  -113.74910038971248   -1.13749e+02   3.14260e-02 
   @RHF iter   2:  -108.76145458704536    4.98765e+00   1.03206e-02 DIIS
   @RHF iter   3:  -127.30701938270090   -1.85456e+01   1.89233e-02 DIIS
   @RHF iter   4:  -131.69333686734768   -4.38632e+00   1.45983e-02 DIIS
   @RHF iter   5:  -135.58042063965064   -3.88708e+00   9.88421e-03 DIIS
   @RHF iter   6:  -138.28109226782325   -2.70067e+00   4.36889e-03 DIIS
   @RHF iter   7:  -138.95899248469328   -6.77900e-01   1.84855e-03 DIIS
   @RHF iter   8:  -139.09441837005588   -1.35426e-01   2.96705e-04 DIIS
   @RHF iter   9:  -139.09718085126474   -2.76248e-03   7.78497e-05 DIIS
   @RHF iter  10:  -139.09750788392941   -3.27033e-04   8.92846e-06 DIIS
   @RHF iter  11:  -139.09751268595650   -4.80203e-06   2.38984e-06 DIIS
   @RHF iter  12:  -139.09751314685644   -4.60900e-07   5.80162e-07 DIIS
   @RHF iter  13:  -139.09751316773921   -2.08828e-08   4.97792e-08 DIIS
   @RHF iter  14:  -139.09751316803508   -2.95870e-10   6.71170e-09 DIIS

  ==> Post-Iterations <==

	Orbital Energies (a.u.)
	-----------------------

	Doubly Occupied:                                                      

	   1A    -26.278195     2A    -11.305501     3A     -1.585977  
	   4A     -0.956228     5A     -0.695356     6A     -0.694941  
	   7A     -0.673859     8A     -0.532426     9A     -0.531570  

	Virtual:                                                              

	  10A      0.025086    11A      0.036308    12A      0.042092  
	  13A      0.050295    14A      0.055045    15A      0.066879  
	  16A      0.086564    17A      0.103141    18A      0.117333  
	  19A      0.118097    20A      0.121257    21A      0.129196  
	  22A      0.147870    23A      0.153615    24A      0.186054  
	  25A      0.188284    26A      0.216914    27A      0.223658  
	  28A      0.226727    29A      0.229531    30A      0.235644  
	  31A      0.260859    32A      0.264736    33A      0.280553  
	  34A      0.295888    35A      0.299168    36A      0.308474  
	  37A      0.313343    38A      0.323406    39A      0.328688  
	  40A      0.330431    41A      0.336122    42A      0.337458  
	  43A      0.355283    44A      0.376502    45A      0.385610  
	  46A      0.396926    47A      0.408440    48A      0.412608  
	  49A      0.416223    50A      0.431302    51A      0.442400  
	  52A      0.452749    53A      0.454796    54A      0.460650  
	  55A      0.483344    56A      0.489456    57A      0.498593  
	  58A      0.517457    59A      0.531942    60A      0.532536  
	  61A      0.554651    62A      0.559432    63A      0.561741  
	  64A      0.579339    65A      0.588948    66A      0.610676  
	  67A      0.614478    68A      0.626442    69A      0.673196  
	  70A      0.697348    71A      0.735827    72A      0.740520  
	  73A      0.782174    74A      0.806512    75A      0.811222  
	  76A      0.825744    77A      0.883191    78A      0.887121  
	  79A      0.897943    80A      0.912576    81A      0.930094  
	  82A      0.946694    83A      0.947691    84A      0.957163  
	  85A      0.958486    86A      0.982880    87A      0.997502  
	  88A      1.004762    89A      1.010402    90A      1.015695  
	  91A      1.025005    92A      1.025890    93A      1.054178  
	  94A      1.063319    95A      1.067130    96A      1.076258  
	  97A      1.076294    98A      1.103437    99A      1.108955  
	 100A      1.110581   101A      1.115468   102A      1.127052  
	 103A      1.137883   104A      1.156458   105A      1.171482  
	 106A      1.178033   107A      1.189437   108A      1.191398  
	 109A      1.200492   110A      1.208628   111A      1.212378  
	 112A      1.227086   113A      1.255866   114A      1.267028  
	 115A      1.279169   116A      1.298465   117A      1.301483  
	 118A      1.323954   119A      1.328798   120A      1.353479  
	 121A      1.371529   122A      1.391083   123A      1.402814  
	 124A      1.438218   125A      1.448026   126A      1.472294  
	 127A      1.517676   128A      1.555716   129A      1.559814  
	 130A      1.583399   131A      1.608020   132A      1.623072  
	 133A      1.625167   134A      1.652423   135A      1.687695  
	 136A      1.703121   137A      1.705972   138A      1.724852  
	 139A      1.740516   140A      1.759244   141A      1.760320  
	 142A      1.776648   143A      1.822269   144A      1.841713  
	 145A      1.853702   146A      1.853780   147A      1.889924  
	 148A      1.893855   149A      1.913289   150A      1.923860  
	 151A      1.945242   152A      1.982146   153A      2.023408  
	 154A      2.048190   155A      2.069641   156A      2.079765  
	 157A      2.091750   158A      2.123878   159A      2.143854  
	 160A      2.189085   161A      2.209494   162A      2.224792  
	 163A      2.251067   164A      2.255634   165A      2.314478  
	 166A      2.364986   167A      2.441075   168A      2.474213  
	 169A      2.481096   170A      2.625556   171A      2.705312  
	 172A      2.721036   173A      2.775075   174A      2.849202  
	 175A      2.984129   176A      2.986599   177A      3.043457  
	 178A      3.114476   179A      3.128950   180A      3.187325  
	 181A      3.241034   182A      3.273499   183A      3.275090  
	 184A      3.283681   185A      3.294715   186A      3.325398  
	 187A      3.409254   188A      3.413726   189A      3.480181  
	 190A      3.497485   191A      3.516680   192A      3.541335  
	 193A      3.546585   194A      3.557845   195A      3.563582  
	 196A      3.602452   197A      3.650709   198A      3.665984  
	 199A      3.714404   200A      3.744540   201A      3.766085  
	 202A      3.801835   203A      3.809558   204A      3.825494  
	 205A      3.848034   206A      3.849698   207A      3.873046  
	 208A      3.900661   209A      3.969580   210A      3.985683  
	 211A      4.028947   212A      4.034030   213A      4.043877  
	 214A      4.055147   215A      4.070309   216A      4.089458  
	 217A      4.131656   218A      4.143477   219A      4.166711  
	 220A      4.180602   221A      4.185368   222A      4.214127  
	 223A      4.256670   224A      4.260270   225A      4.319357  
	 226A      4.382834   227A      4.429257   228A      4.449289  
	 229A      4.451182   230A      4.505756   231A      4.508651  
	 232A      4.565030   233A      4.602142   234A      4.617404  
	 235A      4.651258   236A      4.723939   237A      4.725315  
	 238A      4.750047   239A      4.777427   240A      4.780827  
	 241A      4.802770   242A      4.848221   243A      4.855146  
	 244A      4.913607   245A      4.944365   246A      4.962944  
	 247A      4.986515   248A      5.019889   249A      5.090313  
	 250A      5.115733   251A      5.189718   252A      5.199888  
	 253A      5.213276   254A      5.298319   255A      5.318571  
	 256A      5.350780   257A      5.359506   258A      5.392470  
	 259A      5.468144   260A      5.475179   261A      5.508639  
	 262A      5.515521   263A      5.623253   264A      5.640946  
	 265A      5.654501   266A      5.678084   267A      5.780477  
	 268A      5.887853   269A      5.956014   270A      5.971341  
	 271A      6.028395   272A      6.035507   273A      6.150731  
	 274A      6.239397   275A      6.257817   276A      6.285825  
	 277A      6.314527   278A      6.594510   279A      6.649625  
	 280A      6.785876   281A      6.868995   282A      6.911304  
	 283A      7.171250   284A      7.213274   285A      7.765648  
	 286A      7.805337   287A      7.963523   288A      8.156106  
	 289A      8.196666   290A      9.044713   291A      9.052510  
	 292A      9.232793   293A      9.260834   294A      9.418308  
	 295A      9.436498   296A      9.488595   297A      9.538103  
	 298A      9.597191   299A      9.842524   300A      9.891142  
	 301A      9.950988   302A     10.311439   303A     10.353596  
	 304A     10.431836   305A     10.590407   306A     10.614348  
	 307A     10.809016   308A     10.866305   309A     10.914964  
	 310A     12.069595   311A     13.117278   312A     13.148082  
	 313A     13.371896   314A     13.463054   315A     13.818378  
	 316A     14.672455   317A     14.868707   318A     15.457180  
	 319A     16.212765   320A     17.807124   321A     52.911540  
	 322A     75.392329  

	Final Occupation by Irrep:
	          A 
	DOCC [     9 ]

  Energy converged.

  @RHF Final Energy:  -139.09751316803508

   => Energetics <=

    Nuclear Repulsion Energy =             37.3605189300350204
    One-Electron Energy =                -266.4079623120389329
    Two-Electron Energy =                  89.9499302139690258
    DFT Exchange-Correlation Energy =       0.0000000000000000
    Empirical Dispersion Energy =           0.0000000000000000
    Total Energy =                       -139.0975131680348795



Properties will be evaluated at   0.000000,   0.000000,   0.000000 Bohr
  ==> Properties <==


Properties computed using the SCF density density matrix
  Nuclear Dipole Moment: (a.u.)
     X:    53.6516      Y:    14.1578      Z:    -0.0007

  Electronic Dipole Moment: (a.u.)
     X:   -53.7515      Y:   -13.3527      Z:     0.0007

  Dipole Moment: (a.u.)
     X:    -0.0999      Y:     0.8051      Z:    -0.0000     Total:     0.8113

  Dipole Moment: (Debye)
     X:    -0.2539      Y:     2.0463      Z:    -0.0001     Total:     2.0620


  Saving occupied orbitals to File 180.

  Saving SAPT 2-MONOMER_A file.

*** tstop() called on node66.bme.utexas.edu at Fri Jun 20 15:40:06 2014
Module time:
	user time   =      72.53 seconds =       1.21 minutes
	system time =       0.87 seconds =       0.01 minutes
	total time  =         19 seconds =       0.32 minutes
Total time:
	user time   =     174.12 seconds =       2.90 minutes
	system time =       2.17 seconds =       0.04 minutes
	total time  =         46 seconds =       0.77 minutes

  //>>>>>>>>>>>>>>>>>>>>>>>>>>>>>>>>>>>//
  //            Monomer B HF           //
  //<<<<<<<<<<<<<<<<<<<<<<<<<<<<<<<<<<<//


  No DF_BASIS_SCF auxiliary basis selected, defaulting to aug-cc-pvtz-jkfit


*** tstart() called on node66.bme.utexas.edu
*** at Fri Jun 20 15:40:06 2014


         ---------------------------------------------------------
                                   SCF
            by Justin Turney, Rob Parrish, and Andy Simmonett
                              RHF Reference
                        4 Threads,   7000 MiB Core
         ---------------------------------------------------------

  ==> Geometry <==

    Molecular point group: c1
    Full point group: C1

    Geometry (in Angstrom), charge = 0, multiplicity = 1:

       Center              X                  Y                   Z       
    ------------   -----------------  -----------------  -----------------
           F(Gh)      1.669833867860    -0.329533064861     0.000011160710
           C(Gh)      1.498516867860     1.045408935139    -0.000048839290
           H(Gh)      0.435949867860     1.268961935139    -0.000069839290
           H(Gh)      1.967827867860     1.458147935139    -0.888971839290
           H(Gh)      1.967807867860     1.458223935139     0.888848160710
           F         -1.669776650140     0.329539457139     0.000058453710
           C         -1.498582650140    -1.045415542861    -0.000031546290
           H         -1.968025650140    -1.458106542861    -0.888906546290
           H         -1.967818650140    -1.458197542861     0.888910453710
           H         -0.436036650140    -1.269071542861    -0.000165546290

  Running in c1 symmetry.

  Nuclear repulsion =   37.360550282132380

  Charge       = 0
  Multiplicity = 1
  Electrons    = 18
  Nalpha       = 9
  Nbeta        = 9

  ==> Algorithm <==

  SCF Algorithm Type is DF.
  DIIS enabled.
  MOM disabled.
  Fractional occupation disabled.
  Guess Type is CORE.
  Energy threshold   = 1.00e-08
  Density threshold  = 1.00e-08
  Integral threshold = 0.00e+00

  ==> Primary Basis <==

  Basis Set: AUG-CC-PVTZ
    Number of shells: 110
    Number of basis function: 322
    Number of Cartesian functions: 370
    Spherical Harmonics?: true
    Max angular momentum: 3

  ==> Pre-Iterations <==

   -------------------------------------------------------
    Irrep   Nso     Nmo     Nalpha   Nbeta   Ndocc  Nsocc
   -------------------------------------------------------
     A        322     322       0       0       0       0
   -------------------------------------------------------
    Total     322     322       9       9       9       0
   -------------------------------------------------------

 OEINTS: Wrapper to libmints.
   by Justin Turney

   Calculation information:
      Number of atoms:                  10
      Number of AO shells:             110
      Number of SO shells:             110
      Number of primitives:            186
      Number of atomic orbitals:       370
      Number of basis functions:       322

      Number of irreps:                  1
      Number of functions per irrep: [ 322 ]

      Overlap, kinetic, potential, dipole, and quadrupole integrals
        stored in file 35.

  ==> Integral Setup <==

  ==> DFJK: Density-Fitted J/K Matrices <==

    J tasked:                  Yes
    K tasked:                  Yes
    wK tasked:                  No
    OpenMP threads:              4
    Integrals threads:           4
    Memory (MB):              5006
    Algorithm:                Core
    Integral Cache:           LOAD
    Schwarz Cutoff:          0E+00
    Fitting Condition:       1E-12

   => Auxiliary Basis Set <=

  Basis Set: aug-cc-pvtz-jkfit
    Number of shells: 204
    Number of basis function: 692
    Number of Cartesian functions: 854
    Spherical Harmonics?: true
    Max angular momentum: 4

  Minimum eigenvalue in the overlap matrix is 3.6217192203E-05.
  Using Symmetric Orthogonalization.
  SCF Guess: Core (One-Electron) Hamiltonian.

  Guess energy:  -110.67050645148220

  ==> Iterations <==

                        Total Energy        Delta E     RMS |[F,P]|

   @RHF iter   1:  -113.74907738546008   -1.13749e+02   3.14260e-02 
   @RHF iter   2:  -108.76148569382272    4.98759e+00   1.03206e-02 DIIS
   @RHF iter   3:  -127.30698337069828   -1.85455e+01   1.89234e-02 DIIS
   @RHF iter   4:  -131.69330699090008   -4.38632e+00   1.45983e-02 DIIS
   @RHF iter   5:  -135.58039757942271   -3.88709e+00   9.88424e-03 DIIS
   @RHF iter   6:  -138.28107862885227   -2.70068e+00   4.36894e-03 DIIS
   @RHF iter   7:  -138.95898894560824   -6.77910e-01   1.84857e-03 DIIS
   @RHF iter   8:  -139.09441840112444   -1.35429e-01   2.96706e-04 DIIS
   @RHF iter   9:  -139.09718090672783   -2.76251e-03   7.78506e-05 DIIS
   @RHF iter  10:  -139.09750794502216   -3.27038e-04   8.92855e-06 DIIS
   @RHF iter  11:  -139.09751274700855   -4.80199e-06   2.38984e-06 DIIS
   @RHF iter  12:  -139.09751320790534   -4.60897e-07   5.80158e-07 DIIS
   @RHF iter  13:  -139.09751322878819   -2.08829e-08   4.97805e-08 DIIS
   @RHF iter  14:  -139.09751322908377   -2.95586e-10   6.71185e-09 DIIS

  ==> Post-Iterations <==

	Orbital Energies (a.u.)
	-----------------------

	Doubly Occupied:                                                      

	   1A    -26.278196     2A    -11.305501     3A     -1.585978  
	   4A     -0.956228     5A     -0.695356     6A     -0.694942  
	   7A     -0.673860     8A     -0.532426     9A     -0.531569  

	Virtual:                                                              

	  10A      0.025087    11A      0.036308    12A      0.042092  
	  13A      0.050295    14A      0.055045    15A      0.066880  
	  16A      0.086564    17A      0.103142    18A      0.117334  
	  19A      0.118097    20A      0.121256    21A      0.129197  
	  22A      0.147869    23A      0.153615    24A      0.186053  
	  25A      0.188285    26A      0.216914    27A      0.223659  
	  28A      0.226729    29A      0.229529    30A      0.235645  
	  31A      0.260859    32A      0.264736    33A      0.280554  
	  34A      0.295889    35A      0.299169    36A      0.308470  
	  37A      0.313346    38A      0.323406    39A      0.328691  
	  40A      0.330426    41A      0.336128    42A      0.337457  
	  43A      0.355282    44A      0.376501    45A      0.385607  
	  46A      0.396925    47A      0.408443    48A      0.412608  
	  49A      0.416224    50A      0.431308    51A      0.442400  
	  52A      0.452751    53A      0.454796    54A      0.460649  
	  55A      0.483343    56A      0.489459    57A      0.498589  
	  58A      0.517460    59A      0.531945    60A      0.532533  
	  61A      0.554652    62A      0.559421    63A      0.561743  
	  64A      0.579347    65A      0.588951    66A      0.610690  
	  67A      0.614480    68A      0.626437    69A      0.673197  
	  70A      0.697350    71A      0.735820    72A      0.740520  
	  73A      0.782179    74A      0.806512    75A      0.811222  
	  76A      0.825739    77A      0.883195    78A      0.887130  
	  79A      0.897944    80A      0.912580    81A      0.930092  
	  82A      0.946692    83A      0.947680    84A      0.957168  
	  85A      0.958484    86A      0.982878    87A      0.997485  
	  88A      1.004765    89A      1.010402    90A      1.015693  
	  91A      1.025015    92A      1.025893    93A      1.054178  
	  94A      1.063317    95A      1.067139    96A      1.076251  
	  97A      1.076301    98A      1.103438    99A      1.108955  
	 100A      1.110576   101A      1.115469   102A      1.127046  
	 103A      1.137886   104A      1.156450   105A      1.171481  
	 106A      1.178045   107A      1.189463   108A      1.191392  
	 109A      1.200494   110A      1.208627   111A      1.212373  
	 112A      1.227081   113A      1.255867   114A      1.267030  
	 115A      1.279159   116A      1.298460   117A      1.301496  
	 118A      1.323939   119A      1.328790   120A      1.353488  
	 121A      1.371544   122A      1.391073   123A      1.402815  
	 124A      1.438229   125A      1.448036   126A      1.472301  
	 127A      1.517656   128A      1.555714   129A      1.559826  
	 130A      1.583404   131A      1.608038   132A      1.623071  
	 133A      1.625166   134A      1.652440   135A      1.687696  
	 136A      1.703120   137A      1.705974   138A      1.724842  
	 139A      1.740510   140A      1.759233   141A      1.760323  
	 142A      1.776648   143A      1.822275   144A      1.841722  
	 145A      1.853692   146A      1.853780   147A      1.889921  
	 148A      1.893860   149A      1.913287   150A      1.923867  
	 151A      1.945249   152A      1.982085   153A      2.023413  
	 154A      2.048217   155A      2.069689   156A      2.079772  
	 157A      2.091745   158A      2.123879   159A      2.143871  
	 160A      2.189087   161A      2.209485   162A      2.224760  
	 163A      2.251062   164A      2.255647   165A      2.314473  
	 166A      2.365009   167A      2.441086   168A      2.474243  
	 169A      2.481082   170A      2.625520   171A      2.705315  
	 172A      2.721035   173A      2.775061   174A      2.849250  
	 175A      2.984113   176A      2.986599   177A      3.043463  
	 178A      3.114479   179A      3.128967   180A      3.187322  
	 181A      3.241037   182A      3.273520   183A      3.275099  
	 184A      3.283685   185A      3.294741   186A      3.325406  
	 187A      3.409248   188A      3.413703   189A      3.480176  
	 190A      3.497476   191A      3.516675   192A      3.541338  
	 193A      3.546587   194A      3.557854   195A      3.563580  
	 196A      3.602442   197A      3.650697   198A      3.665988  
	 199A      3.714401   200A      3.744545   201A      3.766087  
	 202A      3.801838   203A      3.809545   204A      3.825499  
	 205A      3.848031   206A      3.849674   207A      3.873009  
	 208A      3.900653   209A      3.969583   210A      3.985676  
	 211A      4.028950   212A      4.034020   213A      4.043884  
	 214A      4.055146   215A      4.070301   216A      4.089461  
	 217A      4.131645   218A      4.143473   219A      4.166739  
	 220A      4.180605   221A      4.185338   222A      4.214127  
	 223A      4.256656   224A      4.260270   225A      4.319359  
	 226A      4.382855   227A      4.429255   228A      4.449297  
	 229A      4.451189   230A      4.505770   231A      4.508658  
	 232A      4.565053   233A      4.602147   234A      4.617424  
	 235A      4.651255   236A      4.723941   237A      4.725308  
	 238A      4.750050   239A      4.777416   240A      4.780828  
	 241A      4.802751   242A      4.848222   243A      4.855127  
	 244A      4.913597   245A      4.944365   246A      4.962947  
	 247A      4.986515   248A      5.019895   249A      5.090315  
	 250A      5.115726   251A      5.189714   252A      5.199888  
	 253A      5.213280   254A      5.298319   255A      5.318572  
	 256A      5.350822   257A      5.359510   258A      5.392477  
	 259A      5.468155   260A      5.475189   261A      5.508658  
	 262A      5.515541   263A      5.623239   264A      5.640943  
	 265A      5.654498   266A      5.678091   267A      5.780484  
	 268A      5.887834   269A      5.956016   270A      5.971407  
	 271A      6.028379   272A      6.035492   273A      6.150736  
	 274A      6.239394   275A      6.257829   276A      6.285824  
	 277A      6.314523   278A      6.594509   279A      6.649623  
	 280A      6.785872   281A      6.869008   282A      6.911304  
	 283A      7.171262   284A      7.213309   285A      7.765650  
	 286A      7.805343   287A      7.963506   288A      8.156110  
	 289A      8.196686   290A      9.044735   291A      9.052531  
	 292A      9.232797   293A      9.260848   294A      9.418307  
	 295A      9.436498   296A      9.488599   297A      9.538121  
	 298A      9.597202   299A      9.842528   300A      9.891163  
	 301A      9.951005   302A     10.311444   303A     10.353571  
	 304A     10.431840   305A     10.590407   306A     10.614339  
	 307A     10.809022   308A     10.866305   309A     10.914958  
	 310A     12.069568   311A     13.117269   312A     13.148086  
	 313A     13.371889   314A     13.463030   315A     13.818363  
	 316A     14.672447   317A     14.868636   318A     15.457190  
	 319A     16.212743   320A     17.807003   321A     52.911803  
	 322A     75.392305  

	Final Occupation by Irrep:
	          A 
	DOCC [     9 ]

  Energy converged.

  @RHF Final Energy:  -139.09751322908377

   => Energetics <=

    Nuclear Repulsion Energy =             37.3605502821323796
    One-Electron Energy =                -266.4080190023663022
    Two-Electron Energy =                  89.9499554911503765
    DFT Exchange-Correlation Energy =       0.0000000000000000
    Empirical Dispersion Energy =           0.0000000000000000
    Total Energy =                       -139.0975132290835461



Properties will be evaluated at   0.000000,   0.000000,   0.000000 Bohr
  ==> Properties <==


Properties computed using the SCF density density matrix
  Nuclear Dipole Moment: (a.u.)
     X:   -53.6519      Y:   -14.1579      Z:     0.0003

  Electronic Dipole Moment: (a.u.)
     X:    53.7517      Y:    13.3528      Z:    -0.0004

  Dipole Moment: (a.u.)
     X:     0.0998      Y:    -0.8051      Z:    -0.0001     Total:     0.8113

  Dipole Moment: (Debye)
     X:     0.2537      Y:    -2.0464      Z:    -0.0001     Total:     2.0620


  Saving occupied orbitals to File 180.

  Saving SAPT 2-MONOMER_B file.

*** tstop() called on node66.bme.utexas.edu at Fri Jun 20 15:40:26 2014
Module time:
	user time   =      71.89 seconds =       1.20 minutes
	system time =       0.80 seconds =       0.01 minutes
	total time  =         20 seconds =       0.33 minutes
Total time:
	user time   =     246.03 seconds =       4.10 minutes
	system time =       2.97 seconds =       0.05 minutes
	total time  =         66 seconds =       1.10 minutes
  No DF_BASIS_SAPT auxiliary basis selected, defaulting to aug-cc-pvtz-ri

  //>>>>>>>>>>>>>>>>>>>>>>>>>>>>>>>>>>>//
  //               SAPT2+              //
  //<<<<<<<<<<<<<<<<<<<<<<<<<<<<<<<<<<<//


*** tstart() called on node66.bme.utexas.edu
*** at Fri Jun 20 15:40:26 2014

        SAPT2+  
    Ed Hohenstein
     6 June 2009

      Orbital Information
  --------------------------
    NSO        =       322
    NMO        =       322
    NRI        =       700
    NOCC A     =         9
    NOCC B     =         9
    FOCC A     =         2
    FOCC B     =         2
    NVIR A     =       313
    NVIR B     =       313

    Estimated memory usage: 739.1 MB

    Elst10,r            =    -0.006074557525 H
    Exch10 (S^2)        =     0.006855368552 H
    Exch10              =     0.006867679814 H
    Ind20,r (A<-B)      =    -0.001144172345 H
    Ind20,r (B<-A)      =    -0.001143742650 H
    Ind20,r             =    -0.002287914995 H
    Exch-Ind20,r (A<-B) =     0.000812690547 H
    Exch-Ind20,r (B<-A) =     0.000812211196 H
    Exch-Ind20,r        =     0.001624901742 H
    Disp20              =    -0.004212655991 H
    Exch-Disp20         =     0.000547292492 H
    Elst12,r            =     0.000064216232 H
    Exch11              =    -0.000051283345 H
    Exch12              =     0.001042177341 H
    Ind22               =    -0.000208796013 H
    Disp21              =    -0.000029626254 H
    Disp22 (SDQ)        =     0.000007634175 H

    (i =   1 of   7)        210 seconds
    (i =   2 of   7)        420 seconds
    (i =   3 of   7)        629 seconds
    (i =   4 of   7)        839 seconds
    (i =   5 of   7)       1049 seconds
    (i =   6 of   7)       1259 seconds
    (i =   7 of   7)       1469 seconds

    Disp220 (T)         =    -0.000320067982 H

    (i =   1 of   7)        209 seconds
    (i =   2 of   7)        419 seconds
    (i =   3 of   7)        629 seconds
    (i =   4 of   7)        838 seconds
    (i =   5 of   7)       1048 seconds
    (i =   6 of   7)       1258 seconds
    (i =   7 of   7)       1468 seconds

    Disp202 (T)         =    -0.000320090855 H

    Disp22 (T)          =    -0.000640158837 H

    SAPT Results  
  -----------------------------------------------------------------------
    Electrostatics          -6.01034129 mH      -3.77154626 kcal mol^-1
      Elst10,r              -6.07455752 mH      -3.81184256 kcal mol^-1
      Elst12,r               0.06421623 mH       0.04029630 kcal mol^-1

    Exchange                 7.85857381 mH       4.93132972 kcal mol^-1
      Exch10                 6.86767981 mH       4.30953433 kcal mol^-1
      Exch10(S^2)            6.85536855 mH       4.30180889 kcal mol^-1
      Exch11(S^2)           -0.05128334 mH      -0.03218079 kcal mol^-1
      Exch12(S^2)            1.04217734 mH       0.65397618 kcal mol^-1

    Induction               -1.30591012 mH      -0.81947101 kcal mol^-1
      Ind20,r               -2.28791500 mH      -1.43568839 kcal mol^-1
      Ind22                 -0.20879601 mH      -0.13102148 kcal mol^-1
      Exch-Ind20,r           1.62490174 mH       1.01964128 kcal mol^-1
      Exch-Ind22             0.14828917 mH       0.09305286 kcal mol^-1
      delta HF,r (2)        -0.58239002 mH      -0.36545527 kcal mol^-1

    Dispersion              -4.32751442 mH      -2.71555641 kcal mol^-1
      Disp20                -4.21265599 mH      -2.64348165 kcal mol^-1
      Disp21                -0.02962625 mH      -0.01859076 kcal mol^-1
      Disp22 (SDQ)           0.00763417 mH       0.00479052 kcal mol^-1
      Disp22 (T)            -0.64015884 mH      -0.40170575 kcal mol^-1
      Exch-Disp20            0.54729249 mH       0.34343124 kcal mol^-1

    Total HF                -0.45228098 mH      -0.28381061 kcal mol^-1
    Total SAPT0             -4.11764448 mH      -2.58386103 kcal mol^-1
    Total SAPT2             -3.12304110 mH      -1.95973796 kcal mol^-1
    Total SAPT2+            -3.78519202 mH      -2.37524395 kcal mol^-1

*** tstop() called on node66.bme.utexas.edu at Fri Jun 20 16:48:25 2014
Module time:
	user time   =   15695.53 seconds =     261.59 minutes
	system time =      87.28 seconds =       1.45 minutes
	total time  =       4079 seconds =      67.98 minutes
Total time:
	user time   =   15941.57 seconds =     265.69 minutes
	system time =      90.25 seconds =       1.50 minutes
	total time  =       4145 seconds =      69.08 minutes

*** PSI4 exiting successfully. Buy a developer a beer!
