
    -----------------------------------------------------------------------
          Psi4: An Open-Source Ab Initio Electronic Structure Package
                               Psi4 1.4a2.dev224 

                         Git: Rev {master} e453b16 


    R. M. Parrish, L. A. Burns, D. G. A. Smith, A. C. Simmonett,
    A. E. DePrince III, E. G. Hohenstein, U. Bozkaya, A. Yu. Sokolov,
    R. Di Remigio, R. M. Richard, J. F. Gonthier, A. M. James,
    H. R. McAlexander, A. Kumar, M. Saitow, X. Wang, B. P. Pritchard,
    P. Verma, H. F. Schaefer III, K. Patkowski, R. A. King, E. F. Valeev,
    F. A. Evangelista, J. M. Turney, T. D. Crawford, and C. D. Sherrill,
    J. Chem. Theory Comput. 13(7) pp 3185--3197 (2017).
    (doi: 10.1021/acs.jctc.7b00174)


                         Additional Contributions by
    P. Kraus, H. Kruse, M. H. Lechner, M. C. Schieber, R. A. Shaw,
    A. Alenaizan, R. Galvelis, Z. L. Glick, S. Lehtola, and J. P. Misiewicz

    -----------------------------------------------------------------------


    Psi4 started on: Thursday, 23 April 2020 10:16PM

    Process ID: 67981
    Host:       node43.bme.utexas.edu
    PSIDATADIR: /home/liuchw/anaconda3/envs/psi4env/share/psi4
    Memory:     500.0 MiB
    Threads:    8
    
  ==> Input File <==

--------------------------------------------------------------------------
#Generated by lconvert.py for sapt job

memory 50 GB

molecule  {
0 1
  F      -0.914320    0.000010    0.000000
  C      -2.297350    0.000020    0.000000
  H      -2.651740    1.027060   -0.000000
  H      -2.651750   -0.513490    0.889440
  H      -2.651750   -0.513490   -0.889440
--
0 1
  F       4.524710    0.000020    0.000000
  C       3.141340    0.000020    0.000000
  H       2.783510    1.025420    0.000000
  H       2.783510   -0.512680    0.888020
  H       2.783510   -0.512680   -0.888020
units angstrom
no_reorient
symmetry c1
}

set {
scf_type DF
basis aug-cc-pvtz
freeze_core True
guess SAD
}
energy('sapt2+')
--------------------------------------------------------------------------

  Memory set to  46.566 GiB by Python driver.

Scratch directory: /scratch/liuchw/

  //>>>>>>>>>>>>>>>>>>>>>>>>>>>>>>>>>>>//
  //              Dimer HF             //
  //<<<<<<<<<<<<<<<<<<<<<<<<<<<<<<<<<<<//


*** tstart() called on node43.bme.utexas.edu
*** at Thu Apr 23 22:16:53 2020

   => Loading Basis Set <=

    Name: AUG-CC-PVTZ
    Role: ORBITAL
    Keyword: BASIS
    atoms 1, 6      entry F          line   377 file /home/liuchw/anaconda3/envs/psi4env/share/psi4/basis/aug-cc-pvtz.gbs 
    atoms 2, 7      entry C          line   239 file /home/liuchw/anaconda3/envs/psi4env/share/psi4/basis/aug-cc-pvtz.gbs 
    atoms 3-5, 8-10 entry H          line    40 file /home/liuchw/anaconda3/envs/psi4env/share/psi4/basis/aug-cc-pvtz.gbs 


         ---------------------------------------------------------
                                   SCF
               by Justin Turney, Rob Parrish, Andy Simmonett
                          and Daniel G. A. Smith
                              RHF Reference
                        8 Threads,  47683 MiB Core
         ---------------------------------------------------------

  ==> Geometry <==

    Molecular point group: c1
    Full point group: C1h

    Geometry (in Angstrom), charge = 0, multiplicity = 1:

       Center              X                  Y                   Z               Mass       
    ------------   -----------------  -----------------  -----------------  -----------------
         F           -2.077070441766    -0.000007504142     0.000000000000    18.998403162730
         C           -3.460100441766     0.000002495858     0.000000000000    12.000000000000
         H           -3.814490441766     1.027042495858     0.000000000000     1.007825032230
         H           -3.814500441766    -0.513507504142     0.889440000000     1.007825032230
         H           -3.814500441766    -0.513507504142    -0.889440000000     1.007825032230
         F            3.361959558234     0.000002495858     0.000000000000    18.998403162730
         C            1.978589558234     0.000002495858     0.000000000000    12.000000000000
         H            1.620759558234     1.025402495858     0.000000000000     1.007825032230
         H            1.620759558234    -0.512697504142     0.888020000000     1.007825032230
         H            1.620759558234    -0.512697504142    -0.888020000000     1.007825032230

  Running in c1 symmetry.

  Rotational constants: A =      2.64717  B =      0.03108  C =      0.03108 [cm^-1]
  Rotational constants: A =  79360.10964  B =    931.63886  C =    931.63885 [MHz]
  Nuclear repulsion =  107.408132059109491

  Charge       = 0
  Multiplicity = 1
  Electrons    = 36
  Nalpha       = 18
  Nbeta        = 18

  ==> Algorithm <==

  SCF Algorithm Type is DF.
  DIIS enabled.
  MOM disabled.
  Fractional occupation disabled.
  Guess Type is SAD.
  Energy threshold   = 1.00e-08
  Density threshold  = 1.00e-08
  Integral threshold = 0.00e+00

  ==> Primary Basis <==

  Basis Set: AUG-CC-PVTZ
    Blend: AUG-CC-PVTZ
    Number of shells: 110
    Number of basis function: 322
    Number of Cartesian functions: 370
    Spherical Harmonics?: true
    Max angular momentum: 3

   => Loading Basis Set <=

    Name: (AUG-CC-PVTZ AUX)
    Role: JKFIT
    Keyword: DF_BASIS_SCF
    atoms 1, 6      entry F          line   348 file /home/liuchw/anaconda3/envs/psi4env/share/psi4/basis/aug-cc-pvtz-jkfit.gbs 
    atoms 2, 7      entry C          line   162 file /home/liuchw/anaconda3/envs/psi4env/share/psi4/basis/aug-cc-pvtz-jkfit.gbs 
    atoms 3-5, 8-10 entry H          line    70 file /home/liuchw/anaconda3/envs/psi4env/share/psi4/basis/aug-cc-pvtz-jkfit.gbs 

  ==> Pre-Iterations <==

   -------------------------------------------------------
    Irrep   Nso     Nmo     Nalpha   Nbeta   Ndocc  Nsocc
   -------------------------------------------------------
     A        322     322       0       0       0       0
   -------------------------------------------------------
    Total     322     322      18      18      18       0
   -------------------------------------------------------

  ==> Integral Setup <==

  ==> DiskDFJK: Density-Fitted J/K Matrices <==

    J tasked:                  Yes
    K tasked:                  Yes
    wK tasked:                  No
    OpenMP threads:              8
    Integrals threads:           8
    Memory [MiB]:            35762
    Algorithm:                Core
    Integral Cache:           SAVE
    Schwarz Cutoff:          1E-12
    Fitting Condition:       1E-10

   => Auxiliary Basis Set <=

  Basis Set: (AUG-CC-PVTZ AUX)
    Blend: AUG-CC-PVTZ-JKFIT
    Number of shells: 204
    Number of basis function: 692
    Number of Cartesian functions: 854
    Spherical Harmonics?: true
    Max angular momentum: 4

  Minimum eigenvalue in the overlap matrix is 6.4384022867E-05.
  Using Symmetric Orthogonalization.

  SCF Guess: Superposition of Atomic Densities via on-the-fly atomic UHF.

  ==> Iterations <==

                           Total Energy        Delta E     RMS |[F,P]|

   @DF-RHF iter SAD:  -276.88120851507944   -2.76881e+02   0.00000e+00 
   @DF-RHF iter   1:  -278.12134739869879   -1.24014e+00   1.18906e-03 DIIS
   @DF-RHF iter   2:  -278.18550012315717   -6.41527e-02   5.52265e-04 DIIS
   @DF-RHF iter   3:  -278.19486351408875   -9.36339e-03   1.36618e-04 DIIS
   @DF-RHF iter   4:  -278.19595118732468   -1.08767e-03   3.32606e-05 DIIS
   @DF-RHF iter   5:  -278.19603293375582   -8.17464e-05   8.00828e-06 DIIS
   @DF-RHF iter   6:  -278.19603703495119   -4.10120e-06   1.38502e-06 DIIS
   @DF-RHF iter   7:  -278.19603724837373   -2.13423e-07   1.91856e-07 DIIS
   @DF-RHF iter   8:  -278.19603725241950   -4.04577e-09   3.41904e-08 DIIS
   @DF-RHF iter   9:  -278.19603725256604   -1.46542e-10   7.80402e-09 DIIS
  Energy and wave function converged.


  ==> Post-Iterations <==

    Orbital Energies [Eh]
    ---------------------

    Doubly Occupied:                                                      

       1A    -26.286929     2A    -26.270500     3A    -11.311390  
       4A    -11.294660     5A     -1.595523     6A     -1.578933  
       7A     -0.962829     8A     -0.946212     9A     -0.703360  
      10A     -0.703359    11A     -0.686724    12A     -0.686724  
      13A     -0.683145    14A     -0.666403    15A     -0.538421  
      16A     -0.538419    17A     -0.521819    18A     -0.521819  

    Virtual:                                                              

      19A      0.024702    20A      0.041112    21A      0.041112  
      22A      0.042328    23A      0.059578    24A      0.059579  
      25A      0.077922    26A      0.114645    27A      0.115458  
      28A      0.115458    29A      0.134668    30A      0.134682  
      31A      0.134682    32A      0.152637    33A      0.195824  
      34A      0.195824    35A      0.203068    36A      0.213829  
      37A      0.213829    38A      0.225376    39A      0.225376  
      40A      0.230903    41A      0.252630    42A      0.252630  
      43A      0.264670    44A      0.287614    45A      0.315027  
      46A      0.315027    47A      0.329466    48A      0.329466  
      49A      0.339540    50A      0.340129    51A      0.341482  
      52A      0.341482    53A      0.354948    54A      0.363861  
      55A      0.367564    56A      0.367565    57A      0.380659  
      58A      0.392261    59A      0.410986    60A      0.412286  
      61A      0.412286    62A      0.412861    63A      0.412861  
      64A      0.446734    65A      0.458463    66A      0.458464  
      67A      0.468666    68A      0.468666    69A      0.469392  
      70A      0.497970    71A      0.523684    72A      0.523684  
      73A      0.549535    74A      0.549535    75A      0.577072  
      76A      0.636969    77A      0.649429    78A      0.649430  
      79A      0.708331    80A      0.708331    81A      0.758977  
      82A      0.772923    83A      0.802619    84A      0.802619  
      85A      0.808669    86A      0.816808    87A      0.816808  
      88A      0.836814    89A      0.868527    90A      0.885481  
      91A      0.899852    92A      0.899852    93A      0.910700  
      94A      0.910702    95A      0.939416    96A      0.939417  
      97A      0.941706    98A      0.961698    99A      0.966090  
     100A      0.966090   101A      1.015158   102A      1.020917  
     103A      1.020917   104A      1.028109   105A      1.028109  
     106A      1.038896   107A      1.041646   108A      1.041646  
     109A      1.055974   110A      1.055974   111A      1.061412  
     112A      1.074829   113A      1.074829   114A      1.078202  
     115A      1.089745   116A      1.089745   117A      1.092251  
     118A      1.132261   119A      1.179899   120A      1.179899  
     121A      1.212439   122A      1.212440   123A      1.217227  
     124A      1.230269   125A      1.230269   126A      1.252682  
     127A      1.252684   128A      1.273112   129A      1.275856  
     130A      1.275857   131A      1.287468   132A      1.294499  
     133A      1.294500   134A      1.362555   135A      1.386721  
     136A      1.471517   137A      1.552101   138A      1.552102  
     139A      1.578608   140A      1.578609   141A      1.589018  
     142A      1.595377   143A      1.605875   144A      1.619267  
     145A      1.623545   146A      1.623546   147A      1.660704  
     148A      1.660705   149A      1.675308   150A      1.677192  
     151A      1.677192   152A      1.689519   153A      1.689519  
     154A      1.697160   155A      1.740712   156A      1.740713  
     157A      1.764229   158A      1.764230   159A      1.805531  
     160A      1.867584   161A      1.884494   162A      1.884497  
     163A      1.897175   164A      1.906937   165A      1.906938  
     166A      1.912023   167A      2.017206   168A      2.017209  
     169A      2.038964   170A      2.038965   171A      2.115435  
     172A      2.135416   173A      2.139604   174A      2.139605  
     175A      2.173231   176A      2.173232   177A      2.553324  
     178A      2.612566   179A      2.715519   180A      2.724397  
     181A      2.929403   182A      2.933485   183A      2.933486  
     184A      2.948136   185A      2.948137   186A      2.958047  
     187A      3.053422   188A      3.053422   189A      3.066780  
     190A      3.067628   191A      3.067628   192A      3.112238  
     193A      3.163931   194A      3.179176   195A      3.199716  
     196A      3.230440   197A      3.245950   198A      3.245951  
     199A      3.267257   200A      3.267258   201A      3.432249  
     202A      3.432250   203A      3.447079   204A      3.447080  
     205A      3.516312   206A      3.516312   207A      3.526962  
     208A      3.526963   209A      3.532394   210A      3.532395  
     211A      3.536431   212A      3.540357   213A      3.553101  
     214A      3.568788   215A      3.568789   216A      3.568941  
     217A      3.693247   218A      3.699084   219A      3.757870  
     220A      3.757871   221A      3.768480   222A      3.768481  
     223A      3.858992   224A      3.858994   225A      3.877428  
     226A      3.877429   227A      4.024558   228A      4.024559  
     229A      4.039418   230A      4.044368   231A      4.044370  
     232A      4.059330   233A      4.086899   234A      4.086900  
     235A      4.112938   236A      4.112939   237A      4.156643  
     238A      4.180975   239A      4.209380   240A      4.256337  
     241A      4.420310   242A      4.420311   243A      4.429712  
     244A      4.429714   245A      4.465965   246A      4.486763  
     247A      4.677189   248A      4.715673   249A      4.726413  
     250A      4.726415   251A      4.741930   252A      4.741932  
     253A      4.755813   254A      4.755814   255A      4.772326  
     256A      4.772326   257A      4.871862   258A      4.915237  
     259A      4.923407   260A      4.939767   261A      4.981655  
     262A      4.981655   263A      5.004624   264A      5.004626  
     265A      5.162985   266A      5.162991   267A      5.181657  
     268A      5.181657   269A      5.297597   270A      5.330309  
     271A      5.539966   272A      5.560550   273A      5.625255  
     274A      5.632434   275A      5.636256   276A      5.636263  
     277A      5.659778   278A      5.659779   279A      5.742883  
     280A      5.742891   281A      5.763978   282A      5.763979  
     283A      5.989564   284A      5.998956   285A      6.131490  
     286A      6.131495   287A      6.159044   288A      6.159044  
     289A      6.554764   290A      6.554770   291A      6.580016  
     292A      6.580018   293A      7.162859   294A      7.190308  
     295A      8.947161   296A      8.972886   297A      8.979954  
     298A      8.995659   299A      9.220065   300A      9.220066  
     301A      9.235692   302A      9.235692   303A      9.390654  
     304A      9.415518   305A      9.421649   306A      9.421649  
     307A      9.436763   308A      9.436763   309A      9.452817  
     310A      9.452818   311A      9.468323   312A      9.468323  
     313A      9.818864   314A      9.818866   315A      9.833201  
     316A      9.833201   317A      9.913612   318A      9.933256  
     319A     15.140024   320A     15.336008   321A     17.474407  
     322A     17.747004  

    Final Occupation by Irrep:
              A 
    DOCC [    18 ]

  @DF-RHF Final Energy:  -278.19603725256604

   => Energetics <=

    Nuclear Repulsion Energy =            107.4081320591094908
    One-Electron Energy =                -598.2140003984223995
    Two-Electron Energy =                 212.6098310867468797
    Total Energy =                       -278.1960372525660432

Computation Completed


Properties will be evaluated at   0.000000,   0.000000,   0.000000 [a0]

Properties computed using the SCF density matrix

  Nuclear Dipole Moment: [e a0]
     X:    -7.3818      Y:     0.0000      Z:     0.0000

  Electronic Dipole Moment: [e a0]
     X:     5.7132      Y:    -0.0000      Z:     0.0000

  Dipole Moment: [e a0]
     X:    -1.6686      Y:     0.0000      Z:     0.0000     Total:     1.6686

  Dipole Moment: [D]
     X:    -4.2411      Y:     0.0000      Z:     0.0000     Total:     4.2411


*** tstop() called on node43.bme.utexas.edu at Thu Apr 23 22:16:59 2020
Module time:
	user time   =      40.56 seconds =       0.68 minutes
	system time =       1.66 seconds =       0.03 minutes
	total time  =          6 seconds =       0.10 minutes
Total time:
	user time   =      40.56 seconds =       0.68 minutes
	system time =       1.66 seconds =       0.03 minutes
	total time  =          6 seconds =       0.10 minutes

  //>>>>>>>>>>>>>>>>>>>>>>>>>>>>>>>>>>>//
  //            Monomer A HF           //
  //<<<<<<<<<<<<<<<<<<<<<<<<<<<<<<<<<<<//


*** tstart() called on node43.bme.utexas.edu
*** at Thu Apr 23 22:16:59 2020

   => Loading Basis Set <=

    Name: AUG-CC-PVTZ
    Role: ORBITAL
    Keyword: BASIS
    atoms 1, 6      entry F          line   377 file /home/liuchw/anaconda3/envs/psi4env/share/psi4/basis/aug-cc-pvtz.gbs 
    atoms 2, 7      entry C          line   239 file /home/liuchw/anaconda3/envs/psi4env/share/psi4/basis/aug-cc-pvtz.gbs 
    atoms 3-5, 8-10 entry H          line    40 file /home/liuchw/anaconda3/envs/psi4env/share/psi4/basis/aug-cc-pvtz.gbs 


         ---------------------------------------------------------
                                   SCF
               by Justin Turney, Rob Parrish, Andy Simmonett
                          and Daniel G. A. Smith
                              RHF Reference
                        8 Threads,  47683 MiB Core
         ---------------------------------------------------------

  ==> Geometry <==

    Molecular point group: c1
    Full point group: C1h

    Geometry (in Angstrom), charge = 0, multiplicity = 1:

       Center              X                  Y                   Z               Mass       
    ------------   -----------------  -----------------  -----------------  -----------------
         F           -2.077070441766    -0.000007504142     0.000000000000    18.998403162730
         C           -3.460100441766     0.000002495858     0.000000000000    12.000000000000
         H           -3.814490441766     1.027042495858     0.000000000000     1.007825032230
         H           -3.814500441766    -0.513507504142     0.889440000000     1.007825032230
         H           -3.814500441766    -0.513507504142    -0.889440000000     1.007825032230
      Gh(F)           3.361959558234     0.000002495858     0.000000000000    18.998403162730
      Gh(C)           1.978589558234     0.000002495858     0.000000000000    12.000000000000
      Gh(H)           1.620759558234     1.025402495858     0.000000000000     1.007825032230
      Gh(H)           1.620759558234    -0.512697504142     0.888020000000     1.007825032230
      Gh(H)           1.620759558234    -0.512697504142    -0.888020000000     1.007825032230

  Running in c1 symmetry.

  Rotational constants: A =      2.64717  B =      0.03108  C =      0.03108 [cm^-1]
  Rotational constants: A =  79360.10964  B =    931.63886  C =    931.63885 [MHz]
  Nuclear repulsion =   37.400362748614974

  Charge       = 0
  Multiplicity = 1
  Electrons    = 18
  Nalpha       = 9
  Nbeta        = 9

  ==> Algorithm <==

  SCF Algorithm Type is DF.
  DIIS enabled.
  MOM disabled.
  Fractional occupation disabled.
  Guess Type is SAD.
  Energy threshold   = 1.00e-08
  Density threshold  = 1.00e-08
  Integral threshold = 0.00e+00

  ==> Primary Basis <==

  Basis Set: AUG-CC-PVTZ
    Blend: AUG-CC-PVTZ
    Number of shells: 110
    Number of basis function: 322
    Number of Cartesian functions: 370
    Spherical Harmonics?: true
    Max angular momentum: 3

   => Loading Basis Set <=

    Name: (AUG-CC-PVTZ AUX)
    Role: JKFIT
    Keyword: DF_BASIS_SCF
    atoms 1, 6      entry F          line   348 file /home/liuchw/anaconda3/envs/psi4env/share/psi4/basis/aug-cc-pvtz-jkfit.gbs 
    atoms 2, 7      entry C          line   162 file /home/liuchw/anaconda3/envs/psi4env/share/psi4/basis/aug-cc-pvtz-jkfit.gbs 
    atoms 3-5, 8-10 entry H          line    70 file /home/liuchw/anaconda3/envs/psi4env/share/psi4/basis/aug-cc-pvtz-jkfit.gbs 

  ==> Pre-Iterations <==

   -------------------------------------------------------
    Irrep   Nso     Nmo     Nalpha   Nbeta   Ndocc  Nsocc
   -------------------------------------------------------
     A        322     322       0       0       0       0
   -------------------------------------------------------
    Total     322     322       9       9       9       0
   -------------------------------------------------------

  ==> Integral Setup <==

  ==> DiskDFJK: Density-Fitted J/K Matrices <==

    J tasked:                  Yes
    K tasked:                  Yes
    wK tasked:                  No
    OpenMP threads:              8
    Integrals threads:           8
    Memory [MiB]:            35762
    Algorithm:                Core
    Integral Cache:           LOAD
    Schwarz Cutoff:          1E-12
    Fitting Condition:       1E-10

   => Auxiliary Basis Set <=

  Basis Set: (AUG-CC-PVTZ AUX)
    Blend: AUG-CC-PVTZ-JKFIT
    Number of shells: 204
    Number of basis function: 692
    Number of Cartesian functions: 854
    Spherical Harmonics?: true
    Max angular momentum: 4

  Minimum eigenvalue in the overlap matrix is 6.4384022867E-05.
  Using Symmetric Orthogonalization.

  SCF Guess: Superposition of Atomic Densities via on-the-fly atomic UHF.

  ==> Iterations <==

                           Total Energy        Delta E     RMS |[F,P]|

   @DF-RHF iter SAD:  -138.43954916592355   -1.38440e+02   0.00000e+00 
   @DF-RHF iter   1:  -139.05986599966749   -6.20317e-01   8.43560e-04 DIIS
   @DF-RHF iter   2:  -139.09206919534600   -3.22032e-02   3.96287e-04 DIIS
   @DF-RHF iter   3:  -139.09686567566030   -4.79648e-03   9.70038e-05 DIIS
   @DF-RHF iter   4:  -139.09741354821759   -5.47873e-04   2.36909e-05 DIIS
   @DF-RHF iter   5:  -139.09745504922583   -4.15010e-05   5.71764e-06 DIIS
   @DF-RHF iter   6:  -139.09745714575322   -2.09653e-06   9.91874e-07 DIIS
   @DF-RHF iter   7:  -139.09745725708916   -1.11336e-07   1.50753e-07 DIIS
   @DF-RHF iter   8:  -139.09745725966985   -2.58069e-09   3.15793e-08 DIIS
   @DF-RHF iter   9:  -139.09745725980119   -1.31337e-10   6.99643e-09 DIIS
  Energy and wave function converged.


  ==> Post-Iterations <==

    Orbital Energies [Eh]
    ---------------------

    Doubly Occupied:                                                      

       1A    -26.278838     2A    -11.305272     3A     -1.587302  
       4A     -0.956268     5A     -0.695826     6A     -0.695825  
       7A     -0.675107     8A     -0.531623     9A     -0.531621  

    Virtual:                                                              

      10A      0.026710    11A      0.035444    12A      0.044054  
      13A      0.044055    14A      0.059761    15A      0.059761  
      16A      0.078120    17A      0.107236    18A      0.110866  
      19A      0.117690    20A      0.117690    21A      0.129386  
      22A      0.129386    23A      0.140400    24A      0.197681  
      25A      0.197681    26A      0.212406    27A      0.214523  
      28A      0.214523    29A      0.227778    30A      0.236725  
      31A      0.236725    32A      0.249894    33A      0.249894  
      34A      0.255505    35A      0.268918    36A      0.289472  
      37A      0.313861    38A      0.313861    39A      0.327344  
      40A      0.327344    41A      0.333502    42A      0.333502  
      43A      0.345141    44A      0.356729    45A      0.368394  
      46A      0.369854    47A      0.374750    48A      0.374751  
      49A      0.388692    50A      0.396412    51A      0.420607  
      52A      0.420607    53A      0.424189    54A      0.424190  
      55A      0.459897    56A      0.473579    57A      0.473580  
      58A      0.491671    59A      0.493996    60A      0.493996  
      61A      0.529533    62A      0.529534    63A      0.530980  
      64A      0.550526    65A      0.550526    66A      0.570693  
      67A      0.591961    68A      0.656371    69A      0.656372  
      70A      0.662394    71A      0.681689    72A      0.681689  
      73A      0.769293    74A      0.807723    75A      0.807723  
      76A      0.816589    77A      0.874256    78A      0.883185  
      79A      0.883185    80A      0.906113    81A      0.926187  
      82A      0.926188    83A      0.946659    84A      0.946659  
      85A      0.948737    86A      0.956985    87A      0.997812  
      88A      0.997813    89A      1.017796    90A      1.017796  
      91A      1.021467    92A      1.033250    93A      1.033250  
      94A      1.040915    95A      1.041057    96A      1.041057  
      97A      1.055290    98A      1.066689    99A      1.071506  
     100A      1.071507   101A      1.083873   102A      1.083874  
     103A      1.113777   104A      1.113778   105A      1.118308  
     106A      1.123592   107A      1.131589   108A      1.131589  
     109A      1.149746   110A      1.173764   111A      1.186248  
     112A      1.186248   113A      1.201086   114A      1.201087  
     115A      1.212045   116A      1.247149   117A      1.247151  
     118A      1.248409   119A      1.267157   120A      1.267158  
     121A      1.280263   122A      1.286826   123A      1.286827  
     124A      1.349898   125A      1.349899   126A      1.397193  
     127A      1.407276   128A      1.408181   129A      1.408181  
     130A      1.499152   131A      1.559699   132A      1.559700  
     133A      1.595167   134A      1.606121   135A      1.634508  
     136A      1.634508   137A      1.668423   138A      1.684286  
     139A      1.684286   140A      1.687162   141A      1.687162  
     142A      1.722991   143A      1.749839   144A      1.749840  
     145A      1.784022   146A      1.792308   147A      1.792308  
     148A      1.834065   149A      1.888706   150A      1.893245  
     151A      1.893248   152A      1.903055   153A      1.914698  
     154A      1.914698   155A      1.952395   156A      2.020387  
     157A      2.020389   158A      2.070620   159A      2.073150  
     160A      2.073152   161A      2.127226   162A      2.145528  
     163A      2.145529   164A      2.178717   165A      2.178718  
     166A      2.270097   167A      2.394885   168A      2.432021  
     169A      2.432022   170A      2.562197   171A      2.696897  
     172A      2.696898   173A      2.718572   174A      2.749652  
     175A      2.939085   176A      2.941956   177A      2.941956  
     178A      3.061106   179A      3.061106   180A      3.105298  
     181A      3.172191   182A      3.214195   183A      3.252662  
     184A      3.252664   185A      3.261619   186A      3.261619  
     187A      3.269023   188A      3.333139   189A      3.408250  
     190A      3.440671   191A      3.440672   192A      3.526496  
     193A      3.526496   194A      3.540442   195A      3.540444  
     196A      3.542341   197A      3.563121   198A      3.614020  
     199A      3.614020   200A      3.652541   201A      3.706959  
     202A      3.763472   203A      3.763472   204A      3.768606  
     205A      3.768607   206A      3.805930   207A      3.805930  
     208A      3.864694   209A      3.864696   210A      3.895437  
     211A      3.996601   212A      4.024416   213A      4.024417  
     214A      4.029865   215A      4.029866   216A      4.041842  
     217A      4.045223   218A      4.090624   219A      4.090624  
     220A      4.099673   221A      4.099674   222A      4.178515  
     223A      4.178516   224A      4.188479   225A      4.221944  
     226A      4.291803   227A      4.420401   228A      4.427764  
     229A      4.427765   230A      4.472507   231A      4.486888  
     232A      4.486890   233A      4.577071   234A      4.582715  
     235A      4.582716   236A      4.691710   237A      4.718737  
     238A      4.718739   239A      4.736991   240A      4.736993  
     241A      4.751393   242A      4.751395   243A      4.799143  
     244A      4.879532   245A      4.929176   246A      4.965917  
     247A      4.965917   248A      4.988859   249A      4.988859  
     250A      5.051211   251A      5.169222   252A      5.169229  
     253A      5.196311   254A      5.196311   255A      5.303505  
     256A      5.305512   257A      5.363980   258A      5.363981  
     259A      5.391975   260A      5.458097   261A      5.476180  
     262A      5.476181   263A      5.552184   264A      5.631237  
     265A      5.643729   266A      5.643737   267A      5.750535  
     268A      5.750543   269A      5.901546   270A      5.966066  
     271A      5.966068   272A      5.996140   273A      6.138408  
     274A      6.138413   275A      6.227307   276A      6.296166  
     277A      6.296166   278A      6.560733   279A      6.560739  
     280A      6.781673   281A      6.781679   282A      6.837973  
     283A      7.131338   284A      7.180130   285A      7.752942  
     286A      7.752949   287A      7.934281   288A      8.136713  
     289A      8.136721   290A      8.956030   291A      8.988396  
     292A      9.228483   293A      9.228484   294A      9.399351  
     295A      9.431821   296A      9.431821   297A      9.461272  
     298A      9.461272   299A      9.827319   300A      9.827321  
     301A      9.927855   302A     10.228792   303A     10.301316  
     304A     10.400176   305A     10.597065   306A     10.597065  
     307A     10.824537   308A     10.860692   309A     10.860692  
     310A     11.903854   311A     13.067322   312A     13.067322  
     313A     13.360953   314A     13.360953   315A     13.761674  
     316A     14.656944   317A     14.656944   318A     15.341726  
     319A     16.242185   320A     17.481260   321A     52.828449  
     322A     74.761661  

    Final Occupation by Irrep:
              A 
    DOCC [     9 ]

  @DF-RHF Final Energy:  -139.09745725980119

   => Energetics <=

    Nuclear Repulsion Energy =             37.4003627486149739
    One-Electron Energy =                -266.4802727588549374
    Two-Electron Energy =                  89.9824527504387675
    Total Energy =                       -139.0974572598011889

Computation Completed


Properties will be evaluated at   0.000000,   0.000000,   0.000000 [a0]

Properties computed using the SCF density matrix

  Nuclear Dipole Moment: [e a0]
     X:   -96.1828      Y:    -0.0000      Z:     0.0000

  Electronic Dipole Moment: [e a0]
     X:    95.3760      Y:     0.0001      Z:     0.0000

  Dipole Moment: [e a0]
     X:    -0.8068      Y:     0.0000      Z:     0.0000     Total:     0.8068

  Dipole Moment: [D]
     X:    -2.0507      Y:     0.0000      Z:     0.0000     Total:     2.0507


*** tstop() called on node43.bme.utexas.edu at Thu Apr 23 22:17:03 2020
Module time:
	user time   =      23.88 seconds =       0.40 minutes
	system time =       1.00 seconds =       0.02 minutes
	total time  =          4 seconds =       0.07 minutes
Total time:
	user time   =      64.51 seconds =       1.08 minutes
	system time =       2.67 seconds =       0.04 minutes
	total time  =         10 seconds =       0.17 minutes

  //>>>>>>>>>>>>>>>>>>>>>>>>>>>>>>>>>>>//
  //            Monomer B HF           //
  //<<<<<<<<<<<<<<<<<<<<<<<<<<<<<<<<<<<//


*** tstart() called on node43.bme.utexas.edu
*** at Thu Apr 23 22:17:03 2020

   => Loading Basis Set <=

    Name: AUG-CC-PVTZ
    Role: ORBITAL
    Keyword: BASIS
    atoms 1, 6      entry F          line   377 file /home/liuchw/anaconda3/envs/psi4env/share/psi4/basis/aug-cc-pvtz.gbs 
    atoms 2, 7      entry C          line   239 file /home/liuchw/anaconda3/envs/psi4env/share/psi4/basis/aug-cc-pvtz.gbs 
    atoms 3-5, 8-10 entry H          line    40 file /home/liuchw/anaconda3/envs/psi4env/share/psi4/basis/aug-cc-pvtz.gbs 


         ---------------------------------------------------------
                                   SCF
               by Justin Turney, Rob Parrish, Andy Simmonett
                          and Daniel G. A. Smith
                              RHF Reference
                        8 Threads,  47683 MiB Core
         ---------------------------------------------------------

  ==> Geometry <==

    Molecular point group: c1
    Full point group: C1h

    Geometry (in Angstrom), charge = 0, multiplicity = 1:

       Center              X                  Y                   Z               Mass       
    ------------   -----------------  -----------------  -----------------  -----------------
      Gh(F)          -2.077070441766    -0.000007504142     0.000000000000    18.998403162730
      Gh(C)          -3.460100441766     0.000002495858     0.000000000000    12.000000000000
      Gh(H)          -3.814490441766     1.027042495858     0.000000000000     1.007825032230
      Gh(H)          -3.814500441766    -0.513507504142     0.889440000000     1.007825032230
      Gh(H)          -3.814500441766    -0.513507504142    -0.889440000000     1.007825032230
         F            3.361959558234     0.000002495858     0.000000000000    18.998403162730
         C            1.978589558234     0.000002495858     0.000000000000    12.000000000000
         H            1.620759558234     1.025402495858     0.000000000000     1.007825032230
         H            1.620759558234    -0.512697504142     0.888020000000     1.007825032230
         H            1.620759558234    -0.512697504142    -0.888020000000     1.007825032230

  Running in c1 symmetry.

  Rotational constants: A =      2.64717  B =      0.03108  C =      0.03108 [cm^-1]
  Rotational constants: A =  79360.10964  B =    931.63886  C =    931.63885 [MHz]
  Nuclear repulsion =   37.391631420503877

  Charge       = 0
  Multiplicity = 1
  Electrons    = 18
  Nalpha       = 9
  Nbeta        = 9

  ==> Algorithm <==

  SCF Algorithm Type is DF.
  DIIS enabled.
  MOM disabled.
  Fractional occupation disabled.
  Guess Type is SAD.
  Energy threshold   = 1.00e-08
  Density threshold  = 1.00e-08
  Integral threshold = 0.00e+00

  ==> Primary Basis <==

  Basis Set: AUG-CC-PVTZ
    Blend: AUG-CC-PVTZ
    Number of shells: 110
    Number of basis function: 322
    Number of Cartesian functions: 370
    Spherical Harmonics?: true
    Max angular momentum: 3

   => Loading Basis Set <=

    Name: (AUG-CC-PVTZ AUX)
    Role: JKFIT
    Keyword: DF_BASIS_SCF
    atoms 1, 6      entry F          line   348 file /home/liuchw/anaconda3/envs/psi4env/share/psi4/basis/aug-cc-pvtz-jkfit.gbs 
    atoms 2, 7      entry C          line   162 file /home/liuchw/anaconda3/envs/psi4env/share/psi4/basis/aug-cc-pvtz-jkfit.gbs 
    atoms 3-5, 8-10 entry H          line    70 file /home/liuchw/anaconda3/envs/psi4env/share/psi4/basis/aug-cc-pvtz-jkfit.gbs 

  ==> Pre-Iterations <==

   -------------------------------------------------------
    Irrep   Nso     Nmo     Nalpha   Nbeta   Ndocc  Nsocc
   -------------------------------------------------------
     A        322     322       0       0       0       0
   -------------------------------------------------------
    Total     322     322       9       9       9       0
   -------------------------------------------------------

  ==> Integral Setup <==

  ==> DiskDFJK: Density-Fitted J/K Matrices <==

    J tasked:                  Yes
    K tasked:                  Yes
    wK tasked:                  No
    OpenMP threads:              8
    Integrals threads:           8
    Memory [MiB]:            35762
    Algorithm:                Core
    Integral Cache:           LOAD
    Schwarz Cutoff:          1E-12
    Fitting Condition:       1E-10

   => Auxiliary Basis Set <=

  Basis Set: (AUG-CC-PVTZ AUX)
    Blend: AUG-CC-PVTZ-JKFIT
    Number of shells: 204
    Number of basis function: 692
    Number of Cartesian functions: 854
    Spherical Harmonics?: true
    Max angular momentum: 4

  Minimum eigenvalue in the overlap matrix is 6.4384022867E-05.
  Using Symmetric Orthogonalization.

  SCF Guess: Superposition of Atomic Densities via on-the-fly atomic UHF.

  ==> Iterations <==

                           Total Energy        Delta E     RMS |[F,P]|

   @DF-RHF iter SAD:  -138.43922067891393   -1.38439e+02   0.00000e+00 
   @DF-RHF iter   1:  -139.05983892483462   -6.20618e-01   8.43226e-04 DIIS
   @DF-RHF iter   2:  -139.09203582044606   -3.21969e-02   3.95377e-04 DIIS
   @DF-RHF iter   3:  -139.09681604644035   -4.78023e-03   9.70714e-05 DIIS
   @DF-RHF iter   4:  -139.09736383054388   -5.47784e-04   2.37261e-05 DIIS
   @DF-RHF iter   5:  -139.09740543009633   -4.15996e-05   5.72798e-06 DIIS
   @DF-RHF iter   6:  -139.09740753308535   -2.10299e-06   9.93417e-07 DIIS
   @DF-RHF iter   7:  -139.09740764481140   -1.11726e-07   1.51360e-07 DIIS
   @DF-RHF iter   8:  -139.09740764742051   -2.60911e-09   3.18346e-08 DIIS
   @DF-RHF iter   9:  -139.09740764755361   -1.33099e-10   7.03636e-09 DIIS
  Energy and wave function converged.


  ==> Post-Iterations <==

    Orbital Energies [Eh]
    ---------------------

    Doubly Occupied:                                                      

       1A    -26.279153     2A    -11.305189     3A     -1.587314  
       4A     -0.956569     5A     -0.695683     6A     -0.695683  
       7A     -0.675612     8A     -0.531715     9A     -0.531715  

    Virtual:                                                              

      10A      0.017782    11A      0.039207    12A      0.039346  
      13A      0.039346    14A      0.058216    15A      0.058216  
      16A      0.068237    17A      0.099304    18A      0.108640  
      19A      0.108641    20A      0.116216    21A      0.128913  
      22A      0.128913    23A      0.144401    24A      0.178131  
      25A      0.187400    26A      0.187400    27A      0.211522  
      28A      0.211522    29A      0.231839    30A      0.231840  
      31A      0.233449    32A      0.253099    33A      0.255877  
      34A      0.255877    35A      0.272200    36A      0.296768  
      37A      0.296768    38A      0.309560    39A      0.321767  
      40A      0.321767    41A      0.332161    42A      0.334332  
      43A      0.334332    44A      0.344485    45A      0.356998  
      46A      0.359705    47A      0.366077    48A      0.366078  
      49A      0.387142    50A      0.405152    51A      0.406209  
      52A      0.406209    53A      0.430114    54A      0.430114  
      55A      0.433135    56A      0.450923    57A      0.450923  
      58A      0.457193    59A      0.469770    60A      0.469770  
      61A      0.522581    62A      0.531744    63A      0.531744  
      64A      0.547509    65A      0.547509    66A      0.566036  
      67A      0.635452    68A      0.662697    69A      0.662697  
      70A      0.667414    71A      0.701540    72A      0.701540  
      73A      0.770393    74A      0.807260    75A      0.807260  
      76A      0.808129    77A      0.824254    78A      0.874735  
      79A      0.882531    80A      0.882531    81A      0.895205  
      82A      0.895206    83A      0.942291    84A      0.943535  
      85A      0.943535    86A      0.950061    87A      0.950956  
      88A      0.950957    89A      0.985430    90A      1.010405  
      91A      1.010406    92A      1.017966    93A      1.024181  
      94A      1.024181    95A      1.045692    96A      1.045692  
      97A      1.052947    98A      1.052947    99A      1.067104  
     100A      1.072011   101A      1.072012   102A      1.075961  
     103A      1.090864   104A      1.090864   105A      1.099891  
     106A      1.107453   107A      1.114006   108A      1.114008  
     109A      1.115450   110A      1.151595   111A      1.198182  
     112A      1.198182   113A      1.222629   114A      1.222629  
     115A      1.240272   116A      1.240272   117A      1.263247  
     118A      1.263248   119A      1.263859   120A      1.273661  
     121A      1.273661   122A      1.275319   123A      1.292738  
     124A      1.336945   125A      1.336947   126A      1.365736  
     127A      1.392797   128A      1.392798   129A      1.417064  
     130A      1.479278   131A      1.573901   132A      1.573901  
     133A      1.595461   134A      1.629171   135A      1.639143  
     136A      1.639143   137A      1.666980   138A      1.666982  
     139A      1.680101   140A      1.680101   141A      1.684655  
     142A      1.708722   143A      1.728461   144A      1.749715  
     145A      1.749715   146A      1.782092   147A      1.782093  
     148A      1.831259   149A      1.864146   150A      1.886472  
     151A      1.886473   152A      1.895839   153A      1.895840  
     154A      1.901952   155A      1.910577   156A      2.028549  
     157A      2.028549   158A      2.041049   159A      2.041049  
     160A      2.055710   161A      2.118703   162A      2.158342  
     163A      2.158342   164A      2.169054   165A      2.169056  
     166A      2.287278   167A      2.375856   168A      2.399285  
     169A      2.399287   170A      2.598716   171A      2.680998  
     172A      2.680999   173A      2.702586   174A      2.717948  
     175A      2.939461   176A      2.939461   177A      2.949582  
     178A      3.059143   179A      3.059143   180A      3.071354  
     181A      3.171187   182A      3.213753   183A      3.239456  
     184A      3.244400   185A      3.244402   186A      3.256214  
     187A      3.256215   188A      3.319008   189A      3.409842  
     190A      3.437748   191A      3.437748   192A      3.519580  
     193A      3.519580   194A      3.535482   195A      3.542632  
     196A      3.546686   197A      3.546686   198A      3.605751  
     199A      3.605751   200A      3.665984   201A      3.681800  
     202A      3.751275   203A      3.751275   204A      3.758386  
     205A      3.758387   206A      3.798535   207A      3.798536  
     208A      3.859251   209A      3.866934   210A      3.866935  
     211A      3.982387   212A      4.007398   213A      4.007399  
     214A      4.025990   215A      4.035118   216A      4.035120  
     217A      4.048527   218A      4.084084   219A      4.084086  
     220A      4.095677   221A      4.095677   222A      4.150936  
     223A      4.153021   224A      4.153022   225A      4.238052  
     226A      4.292781   227A      4.400397   228A      4.417740  
     229A      4.417742   230A      4.450597   231A      4.450598  
     232A      4.475465   233A      4.567834   234A      4.567836  
     235A      4.595169   236A      4.698745   237A      4.710021  
     238A      4.710024   239A      4.752730   240A      4.752731  
     241A      4.765055   242A      4.765056   243A      4.793034  
     244A      4.897454   245A      4.929126   246A      4.954576  
     247A      4.954579   248A      4.994171   249A      4.994173  
     250A      5.022061   251A      5.171668   252A      5.171668  
     253A      5.181506   254A      5.181507   255A      5.290182  
     256A      5.315187   257A      5.337450   258A      5.337453  
     259A      5.377815   260A      5.431987   261A      5.456036  
     262A      5.456038   263A      5.548177   264A      5.621960  
     265A      5.647849   266A      5.647850   267A      5.754209  
     268A      5.754211   269A      5.852945   270A      5.942140  
     271A      5.942151   272A      5.988219   273A      6.147829  
     274A      6.147829   275A      6.221096   276A      6.274553  
     277A      6.274564   278A      6.569224   279A      6.569226  
     280A      6.758195   281A      6.758204   282A      6.846889  
     283A      7.116888   284A      7.174830   285A      7.724987  
     286A      7.724990   287A      7.938610   288A      8.107685  
     289A      8.107699   290A      8.964409   291A      8.987587  
     292A      9.227407   293A      9.227407   294A      9.407640  
     295A      9.427520   296A      9.427520   297A      9.460023  
     298A      9.460023   299A      9.824276   300A      9.824276  
     301A      9.914781   302A     10.184953   303A     10.286723  
     304A     10.358091   305A     10.582267   306A     10.582268  
     307A     10.773652   308A     10.848592   309A     10.848592  
     310A     12.050744   311A     13.053296   312A     13.053296  
     313A     13.347700   314A     13.347701   315A     13.778529  
     316A     14.642530   317A     14.642532   318A     15.132717  
     319A     16.196348   320A     17.737748   321A     52.217198  
     322A     75.187589  

    Final Occupation by Irrep:
              A 
    DOCC [     9 ]

  @DF-RHF Final Energy:  -139.09740764755361

   => Energetics <=

    Nuclear Repulsion Energy =             37.3916314205038773
    One-Electron Energy =                -266.4608074244528666
    Two-Electron Energy =                  89.9717683563953869
    Total Energy =                       -139.0974076475536094

Computation Completed


Properties will be evaluated at   0.000000,   0.000000,   0.000000 [a0]

Properties computed using the SCF density matrix

  Nuclear Dipole Moment: [e a0]
     X:    88.8010      Y:     0.0001      Z:     0.0000

  Electronic Dipole Moment: [e a0]
     X:   -89.6092      Y:    -0.0001      Z:     0.0000

  Dipole Moment: [e a0]
     X:    -0.8082      Y:    -0.0000      Z:     0.0000     Total:     0.8082

  Dipole Moment: [D]
     X:    -2.0543      Y:    -0.0000      Z:     0.0000     Total:     2.0543


*** tstop() called on node43.bme.utexas.edu at Thu Apr 23 22:17:06 2020
Module time:
	user time   =      24.98 seconds =       0.42 minutes
	system time =       1.11 seconds =       0.02 minutes
	total time  =          3 seconds =       0.05 minutes
Total time:
	user time   =      89.54 seconds =       1.49 minutes
	system time =       3.78 seconds =       0.06 minutes
	total time  =         13 seconds =       0.22 minutes
  Constructing Basis Sets for SAPT...

   => Loading Basis Set <=

    Name: (AUG-CC-PVTZ AUX)
    Role: RIFIT
    Keyword: DF_BASIS_SAPT
    atoms 1, 6      entry F          line   322 file /home/liuchw/anaconda3/envs/psi4env/share/psi4/basis/aug-cc-pvtz-ri.gbs 
    atoms 2, 7      entry C          line   148 file /home/liuchw/anaconda3/envs/psi4env/share/psi4/basis/aug-cc-pvtz-ri.gbs 
    atoms 3-5, 8-10 entry H          line    30 file /home/liuchw/anaconda3/envs/psi4env/share/psi4/basis/aug-cc-pvtz-ri.gbs 


  //>>>>>>>>>>>>>>>>>>>>>>>>>>>>>>>>>>>//
  //               SAPT2+              //
  //<<<<<<<<<<<<<<<<<<<<<<<<<<<<<<<<<<<//


*** tstart() called on node43.bme.utexas.edu
*** at Thu Apr 23 22:17:06 2020

        SAPT2+  
    Ed Hohenstein
     6 June 2009

      Orbital Information
  --------------------------
    NSO        =       322
    NMO        =       322
    NRI        =       700
    NOCC A     =         9
    NOCC B     =         9
    FOCC A     =         2
    FOCC B     =         2
    NVIR A     =       313
    NVIR B     =       313

    Estimated memory usage: 739.1 MB

    Natural Orbital Cutoff:   1.000E-06
    Disp(T3) Truncation:            Yes
    CCD (vv|vv) Truncation:         Yes
    MBPT T2 Truncation:             Yes

    Monomer A: 180 virtual orbitals dropped
    Monomer B: 180 virtual orbitals dropped

    Elst10,r            =    -0.001137201354 [Eh]
    Exch10 (S^2)        =     0.000019337498 [Eh]
    Exch10              =     0.000019337547 [Eh]
    Ind20,r (A<-B)      =    -0.000015732861 [Eh]
    Ind20,r (B<-A)      =    -0.000037703751 [Eh]
    Ind20,r             =    -0.000053436612 [Eh]
    Exch-Ind20,r (A<-B) =     0.000000716909 [Eh]
    Exch-Ind20,r (B<-A) =     0.000000904107 [Eh]
    Exch-Ind20,r        =     0.000001621015 [Eh]
    Disp20              =    -0.000285567691 [Eh]
    Disp20 (NO)         =    -0.000271817931 [Eh]
    Exch-Disp20         =     0.000002406346 [Eh]
    Elst12,r            =     0.000226796896 [Eh]
    Exch11              =    -0.000000670104 [Eh]
    Exch12              =     0.000006783688 [Eh]
    Ind22               =     0.000007710834 [Eh]
    Disp21              =     0.000005317671 [Eh]
    Disp22 (SDQ)        =     0.000001223519 [Eh]

    (i =   1 of   7)          3 seconds
    (i =   2 of   7)          6 seconds
    (i =   3 of   7)          9 seconds
    (i =   4 of   7)         12 seconds
    (i =   5 of   7)         15 seconds
    (i =   6 of   7)         18 seconds
    (i =   7 of   7)         21 seconds

    Disp220 (T)         =    -0.000026852484 [Eh]

    (i =   1 of   7)          4 seconds
    (i =   2 of   7)          7 seconds
    (i =   3 of   7)         10 seconds
    (i =   4 of   7)         13 seconds
    (i =   5 of   7)         16 seconds
    (i =   6 of   7)         19 seconds
    (i =   7 of   7)         22 seconds

    Disp202 (T)         =    -0.000019075022 [Eh]

    Disp22 (T)          =    -0.000045927507 [Eh]

    Est. Disp220 (T)    =    -0.000028210802 [Eh]
    Est. Disp202 (T)    =    -0.000020039922 [Eh]

    Est. Disp22 (T)     =    -0.000048250724 [Eh]

    SAPT Results 
  --------------------------------------------------------------------------------------------------------
    Electrostatics                 -0.91040446 [mEh]      -0.57128742 [kcal/mol]      -2.39026658 [kJ/mol]
      Elst10,r                     -1.13720135 [mEh]      -0.71360462 [kcal/mol]      -2.98572174 [kJ/mol]
      Elst12,r                      0.22679690 [mEh]       0.14231720 [kcal/mol]       0.59545517 [kJ/mol]

    Exchange                        0.02545113 [mEh]       0.01597083 [kcal/mol]       0.06682193 [kJ/mol]
      Exch10                        0.01933755 [mEh]       0.01213449 [kcal/mol]       0.05077072 [kJ/mol]
      Exch10(S^2)                   0.01933750 [mEh]       0.01213446 [kcal/mol]       0.05077059 [kJ/mol]
      Exch11(S^2)                  -0.00067010 [mEh]      -0.00042050 [kcal/mol]      -0.00175936 [kJ/mol]
      Exch12(S^2)                   0.00678369 [mEh]       0.00425683 [kcal/mol]       0.01781057 [kJ/mol]

    Induction                      -0.04700448 [mEh]      -0.02949576 [kcal/mol]      -0.12341024 [kJ/mol]
      Ind20,r                      -0.05343661 [mEh]      -0.03353198 [kcal/mol]      -0.14029781 [kJ/mol]
      Ind22                         0.00771083 [mEh]       0.00483862 [kcal/mol]       0.02024479 [kJ/mol]
      Exch-Ind20,r                  0.00162102 [mEh]       0.00101720 [kcal/mol]       0.00425598 [kJ/mol]
      Exch-Ind22                   -0.00023391 [mEh]      -0.00014678 [kcal/mol]      -0.00061413 [kJ/mol]
      delta HF,r (2)               -0.00266581 [mEh]      -0.00167282 [kcal/mol]      -0.00699908 [kJ/mol]

    Dispersion                     -0.32487088 [mEh]      -0.20385955 [kcal/mol]      -0.85294838 [kJ/mol]
      Disp20                       -0.28556769 [mEh]      -0.17919643 [kcal/mol]      -0.74975787 [kJ/mol]
      Disp21                        0.00531767 [mEh]       0.00333689 [kcal/mol]       0.01396154 [kJ/mol]
      Disp22 (SDQ)                  0.00122352 [mEh]       0.00076777 [kcal/mol]       0.00321235 [kJ/mol]
      Disp22 (T)                   -0.04592751 [mEh]      -0.02881995 [kcal/mol]      -0.12058265 [kJ/mol]
      Est. Disp22 (T)              -0.04825072 [mEh]      -0.03027779 [kcal/mol]      -0.12668226 [kJ/mol]
      Exch-Disp20                   0.00240635 [mEh]       0.00151000 [kcal/mol]       0.00631786 [kJ/mol]

  Total HF                         -1.17234521 [mEh]      -0.73565773 [kcal/mol]      -3.07799193 [kJ/mol]
  Total SAPT0                      -1.45550656 [mEh]      -0.91334415 [kcal/mol]      -3.82143194 [kJ/mol]
  Total SAPT2                      -1.21511915 [mEh]      -0.76249878 [kcal/mol]      -3.19029490 [kJ/mol]
  Total SAPT2+                     -1.25682869 [mEh]      -0.78867191 [kcal/mol]      -3.29980326 [kJ/mol]

  Special recipe for scaled SAPT0 (see Manual):
    Electrostatics sSAPT0          -1.13720135 [mEh]      -0.71360462 [kcal/mol]      -2.98572174 [kJ/mol]
    Exchange sSAPT0                 0.01933755 [mEh]       0.01213449 [kcal/mol]       0.05077072 [kJ/mol]
    Induction sSAPT0               -0.05448139 [mEh]      -0.03418759 [kcal/mol]      -0.14304087 [kJ/mol]
    Dispersion sSAPT0              -0.28316133 [mEh]      -0.17768642 [kcal/mol]      -0.74343996 [kJ/mol]
  Total sSAPT0                     -1.45550653 [mEh]      -0.91334413 [kcal/mol]      -3.82143186 [kJ/mol]
  --------------------------------------------------------------------------------------------------------

*** tstop() called on node43.bme.utexas.edu at Thu Apr 23 22:18:42 2020
Module time:
	user time   =     686.04 seconds =      11.43 minutes
	system time =      30.29 seconds =       0.50 minutes
	total time  =         96 seconds =       1.60 minutes
Total time:
	user time   =     776.45 seconds =      12.94 minutes
	system time =      34.11 seconds =       0.57 minutes
	total time  =        109 seconds =       1.82 minutes

    Psi4 stopped on: Thursday, 23 April 2020 10:18PM
    Psi4 wall time for execution: 0:01:48.70

*** Psi4 exiting successfully. Buy a developer a beer!
