    -----------------------------------------------------------------------
          PSI4: An Open-Source Ab Initio Electronic Structure Package
                              PSI 4.0.0-beta4 Driver

    J. M. Turney, A. C. Simmonett, R. M. Parrish, E. G. Hohenstein,
    F. A. Evangelista, J. T. Fermann, B. J. Mintz, L. A. Burns, J. J. Wilke,
    M. L. Abrams, N. J. Russ, M. L. Leininger, C. L. Janssen, E. T. Seidl,
    W. D. Allen, H. F. Schaefer, R. A. King, E. F. Valeev, C. D. Sherrill,
    and T. D. Crawford, WIREs Comput. Mol. Sci., (2011) (doi: 10.1002/wcms.93)

                         Additional Contributions by
    A. E. DePrince, M. Saitow, U. Bozkaya, A. Yu. Sokolov
    -----------------------------------------------------------------------

    Process ID:   5754
    PSI4DATADIR: /home/xzhu216/psi4/psi4-install/share/psi

    Using LocalCommunicator (Number of processes = 1)

    Memory level set to 256.000 MB

  ==> Input File <==

--------------------------------------------------------------------------
#psi4
#
memory 7 gb

molecule MeF_MeF {
0 1
    F    -0.914324000     0.000012000     0.000000000
    C    -2.297346000     0.000023000     0.000000000
    H    -2.651740000     1.027062000    -0.000001000
    H    -2.651752000    -0.513492000     0.889440000
    H    -2.651753000    -0.513493000    -0.889439000
--
0 1
    F     3.241004546     0.000018901     0.000000965
    C     1.857638546     0.000017901    -0.000000035
    H     1.499805546     1.025418901    -0.000000035
    H     1.499806546    -0.512684099     0.888022965
    H     1.499807546    -0.512683099    -0.888025035
units angstrom
no_reorient  #important for SAPT in psi4, default
symmetry c1  #important for SAPT in psi4, default
}

set {
basis aug-cc-pVTZ
scf_type DF
freeze_core True
}
energy('sapt2+')
--------------------------------------------------------------------------

  Memory set to   7.000 GiB by Python script.

  //>>>>>>>>>>>>>>>>>>>>>>>>>>>>>>>>>>>//
  //              Dimer HF             //
  //<<<<<<<<<<<<<<<<<<<<<<<<<<<<<<<<<<<//


  No DF_BASIS_SCF auxiliary basis selected, defaulting to aug-cc-pvtz-jkfit


*** tstart() called on node36.bme.utexas.edu
*** at Fri Jun 20 15:54:00 2014


         ---------------------------------------------------------
                                   SCF
            by Justin Turney, Rob Parrish, and Andy Simmonett
                              RHF Reference
                        4 Threads,   7000 MiB Core
         ---------------------------------------------------------

  ==> Geometry <==

    Molecular point group: c1
    Full point group: C1

    Geometry (in Angstrom), charge = 0, multiplicity = 1:

       Center              X                  Y                   Z       
    ------------   -----------------  -----------------  -----------------
           F         -1.435222024772    -0.000005747282    -0.000000232086
           C         -2.818244024772     0.000005252718    -0.000000232086
           H         -3.172638024772     1.027044252718    -0.000001232086
           H         -3.172650024772    -0.513509747282     0.889439767914
           H         -3.172651024772    -0.513510747282    -0.889439232086
           F          2.720106521228     0.000001153718     0.000000732914
           C          1.336740521228     0.000000153718    -0.000000267086
           H          0.978907521228     1.025401153718    -0.000000267086
           H          0.978908521228    -0.512701846282     0.888022732914
           H          0.978909521228    -0.512700846282    -0.888025267086

  Running in c1 symmetry.

  Nuclear repulsion =  118.563488351298091

  Charge       = 0
  Multiplicity = 1
  Electrons    = 36
  Nalpha       = 18
  Nbeta        = 18

  ==> Algorithm <==

  SCF Algorithm Type is DF.
  DIIS enabled.
  MOM disabled.
  Fractional occupation disabled.
  Guess Type is CORE.
  Energy threshold   = 1.00e-08
  Density threshold  = 1.00e-08
  Integral threshold = 0.00e+00

  ==> Primary Basis <==

  Basis Set: AUG-CC-PVTZ
    Number of shells: 110
    Number of basis function: 322
    Number of Cartesian functions: 370
    Spherical Harmonics?: true
    Max angular momentum: 3

  ==> Pre-Iterations <==

   -------------------------------------------------------
    Irrep   Nso     Nmo     Nalpha   Nbeta   Ndocc  Nsocc
   -------------------------------------------------------
     A        322     322       0       0       0       0
   -------------------------------------------------------
    Total     322     322      18      18      18       0
   -------------------------------------------------------

 OEINTS: Wrapper to libmints.
   by Justin Turney

   Calculation information:
      Number of atoms:                  10
      Number of AO shells:             110
      Number of SO shells:             110
      Number of primitives:            186
      Number of atomic orbitals:       370
      Number of basis functions:       322

      Number of irreps:                  1
      Number of functions per irrep: [ 322 ]

      Overlap, kinetic, potential, dipole, and quadrupole integrals
        stored in file 35.

  ==> Integral Setup <==

  ==> DFJK: Density-Fitted J/K Matrices <==

    J tasked:                  Yes
    K tasked:                  Yes
    wK tasked:                  No
    OpenMP threads:              4
    Integrals threads:           4
    Memory (MB):              5006
    Algorithm:                Core
    Integral Cache:           SAVE
    Schwarz Cutoff:          0E+00
    Fitting Condition:       1E-12

   => Auxiliary Basis Set <=

  Basis Set: aug-cc-pvtz-jkfit
    Number of shells: 204
    Number of basis function: 692
    Number of Cartesian functions: 854
    Spherical Harmonics?: true
    Max angular momentum: 4

  Minimum eigenvalue in the overlap matrix is 2.8365537553E-05.
  Using Symmetric Orthogonalization.
  SCF Guess: Core (One-Electron) Hamiltonian.

  Guess energy:  -221.80629093934931

  ==> Iterations <==

                        Total Energy        Delta E     RMS |[F,P]|

   @RHF iter   1:  -225.33545360135554   -2.25335e+02   4.51678e-02 
   @RHF iter   2:  -185.34623979590242    3.99892e+01   1.96321e-02 DIIS
   @RHF iter   3:  -241.10048602711419   -5.57542e+01   2.51173e-02 DIIS
   @RHF iter   4:  -254.28671235740586   -1.31862e+01   1.61341e-02 DIIS
   @RHF iter   5:  -271.26704518280638   -1.69803e+01   1.08380e-02 DIIS
   @RHF iter   6:  -260.76753919083689    1.04995e+01   1.06115e-02 DIIS
   @RHF iter   7:  -277.98815861914113   -1.72206e+01   2.27393e-03 DIIS
   @RHF iter   8:  -278.17409370025331   -1.85935e-01   6.23318e-04 DIIS
   @RHF iter   9:  -278.19165668288065   -1.75630e-02   2.21880e-04 DIIS
   @RHF iter  10:  -278.19486415369653   -3.20747e-03   6.97445e-05 DIIS
   @RHF iter  11:  -278.19525168550268   -3.87532e-04   2.23560e-05 DIIS
   @RHF iter  12:  -278.19528245737155   -3.07719e-05   6.85817e-06 DIIS
   @RHF iter  13:  -278.19528508860350   -2.63123e-06   1.86434e-06 DIIS
   @RHF iter  14:  -278.19528522388032   -1.35277e-07   4.63333e-07 DIIS
   @RHF iter  15:  -278.19528523794804   -1.40677e-08   1.02265e-07 DIIS
   @RHF iter  16:  -278.19528523917336   -1.22532e-09   2.52121e-08 DIIS
   @RHF iter  17:  -278.19528523924765   -7.42943e-11   4.92054e-09 DIIS

  ==> Post-Iterations <==

	Orbital Energies (a.u.)
	-----------------------

	Doubly Occupied:                                                      

	   1A    -26.293002     2A    -26.262456     3A    -11.315665  
	   4A    -11.285022     5A     -1.602891     6A     -1.571519  
	   7A     -0.969378     8A     -0.936190     9A     -0.709899  
	  10A     -0.709899    11A     -0.694300    12A     -0.678698  
	  13A     -0.678698    14A     -0.653733    15A     -0.544224  
	  16A     -0.544223    17A     -0.512406    18A     -0.512406  

	Virtual:                                                              

	  19A      0.023775    20A      0.040837    21A      0.040838  
	  22A      0.044854    23A      0.062934    24A      0.062934  
	  25A      0.085726    26A      0.112329    27A      0.112329  
	  28A      0.123490    29A      0.133789    30A      0.140566  
	  31A      0.140566    32A      0.155500    33A      0.194466  
	  34A      0.194466    35A      0.219281    36A      0.219281  
	  37A      0.226556    38A      0.228157    39A      0.228157  
	  40A      0.243664    41A      0.277569    42A      0.277569  
	  43A      0.288051    44A      0.314761    45A      0.314762  
	  46A      0.317537    47A      0.331094    48A      0.335657  
	  49A      0.342633    50A      0.342633    51A      0.362332  
	  52A      0.362333    53A      0.366386    54A      0.370947  
	  55A      0.370947    56A      0.377011    57A      0.382521  
	  58A      0.398621    59A      0.434364    60A      0.434364  
	  61A      0.435741    62A      0.452790    63A      0.452790  
	  64A      0.462600    65A      0.462600    66A      0.471868  
	  67A      0.489689    68A      0.516369    69A      0.516371  
	  70A      0.522488    71A      0.522488    72A      0.553569  
	  73A      0.555621    74A      0.555622    75A      0.615388  
	  76A      0.667014    77A      0.667014    78A      0.702311  
	  79A      0.754185    80A      0.754186    81A      0.778748  
	  82A      0.803827    83A      0.803827    84A      0.810783  
	  85A      0.836795    86A      0.837787    87A      0.837788  
	  88A      0.854124    89A      0.864403    90A      0.875437  
	  91A      0.875438    92A      0.893538    93A      0.929792  
	  94A      0.929792    95A      0.942629    96A      0.942629  
	  97A      0.943459    98A      0.970770    99A      0.970770  
	 100A      0.983568   101A      0.984694   102A      1.007814  
	 103A      1.007814   104A      1.032568   105A      1.032568  
	 106A      1.043926   107A      1.049408   108A      1.049408  
	 109A      1.055293   110A      1.092198   111A      1.101367  
	 112A      1.101368   113A      1.120399   114A      1.129784  
	 115A      1.129785   116A      1.149027   117A      1.149028  
	 118A      1.174268   119A      1.179878   120A      1.179879  
	 121A      1.227373   122A      1.241386   123A      1.241386  
	 124A      1.263043   125A      1.263043   126A      1.282263  
	 127A      1.282263   128A      1.295486   129A      1.295486  
	 130A      1.298487   131A      1.356347   132A      1.406846  
	 133A      1.483114   134A      1.483116   135A      1.504828  
	 136A      1.550119   137A      1.566001   138A      1.566003  
	 139A      1.580133   140A      1.623515   141A      1.626256  
	 142A      1.626256   143A      1.643802   144A      1.643920  
	 145A      1.643921   146A      1.672545   147A      1.672775  
	 148A      1.672776   149A      1.711157   150A      1.711158  
	 151A      1.718019   152A      1.742662   153A      1.742663  
	 154A      1.754542   155A      1.771444   156A      1.771444  
	 157A      1.837424   158A      1.837424   159A      1.846333  
	 160A      1.890916   161A      1.921647   162A      1.932303  
	 163A      1.932304   164A      1.953030   165A      1.953032  
	 166A      2.041253   167A      2.052570   168A      2.052571  
	 169A      2.109249   170A      2.109249   171A      2.155635  
	 172A      2.161724   173A      2.161725   174A      2.222011  
	 175A      2.222012   176A      2.226549   177A      2.563657  
	 178A      2.672210   179A      2.728893   180A      2.838562  
	 181A      2.958711   182A      2.958711   183A      2.962696  
	 184A      2.966872   185A      2.966874   186A      3.025781  
	 187A      3.084057   188A      3.084058   189A      3.101512  
	 190A      3.101512   191A      3.130667   192A      3.150473  
	 193A      3.201920   194A      3.228700   195A      3.266090  
	 196A      3.269619   197A      3.269619   198A      3.317783  
	 199A      3.317784   200A      3.326199   201A      3.434880  
	 202A      3.434881   203A      3.467687   204A      3.467687  
	 205A      3.528336   206A      3.528337   207A      3.533221  
	 208A      3.541895   209A      3.541895   210A      3.562276  
	 211A      3.569292   212A      3.616061   213A      3.616061  
	 214A      3.618201   215A      3.644694   216A      3.644696  
	 217A      3.654660   218A      3.774643   219A      3.774643  
	 220A      3.803178   221A      3.803179   222A      3.869079  
	 223A      3.869080   224A      3.873107   225A      3.898381  
	 226A      3.898381   227A      4.035587   228A      4.037324  
	 229A      4.037325   230A      4.067171   231A      4.067171  
	 232A      4.071658   233A      4.131314   234A      4.131314  
	 235A      4.199056   236A      4.217895   237A      4.217895  
	 238A      4.254446   239A      4.273558   240A      4.337765  
	 241A      4.440305   242A      4.440305   243A      4.446335  
	 244A      4.446336   245A      4.489884   246A      4.530248  
	 247A      4.734719   248A      4.734719   249A      4.741702  
	 250A      4.741703   251A      4.776605   252A      4.802519  
	 253A      4.802519   254A      4.815189   255A      4.815189  
	 256A      4.834413   257A      4.913197   258A      4.919716  
	 259A      4.949116   260A      4.991671   261A      4.991671  
	 262A      5.032412   263A      5.032412   264A      5.037173  
	 265A      5.164550   266A      5.164550   267A      5.206303  
	 268A      5.206304   269A      5.295838   270A      5.376976  
	 271A      5.584161   272A      5.613908   273A      5.620761  
	 274A      5.642499   275A      5.648387   276A      5.648388  
	 277A      5.679543   278A      5.679544   279A      5.749928  
	 280A      5.749929   281A      5.783570   282A      5.783571  
	 283A      5.995131   284A      6.031153   285A      6.138284  
	 286A      6.138285   287A      6.176514   288A      6.176515  
	 289A      6.553319   290A      6.553319   291A      6.617564  
	 292A      6.617564   293A      7.200684   294A      7.226722  
	 295A      8.957215   296A      8.975917   297A      8.992895  
	 298A      9.005900   299A      9.218502   300A      9.218502  
	 301A      9.256462   302A      9.256462   303A      9.439713  
	 304A      9.455030   305A      9.455030   306A      9.458842  
	 307A      9.458842   308A      9.471549   309A      9.471549  
	 310A      9.476553   311A      9.489915   312A      9.489916  
	 313A      9.844746   314A      9.844746   315A      9.853843  
	 316A      9.853843   317A      9.947908   318A     10.187048  
	 319A     15.292827   320A     15.473594   321A     17.537554  
	 322A     18.162273  

	Final Occupation by Irrep:
	          A 
	DOCC [    18 ]

  Energy converged.

  @RHF Final Energy:  -278.19528523924765

   => Energetics <=

    Nuclear Repulsion Energy =            118.5634883512980906
    One-Electron Energy =                -620.5683346621544842
    Two-Electron Energy =                 223.8095610716085275
    DFT Exchange-Correlation Energy =       0.0000000000000000
    Empirical Dispersion Energy =           0.0000000000000000
    Total Energy =                       -278.1952852392478803



Properties will be evaluated at   0.000000,   0.000000,   0.000000 Bohr
  ==> Properties <==


Properties computed using the SCF density density matrix
  Nuclear Dipole Moment: (a.u.)
     X:    -7.3818      Y:     0.0000      Z:    -0.0000

  Electronic Dipole Moment: (a.u.)
     X:     5.6367      Y:    -0.0000      Z:     0.0000

  Dipole Moment: (a.u.)
     X:    -1.7451      Y:     0.0000      Z:    -0.0000     Total:     1.7451

  Dipole Moment: (Debye)
     X:    -4.4357      Y:     0.0000      Z:    -0.0000     Total:     4.4357


  Saving occupied orbitals to File 180.

  Saving SAPT 2-DIMER file.

*** tstop() called on node36.bme.utexas.edu at Fri Jun 20 15:54:18 2014
Module time:
	user time   =      66.32 seconds =       1.11 minutes
	system time =       0.70 seconds =       0.01 minutes
	total time  =         18 seconds =       0.30 minutes
Total time:
	user time   =      66.32 seconds =       1.11 minutes
	system time =       0.70 seconds =       0.01 minutes
	total time  =         18 seconds =       0.30 minutes

  //>>>>>>>>>>>>>>>>>>>>>>>>>>>>>>>>>>>//
  //            Monomer A HF           //
  //<<<<<<<<<<<<<<<<<<<<<<<<<<<<<<<<<<<//


  No DF_BASIS_SCF auxiliary basis selected, defaulting to aug-cc-pvtz-jkfit


*** tstart() called on node36.bme.utexas.edu
*** at Fri Jun 20 15:54:18 2014


         ---------------------------------------------------------
                                   SCF
            by Justin Turney, Rob Parrish, and Andy Simmonett
                              RHF Reference
                        4 Threads,   7000 MiB Core
         ---------------------------------------------------------

  ==> Geometry <==

    Molecular point group: c1
    Full point group: C1

    Geometry (in Angstrom), charge = 0, multiplicity = 1:

       Center              X                  Y                   Z       
    ------------   -----------------  -----------------  -----------------
           F         -1.435222024772    -0.000005747282    -0.000000232086
           C         -2.818244024772     0.000005252718    -0.000000232086
           H         -3.172638024772     1.027044252718    -0.000001232086
           H         -3.172650024772    -0.513509747282     0.889439767914
           H         -3.172651024772    -0.513510747282    -0.889439232086
           F(Gh)      2.720106521228     0.000001153718     0.000000732914
           C(Gh)      1.336740521228     0.000000153718    -0.000000267086
           H(Gh)      0.978907521228     1.025401153718    -0.000000267086
           H(Gh)      0.978908521228    -0.512701846282     0.888022732914
           H(Gh)      0.978909521228    -0.512700846282    -0.888025267086

  Running in c1 symmetry.

  Nuclear repulsion =   37.400461791873589

  Charge       = 0
  Multiplicity = 1
  Electrons    = 18
  Nalpha       = 9
  Nbeta        = 9

  ==> Algorithm <==

  SCF Algorithm Type is DF.
  DIIS enabled.
  MOM disabled.
  Fractional occupation disabled.
  Guess Type is CORE.
  Energy threshold   = 1.00e-08
  Density threshold  = 1.00e-08
  Integral threshold = 0.00e+00

  ==> Primary Basis <==

  Basis Set: AUG-CC-PVTZ
    Number of shells: 110
    Number of basis function: 322
    Number of Cartesian functions: 370
    Spherical Harmonics?: true
    Max angular momentum: 3

  ==> Pre-Iterations <==

   -------------------------------------------------------
    Irrep   Nso     Nmo     Nalpha   Nbeta   Ndocc  Nsocc
   -------------------------------------------------------
     A        322     322       0       0       0       0
   -------------------------------------------------------
    Total     322     322       9       9       9       0
   -------------------------------------------------------

 OEINTS: Wrapper to libmints.
   by Justin Turney

   Calculation information:
      Number of atoms:                  10
      Number of AO shells:             110
      Number of SO shells:             110
      Number of primitives:            186
      Number of atomic orbitals:       370
      Number of basis functions:       322

      Number of irreps:                  1
      Number of functions per irrep: [ 322 ]

      Overlap, kinetic, potential, dipole, and quadrupole integrals
        stored in file 35.

  ==> Integral Setup <==

  ==> DFJK: Density-Fitted J/K Matrices <==

    J tasked:                  Yes
    K tasked:                  Yes
    wK tasked:                  No
    OpenMP threads:              4
    Integrals threads:           4
    Memory (MB):              5006
    Algorithm:                Core
    Integral Cache:           LOAD
    Schwarz Cutoff:          0E+00
    Fitting Condition:       1E-12

   => Auxiliary Basis Set <=

  Basis Set: aug-cc-pvtz-jkfit
    Number of shells: 204
    Number of basis function: 692
    Number of Cartesian functions: 854
    Spherical Harmonics?: true
    Max angular momentum: 4

  Minimum eigenvalue in the overlap matrix is 2.8365537553E-05.
  Using Symmetric Orthogonalization.
  SCF Guess: Core (One-Electron) Hamiltonian.

  Guess energy:  -110.67919549840789

  ==> Iterations <==

                        Total Energy        Delta E     RMS |[F,P]|

   @RHF iter   1:  -113.73858562226053   -1.13739e+02   3.13783e-02 
   @RHF iter   2:  -108.83562349538983    4.90296e+00   1.04407e-02 DIIS
   @RHF iter   3:  -127.18280867396180   -1.83472e+01   1.90038e-02 DIIS
   @RHF iter   4:  -131.63843804717075   -4.45563e+00   1.46217e-02 DIIS
   @RHF iter   5:  -135.59370348186062   -3.95527e+00   9.83548e-03 DIIS
   @RHF iter   6:  -138.29418190340661   -2.70048e+00   4.31098e-03 DIIS
   @RHF iter   7:  -138.96510498293313   -6.70923e-01   1.79641e-03 DIIS
   @RHF iter   8:  -139.09459555088702   -1.29491e-01   2.90044e-04 DIIS
   @RHF iter   9:  -139.09722629014198   -2.63074e-03   7.67602e-05 DIIS
   @RHF iter  10:  -139.09755231498704   -3.26025e-04   8.98472e-06 DIIS
   @RHF iter  11:  -139.09755757909699   -5.26411e-06   2.42280e-06 DIIS
   @RHF iter  12:  -139.09755806096521   -4.81868e-07   5.95286e-07 DIIS
   @RHF iter  13:  -139.09755808171184   -2.07466e-08   4.73477e-08 DIIS
   @RHF iter  14:  -139.09755808196198   -2.50139e-10   6.85257e-09 DIIS

  ==> Post-Iterations <==

	Orbital Energies (a.u.)
	-----------------------

	Doubly Occupied:                                                      

	   1A    -26.278724     2A    -11.305241     3A     -1.587223  
	   4A     -0.956246     5A     -0.695770     6A     -0.695770  
	   7A     -0.675100     8A     -0.531574     9A     -0.531574  

	Virtual:                                                              

	  10A      0.027361    11A      0.038102    12A      0.044365  
	  13A      0.044365    14A      0.062867    15A      0.062867  
	  16A      0.084795    17A      0.111067    18A      0.115627  
	  19A      0.115627    20A      0.120578    21A      0.135699  
	  22A      0.135699    23A      0.142043    24A      0.200087  
	  25A      0.200087    26A      0.216407    27A      0.216407  
	  28A      0.230411    29A      0.235948    30A      0.235948  
	  31A      0.237443    32A      0.270830    33A      0.271552  
	  34A      0.271552    35A      0.277106    36A      0.315416  
	  37A      0.315416    38A      0.318801    39A      0.332985  
	  40A      0.332985    41A      0.339619    42A      0.357174  
	  43A      0.369482    44A      0.369483    45A      0.378443  
	  46A      0.384485    47A      0.384486    48A      0.385092  
	  49A      0.391415    50A      0.436672    51A      0.443413  
	  52A      0.443414    53A      0.458859    54A      0.458860  
	  55A      0.469309    56A      0.496063    57A      0.496063  
	  58A      0.525456    59A      0.525457    60A      0.541711  
	  61A      0.541711    62A      0.547690    63A      0.562194  
	  64A      0.562194    65A      0.568075    66A      0.579492  
	  67A      0.623033    68A      0.674175    69A      0.674175  
	  70A      0.689218    71A      0.689218    72A      0.731085  
	  73A      0.810577    74A      0.811018    75A      0.811018  
	  76A      0.846461    77A      0.874440    78A      0.907327  
	  79A      0.907327    80A      0.919464    81A      0.919464  
	  82A      0.947630    83A      0.950558    84A      0.958868  
	  85A      0.958868    86A      0.963300    87A      1.014739  
	  88A      1.016299    89A      1.016299    90A      1.022694  
	  91A      1.022694    92A      1.060839    93A      1.060840  
	  94A      1.062532    95A      1.062533    96A      1.063748  
	  97A      1.065970    98A      1.067390    99A      1.075358  
	 100A      1.075358   101A      1.101294   102A      1.101295  
	 103A      1.121490   104A      1.135771   105A      1.155076  
	 106A      1.164206   107A      1.164208   108A      1.176486  
	 109A      1.176486   110A      1.194467   111A      1.208401  
	 112A      1.208402   113A      1.229673   114A      1.229673  
	 115A      1.230175   116A      1.265398   117A      1.265398  
	 118A      1.271061   119A      1.311533   120A      1.311533  
	 121A      1.322807   122A      1.322807   123A      1.337223  
	 124A      1.417674   125A      1.421190   126A      1.421190  
	 127A      1.528861   128A      1.550304   129A      1.550307  
	 130A      1.593211   131A      1.593212   132A      1.596139  
	 133A      1.603511   134A      1.651005   135A      1.651006  
	 136A      1.684133   137A      1.684134   138A      1.687852  
	 139A      1.733108   140A      1.744130   141A      1.744130  
	 142A      1.769641   143A      1.800407   144A      1.800408  
	 145A      1.809011   146A      1.868555   147A      1.868556  
	 148A      1.903159   149A      1.913464   150A      1.945475  
	 151A      1.945476   152A      1.948016   153A      1.960751  
	 154A      1.960753   155A      2.068631   156A      2.068631  
	 157A      2.078020   158A      2.106625   159A      2.135915  
	 160A      2.135916   161A      2.203190   162A      2.203191  
	 163A      2.212844   164A      2.212845   165A      2.220576  
	 166A      2.363845   167A      2.420937   168A      2.467659  
	 169A      2.467660   170A      2.585761   171A      2.719019  
	 172A      2.719019   173A      2.772067   174A      2.777104  
	 175A      2.968789   176A      2.985143   177A      2.985145  
	 178A      3.113478   179A      3.113480   180A      3.178960  
	 181A      3.210534   182A      3.270675   183A      3.270675  
	 184A      3.278684   185A      3.306288   186A      3.306288  
	 187A      3.325439   188A      3.340889   189A      3.456472  
	 190A      3.456472   191A      3.508390   192A      3.536360  
	 193A      3.536360   194A      3.543319   195A      3.564290  
	 196A      3.564290   197A      3.576007   198A      3.648748  
	 199A      3.648749   200A      3.698710   201A      3.775825  
	 202A      3.775826   203A      3.790800   204A      3.796177  
	 205A      3.796178   206A      3.829128   207A      3.829128  
	 208A      3.879165   209A      3.879165   210A      3.946906  
	 211A      4.027637   212A      4.027637   213A      4.044405  
	 214A      4.051228   215A      4.051228   216A      4.051688  
	 217A      4.111965   218A      4.111966   219A      4.144026  
	 220A      4.201617   221A      4.201618   222A      4.216059  
	 223A      4.303737   224A      4.342793   225A      4.342794  
	 226A      4.386182   227A      4.432556   228A      4.449568  
	 229A      4.449568   230A      4.488415   231A      4.511626  
	 232A      4.511626   233A      4.602671   234A      4.608037  
	 235A      4.608037   236A      4.724741   237A      4.724742  
	 238A      4.746075   239A      4.746076   240A      4.761181  
	 241A      4.777950   242A      4.777951   243A      4.899186  
	 244A      4.929718   245A      4.987057   246A      4.987058  
	 247A      5.011095   248A      5.011096   249A      5.035195  
	 250A      5.074682   251A      5.179987   252A      5.179988  
	 253A      5.217917   254A      5.217917   255A      5.304818  
	 256A      5.314498   257A      5.379953   258A      5.379954  
	 259A      5.422646   260A      5.508187   261A      5.508187  
	 262A      5.523129   263A      5.631398   264A      5.667814  
	 265A      5.667814   266A      5.676450   267A      5.763350  
	 268A      5.763351   269A      5.943821   270A      5.983118  
	 271A      5.983119   272A      6.014786   273A      6.149174  
	 274A      6.149174   275A      6.236058   276A      6.311113  
	 277A      6.311114   278A      6.566902   279A      6.566902  
	 280A      6.822357   281A      6.822359   282A      6.877254  
	 283A      7.156092   284A      7.222800   285A      7.782172  
	 286A      7.782174   287A      7.974598   288A      8.194725  
	 289A      8.194727   290A      8.974200   291A      8.994945  
	 292A      9.239323   293A      9.239323   294A      9.475061  
	 295A      9.475062   296A      9.492241   297A      9.500367  
	 298A      9.500369   299A      9.865134   300A      9.865135  
	 301A     10.177348   302A     10.260020   303A     10.305191  
	 304A     10.592689   305A     10.612568   306A     10.612568  
	 307A     10.834152   308A     10.878487   309A     10.878487  
	 310A     12.027987   311A     13.074162   312A     13.074162  
	 313A     13.368015   314A     13.368015   315A     13.816638  
	 316A     14.669873   317A     14.669873   318A     15.455734  
	 319A     16.269444   320A     17.560179   321A     53.414422  
	 322A     75.108537  

	Final Occupation by Irrep:
	          A 
	DOCC [     9 ]

  Energy converged.

  @RHF Final Energy:  -139.09755808196198

   => Energetics <=

    Nuclear Repulsion Energy =             37.4004617918735889
    One-Electron Energy =                -266.4816030438711323
    Two-Electron Energy =                  89.9835831700357147
    DFT Exchange-Correlation Energy =       0.0000000000000000
    Empirical Dispersion Energy =           0.0000000000000000
    Total Energy =                       -139.0975580819618358



Properties will be evaluated at   0.000000,   0.000000,   0.000000 Bohr
  ==> Properties <==


Properties computed using the SCF density density matrix
  Nuclear Dipole Moment: (a.u.)
     X:   -74.3501      Y:     0.0000      Z:    -0.0000

  Electronic Dipole Moment: (a.u.)
     X:    73.5444      Y:    -0.0000      Z:     0.0000

  Dipole Moment: (a.u.)
     X:    -0.8057      Y:     0.0000      Z:    -0.0000     Total:     0.8057

  Dipole Moment: (Debye)
     X:    -2.0480      Y:     0.0000      Z:    -0.0000     Total:     2.0480


  Saving occupied orbitals to File 180.

  Saving SAPT 2-MONOMER_A file.

*** tstop() called on node36.bme.utexas.edu at Fri Jun 20 15:54:30 2014
Module time:
	user time   =      43.63 seconds =       0.73 minutes
	system time =       0.30 seconds =       0.00 minutes
	total time  =         12 seconds =       0.20 minutes
Total time:
	user time   =     109.97 seconds =       1.83 minutes
	system time =       1.00 seconds =       0.02 minutes
	total time  =         30 seconds =       0.50 minutes

  //>>>>>>>>>>>>>>>>>>>>>>>>>>>>>>>>>>>//
  //            Monomer B HF           //
  //<<<<<<<<<<<<<<<<<<<<<<<<<<<<<<<<<<<//


  No DF_BASIS_SCF auxiliary basis selected, defaulting to aug-cc-pvtz-jkfit


*** tstart() called on node36.bme.utexas.edu
*** at Fri Jun 20 15:54:30 2014


         ---------------------------------------------------------
                                   SCF
            by Justin Turney, Rob Parrish, and Andy Simmonett
                              RHF Reference
                        4 Threads,   7000 MiB Core
         ---------------------------------------------------------

  ==> Geometry <==

    Molecular point group: c1
    Full point group: C1

    Geometry (in Angstrom), charge = 0, multiplicity = 1:

       Center              X                  Y                   Z       
    ------------   -----------------  -----------------  -----------------
           F(Gh)     -1.435222024772    -0.000005747282    -0.000000232086
           C(Gh)     -2.818244024772     0.000005252718    -0.000000232086
           H(Gh)     -3.172638024772     1.027044252718    -0.000001232086
           H(Gh)     -3.172650024772    -0.513509747282     0.889439767914
           H(Gh)     -3.172651024772    -0.513510747282    -0.889439232086
           F          2.720106521228     0.000001153718     0.000000732914
           C          1.336740521228     0.000000153718    -0.000000267086
           H          0.978907521228     1.025401153718    -0.000000267086
           H          0.978908521228    -0.512701846282     0.888022732914
           H          0.978909521228    -0.512700846282    -0.888025267086

  Running in c1 symmetry.

  Nuclear repulsion =   37.391659427889131

  Charge       = 0
  Multiplicity = 1
  Electrons    = 18
  Nalpha       = 9
  Nbeta        = 9

  ==> Algorithm <==

  SCF Algorithm Type is DF.
  DIIS enabled.
  MOM disabled.
  Fractional occupation disabled.
  Guess Type is CORE.
  Energy threshold   = 1.00e-08
  Density threshold  = 1.00e-08
  Integral threshold = 0.00e+00

  ==> Primary Basis <==

  Basis Set: AUG-CC-PVTZ
    Number of shells: 110
    Number of basis function: 322
    Number of Cartesian functions: 370
    Spherical Harmonics?: true
    Max angular momentum: 3

  ==> Pre-Iterations <==

   -------------------------------------------------------
    Irrep   Nso     Nmo     Nalpha   Nbeta   Ndocc  Nsocc
   -------------------------------------------------------
     A        322     322       0       0       0       0
   -------------------------------------------------------
    Total     322     322       9       9       9       0
   -------------------------------------------------------

 OEINTS: Wrapper to libmints.
   by Justin Turney

   Calculation information:
      Number of atoms:                  10
      Number of AO shells:             110
      Number of SO shells:             110
      Number of primitives:            186
      Number of atomic orbitals:       370
      Number of basis functions:       322

      Number of irreps:                  1
      Number of functions per irrep: [ 322 ]

      Overlap, kinetic, potential, dipole, and quadrupole integrals
        stored in file 35.

  ==> Integral Setup <==

  ==> DFJK: Density-Fitted J/K Matrices <==

    J tasked:                  Yes
    K tasked:                  Yes
    wK tasked:                  No
    OpenMP threads:              4
    Integrals threads:           4
    Memory (MB):              5006
    Algorithm:                Core
    Integral Cache:           LOAD
    Schwarz Cutoff:          0E+00
    Fitting Condition:       1E-12

   => Auxiliary Basis Set <=

  Basis Set: aug-cc-pvtz-jkfit
    Number of shells: 204
    Number of basis function: 692
    Number of Cartesian functions: 854
    Spherical Harmonics?: true
    Max angular momentum: 4

  Minimum eigenvalue in the overlap matrix is 2.8365537553E-05.
  Using Symmetric Orthogonalization.
  SCF Guess: Core (One-Electron) Hamiltonian.

  Guess energy:  -110.67723951283091

  ==> Iterations <==

                        Total Energy        Delta E     RMS |[F,P]|

   @RHF iter   1:  -113.72371695654260   -1.13724e+02   3.13775e-02 
   @RHF iter   2:  -107.04482594060244    6.67889e+00   1.05319e-02 DIIS
   @RHF iter   3:  -127.29026226060094   -2.02454e+01   1.88803e-02 DIIS
   @RHF iter   4:  -131.79605560246179   -4.50579e+00   1.44398e-02 DIIS
   @RHF iter   5:  -135.71266203337879   -3.91661e+00   9.64692e-03 DIIS
   @RHF iter   6:  -138.36475376850115   -2.65209e+00   4.08810e-03 DIIS
   @RHF iter   7:  -138.98096569072862   -6.16212e-01   1.68407e-03 DIIS
   @RHF iter   8:  -139.09474628836588   -1.13781e-01   2.77570e-04 DIIS
   @RHF iter   9:  -139.09716230607307   -2.41602e-03   6.88950e-05 DIIS
   @RHF iter  10:  -139.09743211525529   -2.69809e-04   8.12407e-06 DIIS
   @RHF iter  11:  -139.09743659897495   -4.48372e-06   2.18181e-06 DIIS
   @RHF iter  12:  -139.09743699728799   -3.98313e-07   5.50917e-07 DIIS
   @RHF iter  13:  -139.09743701457373   -1.72857e-08   4.02489e-08 DIIS
   @RHF iter  14:  -139.09743701476043   -1.86702e-10   6.51589e-09 DIIS

  ==> Post-Iterations <==

	Orbital Energies (a.u.)
	-----------------------

	Doubly Occupied:                                                      

	   1A    -26.279144     2A    -11.305201     3A     -1.587310  
	   4A     -0.956559     5A     -0.695677     6A     -0.695677  
	   7A     -0.675610     8A     -0.531709     9A     -0.531709  

	Virtual:                                                              

	  10A      0.018782    11A      0.039797    12A      0.039797  
	  13A      0.041954    14A      0.061935    15A      0.061935  
	  16A      0.077484    17A      0.100302    18A      0.106173  
	  19A      0.106173    20A      0.126096    21A      0.133935  
	  22A      0.133935    23A      0.145495    24A      0.192395  
	  25A      0.192396    26A      0.194795    27A      0.210957  
	  28A      0.210957    29A      0.236329    30A      0.236329  
	  31A      0.243969    32A      0.264211    33A      0.281383  
	  34A      0.281383    35A      0.292827    36A      0.292827  
	  37A      0.302327    38A      0.323900    39A      0.329621  
	  40A      0.329621    41A      0.334471    42A      0.335139  
	  43A      0.357391    44A      0.357391    45A      0.367371  
	  46A      0.367552    47A      0.367552    48A      0.380481  
	  49A      0.391199    50A      0.410381    51A      0.446583  
	  52A      0.446583    53A      0.448755    54A      0.448756  
	  55A      0.467863    56A      0.467863    57A      0.473137  
	  58A      0.489015    59A      0.503964    60A      0.503965  
	  61A      0.546585    62A      0.546585    63A      0.549769  
	  64A      0.549769    65A      0.558364    66A      0.622206  
	  67A      0.657376    68A      0.667518    69A      0.667518  
	  70A      0.699623    71A      0.747412    72A      0.747413  
	  73A      0.775104    74A      0.815834    75A      0.821028  
	  76A      0.821028    77A      0.860054    78A      0.860054  
	  79A      0.874416    80A      0.874774    81A      0.885133  
	  82A      0.885134    83A      0.939127    84A      0.939127  
	  85A      0.940590    86A      0.960543    87A      0.960544  
	  88A      0.960920    89A      0.968950    90A      1.005549  
	  91A      1.005549    92A      1.025756    93A      1.031689  
	  94A      1.031689    95A      1.057094    96A      1.057094  
	  97A      1.062997    98A      1.062997    99A      1.069138  
	 100A      1.086718   101A      1.105378   102A      1.105379  
	 103A      1.108402   104A      1.126979   105A      1.142727  
	 106A      1.142728   107A      1.144329   108A      1.183238  
	 109A      1.183238   110A      1.195764   111A      1.221907  
	 112A      1.221908   113A      1.254649   114A      1.254650  
	 115A      1.275074   116A      1.275074   117A      1.279965  
	 118A      1.296025   119A      1.296027   120A      1.314802  
	 121A      1.314802   122A      1.342380   123A      1.371075  
	 124A      1.397707   125A      1.397708   126A      1.455321  
	 127A      1.480426   128A      1.480426   129A      1.503016  
	 130A      1.539764   131A      1.580714   132A      1.580715  
	 133A      1.595236   134A      1.646991   135A      1.646992  
	 136A      1.683725   137A      1.702400   138A      1.702401  
	 139A      1.706465   140A      1.711208   141A      1.728519  
	 142A      1.728519   143A      1.731346   144A      1.791496  
	 145A      1.791498   146A      1.852265   147A      1.852267  
	 148A      1.870742   149A      1.900914   150A      1.900915  
	 151A      1.901637   152A      1.929106   153A      2.023787  
	 154A      2.023787   155A      2.043929   156A      2.043929  
	 157A      2.053569   158A      2.078574   159A      2.078577  
	 160A      2.080229   161A      2.139066   162A      2.189553  
	 163A      2.189553   164A      2.230079   165A      2.230079  
	 166A      2.312924   167A      2.385231   168A      2.434907  
	 169A      2.434907   170A      2.631163   171A      2.681208  
	 172A      2.681209   173A      2.737109   174A      2.850979  
	 175A      2.948569   176A      2.948569   177A      3.002319  
	 178A      3.076356   179A      3.076356   180A      3.120085  
	 181A      3.167673   182A      3.263019   183A      3.263020  
	 184A      3.274506   185A      3.274506   186A      3.281268  
	 187A      3.291889   188A      3.326413   189A      3.446490  
	 190A      3.446490   191A      3.511068   192A      3.542662  
	 193A      3.559631   194A      3.559632   195A      3.570216  
	 196A      3.570218   197A      3.600950   198A      3.668194  
	 199A      3.668196   200A      3.674597   201A      3.766958  
	 202A      3.766958   203A      3.775335   204A      3.775335  
	 205A      3.875380   206A      3.875380   207A      3.895659  
	 208A      3.913640   209A      3.916941   210A      3.916942  
	 211A      3.992301   212A      3.992302   213A      4.021853  
	 214A      4.040615   215A      4.053222   216A      4.065848  
	 217A      4.065849   218A      4.103396   219A      4.103396  
	 220A      4.155195   221A      4.155196   222A      4.180925  
	 223A      4.180926   224A      4.248850   225A      4.268489  
	 226A      4.398642   227A      4.423603   228A      4.424436  
	 229A      4.424436   230A      4.459628   231A      4.459629  
	 232A      4.565624   233A      4.568089   234A      4.568089  
	 235A      4.613927   236A      4.767691   237A      4.777776  
	 238A      4.777777   239A      4.781487   240A      4.781488  
	 241A      4.806459   242A      4.810290   243A      4.810290  
	 244A      4.929365   245A      4.968690   246A      4.968691  
	 247A      4.979434   248A      5.046197   249A      5.056568  
	 250A      5.056568   251A      5.163631   252A      5.163632  
	 253A      5.214678   254A      5.214679   255A      5.288170  
	 256A      5.342076   257A      5.342076   258A      5.358878  
	 259A      5.426952   260A      5.460278   261A      5.460278  
	 262A      5.481215   263A      5.567745   264A      5.622527  
	 265A      5.653217   266A      5.653218   267A      5.765442  
	 268A      5.765442   269A      5.870311   270A      5.953973  
	 271A      5.953974   272A      6.004643   273A      6.157657  
	 274A      6.157658   275A      6.218355   276A      6.280323  
	 277A      6.280324   278A      6.593756   279A      6.593757  
	 280A      6.762434   281A      6.762435   282A      6.925489  
	 283A      7.112181   284A      7.227168   285A      7.729276  
	 286A      7.729277   287A      7.965140   288A      8.113781  
	 289A      8.113782   290A      8.976965   291A      8.987613  
	 292A      9.238674   293A      9.238675   294A      9.426298  
	 295A      9.441841   296A      9.441842   297A      9.462093  
	 298A      9.462093   299A      9.828406   300A      9.828406  
	 301A      9.928202   302A     10.194123   303A     10.285975  
	 304A     10.389798   305A     10.581079   306A     10.581079  
	 307A     10.821416   308A     10.877505   309A     10.877506  
	 310A     12.194807   311A     13.075875   312A     13.075876  
	 313A     13.399823   314A     13.399824   315A     13.992568  
	 316A     14.647683   317A     14.647684   318A     15.324302  
	 319A     16.216684   320A     18.140177   321A     52.354043  
	 322A     75.492651  

	Final Occupation by Irrep:
	          A 
	DOCC [     9 ]

  Energy converged.

  @RHF Final Energy:  -139.09743701476043

   => Energetics <=

    Nuclear Repulsion Energy =             37.3916594278891310
    One-Electron Energy =                -266.4610069316785257
    Two-Electron Energy =                  89.9719104890293409
    DFT Exchange-Correlation Energy =       0.0000000000000000
    Empirical Dispersion Energy =           0.0000000000000000
    Total Energy =                       -139.0974370147600609



Properties will be evaluated at   0.000000,   0.000000,   0.000000 Bohr
  ==> Properties <==


Properties computed using the SCF density density matrix
  Nuclear Dipole Moment: (a.u.)
     X:    66.9684      Y:     0.0000      Z:     0.0000

  Electronic Dipole Moment: (a.u.)
     X:   -67.7765      Y:    -0.0000      Z:    -0.0000

  Dipole Moment: (a.u.)
     X:    -0.8081      Y:    -0.0000      Z:    -0.0000     Total:     0.8081

  Dipole Moment: (Debye)
     X:    -2.0540      Y:    -0.0000      Z:    -0.0000     Total:     2.0540


  Saving occupied orbitals to File 180.

  Saving SAPT 2-MONOMER_B file.

*** tstop() called on node36.bme.utexas.edu at Fri Jun 20 15:54:41 2014
Module time:
	user time   =      42.76 seconds =       0.71 minutes
	system time =       0.28 seconds =       0.00 minutes
	total time  =         11 seconds =       0.18 minutes
Total time:
	user time   =     152.75 seconds =       2.55 minutes
	system time =       1.28 seconds =       0.02 minutes
	total time  =         41 seconds =       0.68 minutes
  No DF_BASIS_SAPT auxiliary basis selected, defaulting to aug-cc-pvtz-ri

  //>>>>>>>>>>>>>>>>>>>>>>>>>>>>>>>>>>>//
  //               SAPT2+              //
  //<<<<<<<<<<<<<<<<<<<<<<<<<<<<<<<<<<<//


*** tstart() called on node36.bme.utexas.edu
*** at Fri Jun 20 15:54:41 2014

        SAPT2+  
    Ed Hohenstein
     6 June 2009

      Orbital Information
  --------------------------
    NSO        =       322
    NMO        =       322
    NRI        =       700
    NOCC A     =         9
    NOCC B     =         9
    FOCC A     =         2
    FOCC B     =         2
    NVIR A     =       313
    NVIR B     =       313

    Estimated memory usage: 739.1 MB

    Elst10,r            =    -0.003494525164 H
    Exch10 (S^2)        =     0.003789788212 H
    Exch10              =     0.003793610112 H
    Ind20,r (A<-B)      =    -0.000390039524 H
    Ind20,r (B<-A)      =    -0.000599776545 H
    Ind20,r             =    -0.000989816068 H
    Exch-Ind20,r (A<-B) =     0.000262296613 H
    Exch-Ind20,r (B<-A) =     0.000392984222 H
    Exch-Ind20,r        =     0.000655280835 H
    Disp20              =    -0.002938097697 H
    Exch-Disp20         =     0.000295359632 H
    Elst12,r            =     0.000319460374 H
    Exch11              =    -0.000022268006 H
    Exch12              =     0.000630089091 H
    Ind22               =    -0.000098540093 H
    Disp21              =     0.000044754612 H
    Disp22 (SDQ)        =    -0.000003096079 H

    (i =   1 of   7)        134 seconds
    (i =   2 of   7)        268 seconds
    (i =   3 of   7)        402 seconds
    (i =   4 of   7)        536 seconds
    (i =   5 of   7)        671 seconds
    (i =   6 of   7)        805 seconds
    (i =   7 of   7)        942 seconds

    Disp220 (T)         =    -0.000274925024 H

    (i =   1 of   7)        137 seconds
    (i =   2 of   7)        274 seconds
    (i =   3 of   7)        412 seconds
    (i =   4 of   7)        533 seconds
    (i =   5 of   7)        651 seconds
    (i =   6 of   7)        768 seconds
    (i =   7 of   7)        873 seconds

    Disp202 (T)         =    -0.000182906613 H

    Disp22 (T)          =    -0.000457831638 H

    SAPT Results  
  -----------------------------------------------------------------------
    Electrostatics          -3.17506479 mH      -1.99238332 kcal mol^-1
      Elst10,r              -3.49452516 mH      -2.19284774 kcal mol^-1
      Elst12,r               0.31946037 mH       0.20046442 kcal mol^-1

    Exchange                 4.40143120 mH       2.76193989 kcal mol^-1
      Exch10                 3.79361011 mH       2.38052638 kcal mol^-1
      Exch10(S^2)            3.78978821 mH       2.37812811 kcal mol^-1
      Exch11(S^2)           -0.02226801 mH      -0.01397339 kcal mol^-1
      Exch12(S^2)            0.63008909 mH       0.39538689 kcal mol^-1

    Induction               -0.62253177 mH      -0.39064460 kcal mol^-1
      Ind20,r               -0.98981607 mH      -0.62111899 kcal mol^-1
      Ind22                 -0.09854009 mH      -0.06183484 kcal mol^-1
      Exch-Ind20,r           0.65528084 mH       0.41119495 kcal mol^-1
      Exch-Ind22             0.06523579 mH       0.04093608 kcal mol^-1
      delta HF,r (2)        -0.25469224 mH      -0.15982180 kcal mol^-1

    Dispersion              -3.05891117 mH      -1.91949582 kcal mol^-1
      Disp20                -2.93809770 mH      -1.84368422 kcal mol^-1
      Disp21                 0.04475461 mH       0.02808394 kcal mol^-1
      Disp22 (SDQ)          -0.00309608 mH      -0.00194282 kcal mol^-1
      Disp22 (T)            -0.45783164 mH      -0.28729370 kcal mol^-1
      Exch-Disp20            0.29535963 mH       0.18534098 kcal mol^-1

    Total HF                -0.29014253 mH      -0.18206719 kcal mol^-1
    Total SAPT0             -2.93288059 mH      -1.84041043 kcal mol^-1
    Total SAPT2             -2.03890343 mH      -1.27943127 kcal mol^-1
    Total SAPT2+            -2.45507654 mH      -1.54058385 kcal mol^-1

*** tstop() called on node36.bme.utexas.edu at Fri Jun 20 16:34:43 2014
Module time:
	user time   =    8806.12 seconds =     146.77 minutes
	system time =      54.60 seconds =       0.91 minutes
	total time  =       2402 seconds =      40.03 minutes
Total time:
	user time   =    8958.88 seconds =     149.31 minutes
	system time =      55.88 seconds =       0.93 minutes
	total time  =       2443 seconds =      40.72 minutes

*** PSI4 exiting successfully. Buy a developer a beer!
