    -----------------------------------------------------------------------
          PSI4: An Open-Source Ab Initio Electronic Structure Package
                              PSI 4.0.0-beta4 Driver

    J. M. Turney, A. C. Simmonett, R. M. Parrish, E. G. Hohenstein,
    F. A. Evangelista, J. T. Fermann, B. J. Mintz, L. A. Burns, J. J. Wilke,
    M. L. Abrams, N. J. Russ, M. L. Leininger, C. L. Janssen, E. T. Seidl,
    W. D. Allen, H. F. Schaefer, R. A. King, E. F. Valeev, C. D. Sherrill,
    and T. D. Crawford, WIREs Comput. Mol. Sci., (2011) (doi: 10.1002/wcms.93)

                         Additional Contributions by
    A. E. DePrince, M. Saitow, U. Bozkaya, A. Yu. Sokolov
    -----------------------------------------------------------------------

    Process ID:   9999
    PSI4DATADIR: /home/xzhu216/psi4/psi4-install/share/psi

    Using LocalCommunicator (Number of processes = 1)

    Memory level set to 256.000 MB

  ==> Input File <==

--------------------------------------------------------------------------
#psi4
#
memory 7 gb

molecule MeF_MeF {
0 1
    F    -0.914324000     0.000012000     0.000000000
    C    -2.297346000     0.000023000     0.000000000
    H    -2.651740000     1.027062000    -0.000001000
    H    -2.651752000    -0.513492000     0.889440000
    H    -2.651753000    -0.513493000    -0.889439000
--
0 1
    F     2.590472912     0.000018697     0.000000892
    C     1.207106912     0.000017697    -0.000000108
    H     0.849273912     1.025418697    -0.000000108
    H     0.849274912    -0.512684303     0.888022892
    H     0.849275912    -0.512683303    -0.888025108
units angstrom
no_reorient  #important for SAPT in psi4, default
symmetry c1  #important for SAPT in psi4, default
}

set {
basis aug-cc-pVTZ
scf_type DF
freeze_core True
}
energy('sapt2+')
--------------------------------------------------------------------------

  Memory set to   7.000 GiB by Python script.

  //>>>>>>>>>>>>>>>>>>>>>>>>>>>>>>>>>>>//
  //              Dimer HF             //
  //<<<<<<<<<<<<<<<<<<<<<<<<<<<<<<<<<<<//


  No DF_BASIS_SCF auxiliary basis selected, defaulting to aug-cc-pvtz-jkfit


*** tstart() called on noed146.bme.utexas.edu
*** at Fri Jun 20 15:39:35 2014


         ---------------------------------------------------------
                                   SCF
            by Justin Turney, Rob Parrish, and Andy Simmonett
                              RHF Reference
                        4 Threads,   7000 MiB Core
         ---------------------------------------------------------

  ==> Geometry <==

    Molecular point group: c1
    Full point group: C1

    Geometry (in Angstrom), charge = 0, multiplicity = 1:

       Center              X                  Y                   Z       
    ------------   -----------------  -----------------  -----------------
           F         -1.109956207772    -0.000005645282    -0.000000195586
           C         -2.492978207772     0.000005354718    -0.000000195586
           H         -2.847372207772     1.027044354718    -0.000001195586
           H         -2.847384207772    -0.513509645282     0.889439804414
           H         -2.847385207772    -0.513510645282    -0.889439195586
           F          2.394840704228     0.000001051718     0.000000696414
           C          1.011474704228     0.000000051718    -0.000000303586
           H          0.653641704228     1.025401051718    -0.000000303586
           H          0.653642704228    -0.512701948282     0.888022696414
           H          0.653643704228    -0.512700948282    -0.888025303586

  Running in c1 symmetry.

  Nuclear repulsion =  127.978298638217680

  Charge       = 0
  Multiplicity = 1
  Electrons    = 36
  Nalpha       = 18
  Nbeta        = 18

  ==> Algorithm <==

  SCF Algorithm Type is DF.
  DIIS enabled.
  MOM disabled.
  Fractional occupation disabled.
  Guess Type is CORE.
  Energy threshold   = 1.00e-08
  Density threshold  = 1.00e-08
  Integral threshold = 0.00e+00

  ==> Primary Basis <==

  Basis Set: AUG-CC-PVTZ
    Number of shells: 110
    Number of basis function: 322
    Number of Cartesian functions: 370
    Spherical Harmonics?: true
    Max angular momentum: 3

  ==> Pre-Iterations <==

   -------------------------------------------------------
    Irrep   Nso     Nmo     Nalpha   Nbeta   Ndocc  Nsocc
   -------------------------------------------------------
     A        322     322       0       0       0       0
   -------------------------------------------------------
    Total     322     322      18      18      18       0
   -------------------------------------------------------

 OEINTS: Wrapper to libmints.
   by Justin Turney

   Calculation information:
      Number of atoms:                  10
      Number of AO shells:             110
      Number of SO shells:             110
      Number of primitives:            186
      Number of atomic orbitals:       370
      Number of basis functions:       322

      Number of irreps:                  1
      Number of functions per irrep: [ 322 ]

      Overlap, kinetic, potential, dipole, and quadrupole integrals
        stored in file 35.

  ==> Integral Setup <==

  ==> DFJK: Density-Fitted J/K Matrices <==

    J tasked:                  Yes
    K tasked:                  Yes
    wK tasked:                  No
    OpenMP threads:              4
    Integrals threads:           4
    Memory (MB):              5006
    Algorithm:                Core
    Integral Cache:           SAVE
    Schwarz Cutoff:          0E+00
    Fitting Condition:       1E-12

   => Auxiliary Basis Set <=

  Basis Set: aug-cc-pvtz-jkfit
    Number of shells: 204
    Number of basis function: 692
    Number of Cartesian functions: 854
    Spherical Harmonics?: true
    Max angular momentum: 4

  Minimum eigenvalue in the overlap matrix is 1.1606620541E-05.
  Using Symmetric Orthogonalization.
  SCF Guess: Core (One-Electron) Hamiltonian.

  Guess energy:  -222.37363956905875

  ==> Iterations <==

                        Total Energy        Delta E     RMS |[F,P]|

   @RHF iter   1:  -224.88351857584104   -2.24884e+02   4.56151e-02 
   @RHF iter   2:  -183.12899350650247    4.17545e+01   1.99064e-02 DIIS
   @RHF iter   3:  -242.17736862773620   -5.90484e+01   2.47725e-02 DIIS
   @RHF iter   4:  -255.19288587626102   -1.30155e+01   1.58280e-02 DIIS
   @RHF iter   5:  -271.73891698126755   -1.65460e+01   1.05957e-02 DIIS
   @RHF iter   6:  -268.69906237565630    3.03985e+00   8.74139e-03 DIIS
   @RHF iter   7:  -278.04523067333571   -9.34617e+00   1.64816e-03 DIIS
   @RHF iter   8:  -278.14139024928977   -9.61596e-02   7.10079e-04 DIIS
   @RHF iter   9:  -278.16366150612981   -2.22713e-02   2.90824e-04 DIIS
   @RHF iter  10:  -278.16914840626606   -5.48690e-03   9.43041e-05 DIIS
   @RHF iter  11:  -278.16973363694609   -5.85231e-04   4.11204e-05 DIIS
   @RHF iter  12:  -278.16981126068316   -7.76237e-05   1.18614e-05 DIIS
   @RHF iter  13:  -278.16982014924832   -8.88857e-06   1.71863e-06 DIIS
   @RHF iter  14:  -278.16982034901150   -1.99763e-07   4.06986e-07 DIIS
   @RHF iter  15:  -278.16982036212335   -1.31118e-08   9.39338e-08 DIIS
   @RHF iter  16:  -278.16982036317648   -1.05314e-09   2.05895e-08 DIIS
   @RHF iter  17:  -278.16982036322980   -5.33191e-11   3.51129e-09 DIIS

  ==> Post-Iterations <==

	Orbital Energies (a.u.)
	-----------------------

	Doubly Occupied:                                                      

	   1A    -26.296236     2A    -26.248748     3A    -11.319535  
	   4A    -11.272533     5A     -1.615831     6A     -1.559803  
	   7A     -0.989070     8A     -0.921448     9A     -0.722238  
	  10A     -0.722238    11A     -0.716317    12A     -0.666556  
	  13A     -0.666556    14A     -0.620179    15A     -0.554356  
	  16A     -0.554355    17A     -0.497119    18A     -0.497119  

	Virtual:                                                              

	  19A      0.022341    20A      0.040389    21A      0.040389  
	  22A      0.045688    23A      0.064418    24A      0.064418  
	  25A      0.089069    26A      0.110164    27A      0.110164  
	  28A      0.123783    29A      0.133228    30A      0.144385  
	  31A      0.144385    32A      0.155705    33A      0.189616  
	  34A      0.189616    35A      0.225204    36A      0.225204  
	  37A      0.228779    38A      0.231383    39A      0.231383  
	  40A      0.255317    41A      0.292619    42A      0.293538  
	  43A      0.293538    44A      0.308887    45A      0.308887  
	  46A      0.318186    47A      0.324305    48A      0.349383  
	  49A      0.349383    50A      0.353213    51A      0.374805  
	  52A      0.375978    53A      0.375987    54A      0.375987  
	  55A      0.393967    56A      0.396856    57A      0.396856  
	  58A      0.403457    59A      0.438305    60A      0.438305  
	  61A      0.445401    62A      0.464986    63A      0.464987  
	  64A      0.469685    65A      0.469685    66A      0.489207  
	  67A      0.516872    68A      0.516872    69A      0.519920  
	  70A      0.532735    71A      0.532735    72A      0.567859  
	  73A      0.569353    74A      0.569353    75A      0.611102  
	  76A      0.671402    77A      0.671403    78A      0.741632  
	  79A      0.771797    80A      0.771986    81A      0.771986  
	  82A      0.789451    83A      0.800060    84A      0.800060  
	  85A      0.850975    86A      0.858483    87A      0.858484  
	  88A      0.864588    89A      0.876749    90A      0.876749  
	  91A      0.896098    92A      0.929816    93A      0.936818  
	  94A      0.936818    95A      0.945139    96A      0.959983  
	  97A      0.959984    98A      0.965535    99A      0.965536  
	 100A      0.994432   101A      1.026303   102A      1.032769  
	 103A      1.041868   104A      1.041868   105A      1.057107  
	 106A      1.057108   107A      1.058741   108A      1.070516  
	 109A      1.070517   110A      1.127806   111A      1.143365  
	 112A      1.143367   113A      1.153684   114A      1.155014  
	 115A      1.155015   116A      1.181461   117A      1.181462  
	 118A      1.200565   119A      1.200565   120A      1.204809  
	 121A      1.264407   122A      1.264407   123A      1.287372  
	 124A      1.287373   125A      1.289215   126A      1.294940  
	 127A      1.295981   128A      1.295981   129A      1.365064  
	 130A      1.365065   131A      1.378199   132A      1.532900  
	 133A      1.561240   134A      1.577193   135A      1.596168  
	 136A      1.596168   137A      1.605984   138A      1.622388  
	 139A      1.622389   140A      1.641107   141A      1.645781  
	 142A      1.647104   143A      1.647105   144A      1.661677  
	 145A      1.661679   146A      1.680124   147A      1.693285  
	 148A      1.693285   149A      1.729406   150A      1.729407  
	 151A      1.758291   152A      1.762684   153A      1.762685  
	 154A      1.843093   155A      1.848821   156A      1.848822  
	 157A      1.867152   158A      1.912254   159A      1.912255  
	 160A      1.961020   161A      1.987407   162A      1.987409  
	 163A      1.991512   164A      2.029329   165A      2.029329  
	 166A      2.099980   167A      2.099981   168A      2.100735  
	 169A      2.146418   170A      2.146418   171A      2.162624  
	 172A      2.220914   173A      2.220915   174A      2.320832  
	 175A      2.320834   176A      2.409963   177A      2.560585  
	 178A      2.689120   179A      2.790571   180A      2.974744  
	 181A      2.996410   182A      2.996411   183A      3.008987  
	 184A      3.026511   185A      3.026512   186A      3.092874  
	 187A      3.112043   188A      3.112044   189A      3.160820  
	 190A      3.180398   191A      3.181995   192A      3.181998  
	 193A      3.245465   194A      3.253971   195A      3.253972  
	 196A      3.256585   197A      3.315343   198A      3.387668  
	 199A      3.387668   200A      3.453120   201A      3.453121  
	 202A      3.454365   203A      3.489347   204A      3.489349  
	 205A      3.532422   206A      3.549374   207A      3.549376  
	 208A      3.579360   209A      3.586320   210A      3.586320  
	 211A      3.605374   212A      3.670840   213A      3.680660  
	 214A      3.680660   215A      3.748510   216A      3.748510  
	 217A      3.779249   218A      3.779250   219A      3.869383  
	 220A      3.870891   221A      3.870892   222A      3.900471  
	 223A      3.900473   224A      3.926147   225A      3.926148  
	 226A      3.985875   227A      4.025890   228A      4.025892  
	 229A      4.031398   230A      4.083948   231A      4.087587  
	 232A      4.087587   233A      4.115327   234A      4.115328  
	 235A      4.201349   236A      4.245629   237A      4.300047  
	 238A      4.346951   239A      4.346952   240A      4.356420  
	 241A      4.464874   242A      4.464875   243A      4.502236  
	 244A      4.502239   245A      4.535680   246A      4.737884  
	 247A      4.737884   248A      4.766307   249A      4.766308  
	 250A      4.809208   251A      4.843796   252A      4.843797  
	 253A      4.890552   254A      4.905480   255A      4.905480  
	 256A      4.907493   257A      4.915136   258A      4.965621  
	 259A      5.001063   260A      5.001064   261A      5.045636  
	 262A      5.118034   263A      5.118034   264A      5.188923  
	 265A      5.229082   266A      5.229082   267A      5.311265  
	 268A      5.317288   269A      5.317291   270A      5.535174  
	 271A      5.615647   272A      5.639076   273A      5.657253  
	 274A      5.657757   275A      5.657759   276A      5.723231  
	 277A      5.723233   278A      5.767719   279A      5.805467  
	 280A      5.805468   281A      5.820609   282A      5.820610  
	 283A      6.030866   284A      6.152989   285A      6.152990  
	 286A      6.178880   287A      6.238256   288A      6.238257  
	 289A      6.565185   290A      6.565185   291A      6.691661  
	 292A      6.691661   293A      7.269572   294A      7.379579  
	 295A      8.995350   296A      9.007216   297A      9.015043  
	 298A      9.029928   299A      9.281427   300A      9.281428  
	 301A      9.340727   302A      9.340729   303A      9.454666  
	 304A      9.484352   305A      9.484352   306A      9.497395  
	 307A      9.497396   308A      9.517651   309A      9.517652  
	 310A      9.580245   311A      9.580245   312A      9.860457  
	 313A      9.867801   314A      9.867801   315A      9.978328  
	 316A      9.978328   317A     10.005116   318A     10.386556  
	 319A     15.399289   320A     16.269052   321A     17.574112  
	 322A     18.523280  

	Final Occupation by Irrep:
	          A 
	DOCC [    18 ]

  Energy converged.

  @RHF Final Energy:  -278.16982036322980

   => Energetics <=

    Nuclear Repulsion Energy =            127.9782986382176801
    One-Electron Energy =                -639.4157630782480055
    Two-Electron Energy =                 233.2676440767995132
    DFT Exchange-Correlation Energy =       0.0000000000000000
    Empirical Dispersion Energy =           0.0000000000000000
    Total Energy =                       -278.1698203632308264



Properties will be evaluated at   0.000000,   0.000000,   0.000000 Bohr
  ==> Properties <==


Properties computed using the SCF density density matrix
  Nuclear Dipole Moment: (a.u.)
     X:    -7.3818      Y:     0.0000      Z:    -0.0000

  Electronic Dipole Moment: (a.u.)
     X:     5.5010      Y:    -0.0000      Z:     0.0000

  Dipole Moment: (a.u.)
     X:    -1.8808      Y:     0.0000      Z:    -0.0000     Total:     1.8808

  Dipole Moment: (Debye)
     X:    -4.7804      Y:     0.0000      Z:    -0.0000     Total:     4.7804


  Saving occupied orbitals to File 180.

  Saving SAPT 2-DIMER file.

*** tstop() called on noed146.bme.utexas.edu at Fri Jun 20 15:40:04 2014
Module time:
	user time   =     107.36 seconds =       1.79 minutes
	system time =       1.34 seconds =       0.02 minutes
	total time  =         29 seconds =       0.48 minutes
Total time:
	user time   =     107.36 seconds =       1.79 minutes
	system time =       1.34 seconds =       0.02 minutes
	total time  =         29 seconds =       0.48 minutes

  //>>>>>>>>>>>>>>>>>>>>>>>>>>>>>>>>>>>//
  //            Monomer A HF           //
  //<<<<<<<<<<<<<<<<<<<<<<<<<<<<<<<<<<<//


  No DF_BASIS_SCF auxiliary basis selected, defaulting to aug-cc-pvtz-jkfit


*** tstart() called on noed146.bme.utexas.edu
*** at Fri Jun 20 15:40:04 2014


         ---------------------------------------------------------
                                   SCF
            by Justin Turney, Rob Parrish, and Andy Simmonett
                              RHF Reference
                        4 Threads,   7000 MiB Core
         ---------------------------------------------------------

  ==> Geometry <==

    Molecular point group: c1
    Full point group: C1

    Geometry (in Angstrom), charge = 0, multiplicity = 1:

       Center              X                  Y                   Z       
    ------------   -----------------  -----------------  -----------------
           F         -1.109956207772    -0.000005645282    -0.000000195586
           C         -2.492978207772     0.000005354718    -0.000000195586
           H         -2.847372207772     1.027044354718    -0.000001195586
           H         -2.847384207772    -0.513509645282     0.889439804414
           H         -2.847385207772    -0.513510645282    -0.889439195586
           F(Gh)      2.394840704228     0.000001051718     0.000000696414
           C(Gh)      1.011474704228     0.000000051718    -0.000000303586
           H(Gh)      0.653641704228     1.025401051718    -0.000000303586
           H(Gh)      0.653642704228    -0.512701948282     0.888022696414
           H(Gh)      0.653643704228    -0.512700948282    -0.888025303586

  Running in c1 symmetry.

  Nuclear repulsion =   37.400461791873560

  Charge       = 0
  Multiplicity = 1
  Electrons    = 18
  Nalpha       = 9
  Nbeta        = 9

  ==> Algorithm <==

  SCF Algorithm Type is DF.
  DIIS enabled.
  MOM disabled.
  Fractional occupation disabled.
  Guess Type is CORE.
  Energy threshold   = 1.00e-08
  Density threshold  = 1.00e-08
  Integral threshold = 0.00e+00

  ==> Primary Basis <==

  Basis Set: AUG-CC-PVTZ
    Number of shells: 110
    Number of basis function: 322
    Number of Cartesian functions: 370
    Spherical Harmonics?: true
    Max angular momentum: 3

  ==> Pre-Iterations <==

   -------------------------------------------------------
    Irrep   Nso     Nmo     Nalpha   Nbeta   Ndocc  Nsocc
   -------------------------------------------------------
     A        322     322       0       0       0       0
   -------------------------------------------------------
    Total     322     322       9       9       9       0
   -------------------------------------------------------

 OEINTS: Wrapper to libmints.
   by Justin Turney

   Calculation information:
      Number of atoms:                  10
      Number of AO shells:             110
      Number of SO shells:             110
      Number of primitives:            186
      Number of atomic orbitals:       370
      Number of basis functions:       322

      Number of irreps:                  1
      Number of functions per irrep: [ 322 ]

      Overlap, kinetic, potential, dipole, and quadrupole integrals
        stored in file 35.

  ==> Integral Setup <==

  ==> DFJK: Density-Fitted J/K Matrices <==

    J tasked:                  Yes
    K tasked:                  Yes
    wK tasked:                  No
    OpenMP threads:              4
    Integrals threads:           4
    Memory (MB):              5006
    Algorithm:                Core
    Integral Cache:           LOAD
    Schwarz Cutoff:          0E+00
    Fitting Condition:       1E-12

   => Auxiliary Basis Set <=

  Basis Set: aug-cc-pvtz-jkfit
    Number of shells: 204
    Number of basis function: 692
    Number of Cartesian functions: 854
    Spherical Harmonics?: true
    Max angular momentum: 4

  Minimum eigenvalue in the overlap matrix is 1.1606620542E-05.
  Using Symmetric Orthogonalization.
  SCF Guess: Core (One-Electron) Hamiltonian.

  Guess energy:  -110.68064714070468

  ==> Iterations <==

                        Total Energy        Delta E     RMS |[F,P]|

   @RHF iter   1:  -113.72848957256645   -1.13728e+02   3.14748e-02 
   @RHF iter   2:  -108.74806903403311    4.98042e+00   1.04431e-02 DIIS
   @RHF iter   3:  -127.14878787107023   -1.84007e+01   1.90290e-02 DIIS
   @RHF iter   4:  -131.61723012277321   -4.46844e+00   1.46376e-02 DIIS
   @RHF iter   5:  -135.57995834126180   -3.96273e+00   9.85402e-03 DIIS
   @RHF iter   6:  -138.28808462763098   -2.70813e+00   4.32902e-03 DIIS
   @RHF iter   7:  -138.96346432061114   -6.75380e-01   1.80724e-03 DIIS
   @RHF iter   8:  -139.09470346896447   -1.31239e-01   2.89430e-04 DIIS
   @RHF iter   9:  -139.09733450473195   -2.63104e-03   7.81022e-05 DIIS
   @RHF iter  10:  -139.09766975014779   -3.35245e-04   8.98040e-06 DIIS
   @RHF iter  11:  -139.09767502273314   -5.27259e-06   2.42375e-06 DIIS
   @RHF iter  12:  -139.09767550615075   -4.83418e-07   6.03893e-07 DIIS
   @RHF iter  13:  -139.09767552733700   -2.11863e-08   4.90744e-08 DIIS
   @RHF iter  14:  -139.09767552760121   -2.64208e-10   7.07282e-09 DIIS

  ==> Post-Iterations <==

	Orbital Energies (a.u.)
	-----------------------

	Doubly Occupied:                                                      

	   1A    -26.278586     2A    -11.305211     3A     -1.587137  
	   4A     -0.956217     5A     -0.695731     6A     -0.695731  
	   7A     -0.675049     8A     -0.531537     9A     -0.531537  

	Virtual:                                                              

	  10A      0.027716    11A      0.039049    12A      0.044667  
	  13A      0.044667    14A      0.064323    15A      0.064323  
	  16A      0.087425    17A      0.113778    18A      0.114874  
	  19A      0.114874    20A      0.124471    21A      0.139385  
	  22A      0.139385    23A      0.141942    24A      0.198375  
	  25A      0.198375    26A      0.220206    27A      0.220206  
	  28A      0.235878    29A      0.239032    30A      0.239032  
	  31A      0.241112    32A      0.273876    33A      0.285739  
	  34A      0.287267    35A      0.287267    36A      0.316697  
	  37A      0.316697    38A      0.330266    39A      0.334661  
	  40A      0.334661    41A      0.335755    42A      0.361206  
	  43A      0.383716    44A      0.383716    45A      0.387851  
	  46A      0.389093    47A      0.397875    48A      0.412759  
	  49A      0.412759    50A      0.447926    51A      0.447927  
	  52A      0.462167    53A      0.469792    54A      0.469792  
	  55A      0.474091    56A      0.513804    57A      0.513805  
	  58A      0.526768    59A      0.526769    60A      0.545648  
	  61A      0.556537    62A      0.556537    63A      0.563571  
	  64A      0.563572    65A      0.566534    66A      0.608416  
	  67A      0.672728    68A      0.677092    69A      0.677093  
	  70A      0.706435    71A      0.706436    72A      0.790545  
	  73A      0.811262    74A      0.811262    75A      0.819946  
	  76A      0.848489    77A      0.877260    78A      0.913383  
	  79A      0.926770    80A      0.926771    81A      0.952609  
	  82A      0.958588    83A      0.958589    84A      0.961687  
	  85A      0.961688    86A      0.967068    87A      0.997599  
	  88A      0.997599    89A      1.033560    90A      1.033561  
	  91A      1.046531    92A      1.047070    93A      1.066328  
	  94A      1.079683    95A      1.079683    96A      1.087756  
	  97A      1.087758    98A      1.090920    99A      1.116614  
	 100A      1.116616   101A      1.119857   102A      1.133634  
	 103A      1.133635   104A      1.166991   105A      1.168240  
	 106A      1.181691   107A      1.181691   108A      1.205417  
	 109A      1.205418   110A      1.227091   111A      1.230146  
	 112A      1.230147   113A      1.259851   114A      1.259851  
	 115A      1.288295   116A      1.309837   117A      1.309838  
	 118A      1.321057   119A      1.343821   120A      1.343821  
	 121A      1.389882   122A      1.389883   123A      1.395509  
	 124A      1.442430   125A      1.442431   126A      1.561573  
	 127A      1.594070   128A      1.601271   129A      1.618308  
	 130A      1.618308   131A      1.659390   132A      1.659391  
	 133A      1.671954   134A      1.674694   135A      1.674695  
	 136A      1.720852   137A      1.740654   138A      1.740656  
	 139A      1.743327   140A      1.765512   141A      1.797197  
	 142A      1.797197   143A      1.872764   144A      1.872765  
	 145A      1.909492   146A      1.921463   147A      1.921464  
	 148A      1.951127   149A      1.986364   150A      1.994596  
	 151A      1.994598   152A      2.044372   153A      2.044373  
	 154A      2.058306   155A      2.094509   156A      2.108051  
	 157A      2.122630   158A      2.122631   159A      2.163654  
	 160A      2.163654   161A      2.244804   162A      2.244805  
	 163A      2.300028   164A      2.387510   165A      2.387510  
	 166A      2.408311   167A      2.480474   168A      2.480474  
	 169A      2.529394   170A      2.608919   171A      2.749065  
	 172A      2.749065   173A      2.774886   174A      2.976213  
	 175A      3.009979   176A      3.053787   177A      3.053790  
	 178A      3.192035   179A      3.192037   180A      3.226150  
	 181A      3.243826   182A      3.295309   183A      3.295310  
	 184A      3.327784   185A      3.358606   186A      3.362783  
	 187A      3.367308   188A      3.367309   189A      3.484971  
	 190A      3.484973   191A      3.540356   192A      3.540357  
	 193A      3.547853   194A      3.558027   195A      3.608955  
	 196A      3.608956   197A      3.626938   198A      3.682560  
	 199A      3.682561   200A      3.776937   201A      3.814090  
	 202A      3.814090   203A      3.828939   204A      3.828940  
	 205A      3.832248   206A      3.832249   207A      3.849560  
	 208A      3.891826   209A      3.891826   210A      4.043551  
	 211A      4.054076   212A      4.054076   213A      4.055161  
	 214A      4.063089   215A      4.135063   216A      4.135065  
	 217A      4.175689   218A      4.208217   219A      4.208218  
	 220A      4.218872   221A      4.289890   222A      4.289896  
	 223A      4.346419   224A      4.378016   225A      4.378016  
	 226A      4.447003   227A      4.474000   228A      4.474002  
	 229A      4.539038   230A      4.539039   231A      4.542866  
	 232A      4.609370   233A      4.637460   234A      4.637460  
	 235A      4.734340   236A      4.734342   237A      4.753925  
	 238A      4.753925   239A      4.763428   240A      4.845495  
	 241A      4.845496   242A      4.923244   243A      4.929430  
	 244A      4.967894   245A      4.967895   246A      5.002948  
	 247A      5.090739   248A      5.090739   249A      5.116172  
	 250A      5.250833   251A      5.250834   252A      5.270169  
	 253A      5.270170   254A      5.300416   255A      5.324422  
	 256A      5.359552   257A      5.522264   258A      5.532854  
	 259A      5.532854   260A      5.580463   261A      5.585987  
	 262A      5.585990   263A      5.632708   264A      5.720636  
	 265A      5.720637   266A      5.808225   267A      5.808226  
	 268A      5.835168   269A      6.007010   270A      6.007011  
	 271A      6.060588   272A      6.160343   273A      6.161197  
	 274A      6.161198   275A      6.246606   276A      6.350756  
	 277A      6.350758   278A      6.581835   279A      6.581835  
	 280A      6.914911   281A      6.914913   282A      6.956708  
	 283A      7.180070   284A      7.324565   285A      7.826192  
	 286A      7.826193   287A      8.051063   288A      8.253069  
	 289A      8.253072   290A      9.037293   291A      9.041293  
	 292A      9.383103   293A      9.383106   294A      9.536487  
	 295A      9.536488   296A      9.612713   297A      9.612714  
	 298A      9.885106   299A      9.991253   300A      9.991255  
	 301A     10.309248   302A     10.315580   303A     10.388047  
	 304A     10.644592   305A     10.644592   306A     10.710956  
	 307A     10.875299   308A     10.923055   309A     10.923055  
	 310A     12.311131   311A     13.081552   312A     13.081552  
	 313A     13.380346   314A     13.380346   315A     13.884992  
	 316A     14.695052   317A     14.695052   318A     15.745992  
	 319A     16.391816   320A     17.601091   321A     54.119398  
	 322A     76.318935  

	Final Occupation by Irrep:
	          A 
	DOCC [     9 ]

  Energy converged.

  @RHF Final Energy:  -139.09767552760121

   => Energetics <=

    Nuclear Repulsion Energy =             37.4004617918735605
    One-Electron Energy =                -266.4828085929347026
    Two-Electron Energy =                  89.9846712734593126
    DFT Exchange-Correlation Energy =       0.0000000000000000
    Empirical Dispersion Energy =           0.0000000000000000
    Total Energy =                       -139.0976755276018366



Properties will be evaluated at   0.000000,   0.000000,   0.000000 Bohr
  ==> Properties <==


Properties computed using the SCF density density matrix
  Nuclear Dipole Moment: (a.u.)
     X:   -63.2862      Y:     0.0000      Z:    -0.0000

  Electronic Dipole Moment: (a.u.)
     X:    62.4811      Y:    -0.0000      Z:     0.0000

  Dipole Moment: (a.u.)
     X:    -0.8051      Y:     0.0000      Z:    -0.0000     Total:     0.8051

  Dipole Moment: (Debye)
     X:    -2.0463      Y:     0.0000      Z:    -0.0000     Total:     2.0463


  Saving occupied orbitals to File 180.

  Saving SAPT 2-MONOMER_A file.

*** tstop() called on noed146.bme.utexas.edu at Fri Jun 20 15:40:24 2014
Module time:
	user time   =      72.42 seconds =       1.21 minutes
	system time =       0.81 seconds =       0.01 minutes
	total time  =         20 seconds =       0.33 minutes
Total time:
	user time   =     179.81 seconds =       3.00 minutes
	system time =       2.15 seconds =       0.04 minutes
	total time  =         49 seconds =       0.82 minutes

  //>>>>>>>>>>>>>>>>>>>>>>>>>>>>>>>>>>>//
  //            Monomer B HF           //
  //<<<<<<<<<<<<<<<<<<<<<<<<<<<<<<<<<<<//


  No DF_BASIS_SCF auxiliary basis selected, defaulting to aug-cc-pvtz-jkfit


*** tstart() called on noed146.bme.utexas.edu
*** at Fri Jun 20 15:40:24 2014


         ---------------------------------------------------------
                                   SCF
            by Justin Turney, Rob Parrish, and Andy Simmonett
                              RHF Reference
                        4 Threads,   7000 MiB Core
         ---------------------------------------------------------

  ==> Geometry <==

    Molecular point group: c1
    Full point group: C1

    Geometry (in Angstrom), charge = 0, multiplicity = 1:

       Center              X                  Y                   Z       
    ------------   -----------------  -----------------  -----------------
           F(Gh)     -1.109956207772    -0.000005645282    -0.000000195586
           C(Gh)     -2.492978207772     0.000005354718    -0.000000195586
           H(Gh)     -2.847372207772     1.027044354718    -0.000001195586
           H(Gh)     -2.847384207772    -0.513509645282     0.889439804414
           H(Gh)     -2.847385207772    -0.513510645282    -0.889439195586
           F          2.394840704228     0.000001051718     0.000000696414
           C          1.011474704228     0.000000051718    -0.000000303586
           H          0.653641704228     1.025401051718    -0.000000303586
           H          0.653642704228    -0.512701948282     0.888022696414
           H          0.653643704228    -0.512700948282    -0.888025303586

  Running in c1 symmetry.

  Nuclear repulsion =   37.391659427889131

  Charge       = 0
  Multiplicity = 1
  Electrons    = 18
  Nalpha       = 9
  Nbeta        = 9

  ==> Algorithm <==

  SCF Algorithm Type is DF.
  DIIS enabled.
  MOM disabled.
  Fractional occupation disabled.
  Guess Type is CORE.
  Energy threshold   = 1.00e-08
  Density threshold  = 1.00e-08
  Integral threshold = 0.00e+00

  ==> Primary Basis <==

  Basis Set: AUG-CC-PVTZ
    Number of shells: 110
    Number of basis function: 322
    Number of Cartesian functions: 370
    Spherical Harmonics?: true
    Max angular momentum: 3

  ==> Pre-Iterations <==

   -------------------------------------------------------
    Irrep   Nso     Nmo     Nalpha   Nbeta   Ndocc  Nsocc
   -------------------------------------------------------
     A        322     322       0       0       0       0
   -------------------------------------------------------
    Total     322     322       9       9       9       0
   -------------------------------------------------------

 OEINTS: Wrapper to libmints.
   by Justin Turney

   Calculation information:
      Number of atoms:                  10
      Number of AO shells:             110
      Number of SO shells:             110
      Number of primitives:            186
      Number of atomic orbitals:       370
      Number of basis functions:       322

      Number of irreps:                  1
      Number of functions per irrep: [ 322 ]

      Overlap, kinetic, potential, dipole, and quadrupole integrals
        stored in file 35.

  ==> Integral Setup <==

  ==> DFJK: Density-Fitted J/K Matrices <==

    J tasked:                  Yes
    K tasked:                  Yes
    wK tasked:                  No
    OpenMP threads:              4
    Integrals threads:           4
    Memory (MB):              5006
    Algorithm:                Core
    Integral Cache:           LOAD
    Schwarz Cutoff:          0E+00
    Fitting Condition:       1E-12

   => Auxiliary Basis Set <=

  Basis Set: aug-cc-pvtz-jkfit
    Number of shells: 204
    Number of basis function: 692
    Number of Cartesian functions: 854
    Spherical Harmonics?: true
    Max angular momentum: 4

  Minimum eigenvalue in the overlap matrix is 1.1606620542E-05.
  Using Symmetric Orthogonalization.
  SCF Guess: Core (One-Electron) Hamiltonian.

  Guess energy:  -110.67913718286442

  ==> Iterations <==

                        Total Energy        Delta E     RMS |[F,P]|

   @RHF iter   1:  -113.71231175211199   -1.13712e+02   3.14476e-02 
   @RHF iter   2:  -107.13010148456132    6.58221e+00   1.05404e-02 DIIS
   @RHF iter   3:  -127.23722277171979   -2.01071e+01   1.89240e-02 DIIS
   @RHF iter   4:  -131.75794595414732   -4.52072e+00   1.44762e-02 DIIS
   @RHF iter   5:  -135.69234722373446   -3.93440e+00   9.67432e-03 DIIS
   @RHF iter   6:  -138.35569401320637   -2.66335e+00   4.11368e-03 DIIS
   @RHF iter   7:  -138.97912353955957   -6.23430e-01   1.69550e-03 DIIS
   @RHF iter   8:  -139.09475625417576   -1.15633e-01   2.78605e-04 DIIS
   @RHF iter   9:  -139.09719017408997   -2.43392e-03   6.99761e-05 DIIS
   @RHF iter  10:  -139.09746889873023   -2.78725e-04   8.25891e-06 DIIS
   @RHF iter  11:  -139.09747358598833   -4.68726e-06   2.22081e-06 DIIS
   @RHF iter  12:  -139.09747399951243   -4.13524e-07   5.64546e-07 DIIS
   @RHF iter  13:  -139.09747401748675   -1.79743e-08   4.13184e-08 DIIS
   @RHF iter  14:  -139.09747401767876   -1.92017e-10   6.59563e-09 DIIS

  ==> Post-Iterations <==

	Orbital Energies (a.u.)
	-----------------------

	Doubly Occupied:                                                      

	   1A    -26.279128     2A    -11.305201     3A     -1.587298  
	   4A     -0.956553     5A     -0.695671     6A     -0.695671  
	   7A     -0.675604     8A     -0.531706     9A     -0.531706  

	Virtual:                                                              

	  10A      0.019639    11A      0.040413    12A      0.040413  
	  13A      0.042686    14A      0.063691    15A      0.063691  
	  16A      0.083494    17A      0.100611    18A      0.105828  
	  19A      0.105828    20A      0.128513    21A      0.137218  
	  22A      0.137218    23A      0.144702    24A      0.190578  
	  25A      0.190579    26A      0.206861    27A      0.217084  
	  28A      0.217084    29A      0.241112    30A      0.241112  
	  31A      0.249009    32A      0.264489    33A      0.286526  
	  34A      0.286526    35A      0.299195    36A      0.299196  
	  37A      0.309826    38A      0.326352    39A      0.328623  
	  40A      0.334591    41A      0.334591    42A      0.342188  
	  43A      0.373080    44A      0.373081    45A      0.377387  
	  46A      0.389509    47A      0.390875    48A      0.390875  
	  49A      0.409351    50A      0.414908    51A      0.445652  
	  52A      0.445652    53A      0.457755    54A      0.457755  
	  55A      0.484258    56A      0.484258    57A      0.496958  
	  58A      0.516759    59A      0.522755    60A      0.522756  
	  61A      0.537647    62A      0.537647    63A      0.560858  
	  64A      0.572414    65A      0.572415    66A      0.618431  
	  67A      0.667424    68A      0.667424    69A      0.668434  
	  70A      0.725450    71A      0.755605    72A      0.755606  
	  73A      0.776557    74A      0.799692    75A      0.836232  
	  76A      0.836233    77A      0.853469    78A      0.853470  
	  79A      0.875379    80A      0.886552    81A      0.886553  
	  82A      0.940660    83A      0.943632    84A      0.943632  
	  85A      0.945543    86A      0.976662    87A      0.981560  
	  88A      0.981560    89A      1.017386    90A      1.034232  
	  91A      1.034233    92A      1.046843    93A      1.047202  
	  94A      1.058180    95A      1.058180    96A      1.072758  
	  97A      1.072758    98A      1.101316    99A      1.101317  
	 100A      1.103382   101A      1.123547   102A      1.139364  
	 103A      1.140849   104A      1.140850   105A      1.161515  
	 106A      1.181044   107A      1.181045   108A      1.218292  
	 109A      1.218292   110A      1.241866   111A      1.241867  
	 112A      1.254470   113A      1.254470   114A      1.273779  
	 115A      1.288553   116A      1.288553   117A      1.320666  
	 118A      1.352467   119A      1.352469   120A      1.386289  
	 121A      1.393841   122A      1.393842   123A      1.402691  
	 124A      1.402691   125A      1.405522   126A      1.487078  
	 127A      1.555923   128A      1.596085   129A      1.599805  
	 130A      1.599806   131A      1.610382   132A      1.610382  
	 133A      1.619919   134A      1.668978   135A      1.691437  
	 136A      1.691438   137A      1.706047   138A      1.706047  
	 139A      1.721255   140A      1.758417   141A      1.758418  
	 142A      1.795197   143A      1.812090   144A      1.812092  
	 145A      1.833199   146A      1.901122   147A      1.903524  
	 148A      1.932785   149A      1.932787   150A      1.988713  
	 151A      1.988713   152A      2.020128   153A      2.031611  
	 154A      2.031611   155A      2.065584   156A      2.077241  
	 157A      2.099730   158A      2.099731   159A      2.201936  
	 160A      2.201937   161A      2.202326   162A      2.213235  
	 163A      2.213237   164A      2.320010   165A      2.320011  
	 166A      2.405388   167A      2.454597   168A      2.502419  
	 169A      2.502420   170A      2.670159   171A      2.685118  
	 172A      2.685118   173A      2.819914   174A      2.947473  
	 175A      2.982245   176A      2.982246   177A      3.038656  
	 178A      3.110702   179A      3.110702   180A      3.162631  
	 181A      3.165506   182A      3.276747   183A      3.276749  
	 184A      3.339439   185A      3.339440   186A      3.345746  
	 187A      3.374545   188A      3.428783   189A      3.442486  
	 190A      3.442486   191A      3.557383   192A      3.575078  
	 193A      3.590125   194A      3.590125   195A      3.619617  
	 196A      3.696147   197A      3.696147   198A      3.717108  
	 199A      3.717109   200A      3.766579   201A      3.766580  
	 202A      3.802360   203A      3.802361   204A      3.811647  
	 205A      3.893075   206A      3.893077   207A      3.936252  
	 208A      3.969788   209A      3.969790   210A      4.008880  
	 211A      4.008881   212A      4.012545   213A      4.036948  
	 214A      4.068381   215A      4.071493   216A      4.071493  
	 217A      4.102956   218A      4.147101   219A      4.147103  
	 220A      4.181555   221A      4.181557   222A      4.235288  
	 223A      4.296179   224A      4.304617   225A      4.304619  
	 226A      4.397079   227A      4.432963   228A      4.432963  
	 229A      4.500832   230A      4.500833   231A      4.559144  
	 232A      4.575186   233A      4.575186   234A      4.688092  
	 235A      4.783510   236A      4.801988   237A      4.801988  
	 238A      4.812266   239A      4.815771   240A      4.815772  
	 241A      4.869356   242A      4.869358   243A      4.929182  
	 244A      4.955123   245A      5.076176   246A      5.084251  
	 247A      5.084252   248A      5.141580   249A      5.141584  
	 250A      5.161653   251A      5.206088   252A      5.206088  
	 253A      5.287965   254A      5.307269   255A      5.307272  
	 256A      5.374027   257A      5.374030   258A      5.459675  
	 259A      5.477072   260A      5.477073   261A      5.489470  
	 262A      5.556687   263A      5.614077   264A      5.624948  
	 265A      5.709268   266A      5.709269   267A      5.790536  
	 268A      5.790537   269A      5.961945   270A      6.009296  
	 271A      6.009297   272A      6.109834   273A      6.217553  
	 274A      6.224866   275A      6.224868   276A      6.294995  
	 277A      6.294996   278A      6.661109   279A      6.661110  
	 280A      6.767510   281A      6.767511   282A      7.043786  
	 283A      7.173205   284A      7.359969   285A      7.742654  
	 286A      7.742655   287A      8.117657   288A      8.125550  
	 289A      8.125552   290A      8.988063   291A      8.989839  
	 292A      9.263640   293A      9.263641   294A      9.430220  
	 295A      9.460603   296A      9.460603   297A      9.479018  
	 298A      9.479018   299A      9.843915   300A      9.843915  
	 301A      9.943006   302A     10.229358   303A     10.321162  
	 304A     10.429240   305A     10.691109   306A     10.691111  
	 307A     10.976632   308A     10.976634   309A     11.233102  
	 310A     12.318152   311A     13.125836   312A     13.125837  
	 313A     13.525488   314A     13.525488   315A     14.202822  
	 316A     14.694082   317A     14.694082   318A     15.912280  
	 319A     16.399534   320A     18.474467   321A     52.439892  
	 322A     76.189790  

	Final Occupation by Irrep:
	          A 
	DOCC [     9 ]

  Energy converged.

  @RHF Final Energy:  -139.09747401767876

   => Energetics <=

    Nuclear Repulsion Energy =             37.3916594278891310
    One-Electron Energy =                -266.4611963507871906
    Two-Electron Energy =                  89.9720629052197580
    DFT Exchange-Correlation Energy =       0.0000000000000000
    Empirical Dispersion Energy =           0.0000000000000000
    Total Energy =                       -139.0974740176783087



Properties will be evaluated at   0.000000,   0.000000,   0.000000 Bohr
  ==> Properties <==


Properties computed using the SCF density density matrix
  Nuclear Dipole Moment: (a.u.)
     X:    55.9044      Y:     0.0000      Z:     0.0000

  Electronic Dipole Moment: (a.u.)
     X:   -56.7124      Y:    -0.0000      Z:    -0.0000

  Dipole Moment: (a.u.)
     X:    -0.8080      Y:    -0.0000      Z:    -0.0000     Total:     0.8080

  Dipole Moment: (Debye)
     X:    -2.0538      Y:    -0.0000      Z:    -0.0000     Total:     2.0538


  Saving occupied orbitals to File 180.

  Saving SAPT 2-MONOMER_B file.

*** tstop() called on noed146.bme.utexas.edu at Fri Jun 20 15:40:43 2014
Module time:
	user time   =      71.84 seconds =       1.20 minutes
	system time =       0.78 seconds =       0.01 minutes
	total time  =         19 seconds =       0.32 minutes
Total time:
	user time   =     251.68 seconds =       4.19 minutes
	system time =       2.93 seconds =       0.05 minutes
	total time  =         68 seconds =       1.13 minutes
  No DF_BASIS_SAPT auxiliary basis selected, defaulting to aug-cc-pvtz-ri

  //>>>>>>>>>>>>>>>>>>>>>>>>>>>>>>>>>>>//
  //               SAPT2+              //
  //<<<<<<<<<<<<<<<<<<<<<<<<<<<<<<<<<<<//


*** tstart() called on noed146.bme.utexas.edu
*** at Fri Jun 20 15:40:43 2014

        SAPT2+  
    Ed Hohenstein
     6 June 2009

      Orbital Information
  --------------------------
    NSO        =       322
    NMO        =       322
    NRI        =       700
    NOCC A     =         9
    NOCC B     =         9
    FOCC A     =         2
    FOCC B     =         2
    NVIR A     =       313
    NVIR B     =       313

    Estimated memory usage: 739.1 MB

    Elst10,r            =    -0.018328212568 H
    Exch10 (S^2)        =     0.047841388617 H
    Exch10              =     0.048423027316 H
    Ind20,r (A<-B)      =    -0.006106912254 H
    Ind20,r (B<-A)      =    -0.008973668406 H
    Ind20,r             =    -0.015080580660 H
    Exch-Ind20,r (A<-B) =     0.004779149114 H
    Exch-Ind20,r (B<-A) =     0.008291690663 H
    Exch-Ind20,r        =     0.013070839777 H
    Disp20              =    -0.013178217647 H
    Exch-Disp20         =     0.002664851676 H
    Elst12,r            =    -0.000651170409 H
    Exch11              =     0.000104234190 H
    Exch12              =     0.004296154934 H
    Ind22               =    -0.001883562114 H
    Disp21              =     0.000677394698 H
    Disp22 (SDQ)        =    -0.000011564600 H

    (i =   1 of   7)        209 seconds
    (i =   2 of   7)        419 seconds
    (i =   3 of   7)        629 seconds
    (i =   4 of   7)        839 seconds
    (i =   5 of   7)       1049 seconds
    (i =   6 of   7)       1259 seconds
    (i =   7 of   7)       1469 seconds

    Disp220 (T)         =    -0.001057690875 H

    (i =   1 of   7)        210 seconds
    (i =   2 of   7)        420 seconds
    (i =   3 of   7)        630 seconds
    (i =   4 of   7)        839 seconds
    (i =   5 of   7)       1049 seconds
    (i =   6 of   7)       1259 seconds
    (i =   7 of   7)       1469 seconds

    Disp202 (T)         =    -0.000704133733 H

    Disp22 (T)          =    -0.001761824609 H

    SAPT Results  
  -----------------------------------------------------------------------
    Electrostatics         -18.97938298 mH     -11.90974312 kcal mol^-1
      Elst10,r             -18.32821257 mH     -11.50112750 kcal mol^-1
      Elst12,r              -0.65117041 mH      -0.40861562 kcal mol^-1

    Exchange                52.82341644 mH      33.14719564 kcal mol^-1
      Exch10                48.42302732 mH      30.38590966 kcal mol^-1
      Exch10(S^2)           47.84138862 mH      30.02092585 kcal mol^-1
      Exch11(S^2)            0.10423419 mH       0.06540794 kcal mol^-1
      Exch12(S^2)            4.29615493 mH       2.69587803 kcal mol^-1

    Induction               -5.01664901 mH      -3.14799491 kcal mol^-1
      Ind20,r              -15.08058066 mH      -9.46320763 kcal mol^-1
      Ind22                 -1.88356211 mH      -1.18195312 kcal mol^-1
      Exch-Ind20,r          13.07083978 mH       8.20207613 kcal mol^-1
      Exch-Ind22             1.63254580 mH       1.02443800 kcal mol^-1
      delta HF,r (2)        -2.75589182 mH      -1.72934829 kcal mol^-1

    Dispersion             -11.60936048 mH      -7.28498399 kcal mol^-1
      Disp20               -13.17821765 mH      -8.26945677 kcal mol^-1
      Disp21                 0.67739470 mH       0.42507161 kcal mol^-1
      Disp22 (SDQ)          -0.01156460 mH      -0.00725690 kcal mol^-1
      Disp22 (T)            -1.76182461 mH      -1.10556168 kcal mol^-1
      Exch-Disp20            2.66485168 mH       1.67221974 kcal mol^-1

    Total HF                25.32918205 mH      15.89430236 kcal mol^-1
    Total SAPT0             14.81581608 mH       9.29706534 kcal mol^-1
    Total SAPT2             18.31401848 mH      11.49222058 kcal mol^-1
    Total SAPT2+            17.21802397 mH      10.80447361 kcal mol^-1

*** tstop() called on noed146.bme.utexas.edu at Fri Jun 20 16:48:29 2014
Module time:
	user time   =   15701.49 seconds =     261.69 minutes
	system time =      84.37 seconds =       1.41 minutes
	total time  =       4066 seconds =      67.77 minutes
Total time:
	user time   =   15953.18 seconds =     265.89 minutes
	system time =      87.30 seconds =       1.45 minutes
	total time  =       4134 seconds =      68.90 minutes

*** PSI4 exiting successfully. Buy a developer a beer!
