
    -----------------------------------------------------------------------
          Psi4: An Open-Source Ab Initio Electronic Structure Package
                               Psi4 1.4a2.dev224 

                         Git: Rev {master} e453b16 


    R. M. Parrish, L. A. Burns, D. G. A. Smith, A. C. Simmonett,
    A. E. DePrince III, E. G. Hohenstein, U. Bozkaya, A. Yu. Sokolov,
    R. Di Remigio, R. M. Richard, J. F. Gonthier, A. M. James,
    H. R. McAlexander, A. Kumar, M. Saitow, X. Wang, B. P. Pritchard,
    P. Verma, H. F. Schaefer III, K. Patkowski, R. A. King, E. F. Valeev,
    F. A. Evangelista, J. M. Turney, T. D. Crawford, and C. D. Sherrill,
    J. Chem. Theory Comput. 13(7) pp 3185--3197 (2017).
    (doi: 10.1021/acs.jctc.7b00174)


                         Additional Contributions by
    P. Kraus, H. Kruse, M. H. Lechner, M. C. Schieber, R. A. Shaw,
    A. Alenaizan, R. Galvelis, Z. L. Glick, S. Lehtola, and J. P. Misiewicz

    -----------------------------------------------------------------------


    Psi4 started on: Thursday, 23 April 2020 09:55PM

    Process ID: 37973
    Host:       genome.bme.utexas.edu
    PSIDATADIR: /home/liuchw/anaconda3/envs/psi4env/share/psi4
    Memory:     500.0 MiB
    Threads:    8
    
  ==> Input File <==

--------------------------------------------------------------------------
#Generated by lconvert.py for sapt job

memory 50 GB

molecule  {
0 1
 Cl      -0.951590   -0.634070    0.000550
  C      -0.802050    1.145010   -0.005550
  H       0.246630    1.395490   -0.109290
  H      -1.376730    1.527610   -0.840160
  H      -1.196870    1.519070    0.931130
--
0 1
  O       3.935190    0.104600    0.027810
  H       4.727070   -0.407720   -0.144400
  H       3.231110   -0.550680    0.030070
units angstrom
no_reorient
symmetry c1
}

set {
scf_type DF
basis aug-cc-pvtz
freeze_core True
guess SAD
}
energy('sapt2+')
--------------------------------------------------------------------------

  Memory set to  46.566 GiB by Python driver.

Scratch directory: /scratch/liuchw/

  //>>>>>>>>>>>>>>>>>>>>>>>>>>>>>>>>>>>//
  //              Dimer HF             //
  //<<<<<<<<<<<<<<<<<<<<<<<<<<<<<<<<<<<//


*** tstart() called on genome.bme.utexas.edu
*** at Thu Apr 23 21:55:50 2020

   => Loading Basis Set <=

    Name: AUG-CC-PVTZ
    Role: ORBITAL
    Keyword: BASIS
    atoms 1        entry CL         line   988 file /home/liuchw/anaconda3/envs/psi4env/share/psi4/basis/aug-cc-pvtz.gbs 
    atoms 2        entry C          line   239 file /home/liuchw/anaconda3/envs/psi4env/share/psi4/basis/aug-cc-pvtz.gbs 
    atoms 3-5, 7-8 entry H          line    40 file /home/liuchw/anaconda3/envs/psi4env/share/psi4/basis/aug-cc-pvtz.gbs 
    atoms 6        entry O          line   331 file /home/liuchw/anaconda3/envs/psi4env/share/psi4/basis/aug-cc-pvtz.gbs 


         ---------------------------------------------------------
                                   SCF
               by Justin Turney, Rob Parrish, Andy Simmonett
                          and Daniel G. A. Smith
                              RHF Reference
                        8 Threads,  47683 MiB Core
         ---------------------------------------------------------

  ==> Geometry <==

    Molecular point group: c1
    Full point group: C1

    Geometry (in Angstrom), charge = 0, multiplicity = 1:

       Center              X                  Y                   Z               Mass       
    ------------   -----------------  -----------------  -----------------  -----------------
         CL          -1.329775265457    -0.586300241675    -0.003328709338    34.968852682000
         C           -1.180235265457     1.192779758325    -0.009428709338    12.000000000000
         H           -0.131555265457     1.443259758325    -0.113168709338     1.007825032230
         H           -1.754915265457     1.575379758325    -0.844038709338     1.007825032230
         H           -1.575055265457     1.566839758325     0.927251290662     1.007825032230
         O            3.557004734543     0.152369758325     0.023931290662    15.994914619570
         H            4.348884734543    -0.359950241675    -0.148278709338     1.007825032230
         H            2.852924734543    -0.502910241675     0.026191290662     1.007825032230

  Running in c1 symmetry.

  Rotational constants: A =      0.44188  B =      0.05337  C =      0.04806 [cm^-1]
  Rotational constants: A =  13247.09159  B =   1600.10810  C =   1440.90582 [MHz]
  Nuclear repulsion =   88.595855956491604

  Charge       = 0
  Multiplicity = 1
  Electrons    = 36
  Nalpha       = 18
  Nbeta        = 18

  ==> Algorithm <==

  SCF Algorithm Type is DF.
  DIIS enabled.
  MOM disabled.
  Fractional occupation disabled.
  Guess Type is SAD.
  Energy threshold   = 1.00e-08
  Density threshold  = 1.00e-08
  Integral threshold = 0.00e+00

  ==> Primary Basis <==

  Basis Set: AUG-CC-PVTZ
    Blend: AUG-CC-PVTZ
    Number of shells: 89
    Number of basis function: 257
    Number of Cartesian functions: 294
    Spherical Harmonics?: true
    Max angular momentum: 3

   => Loading Basis Set <=

    Name: (AUG-CC-PVTZ AUX)
    Role: JKFIT
    Keyword: DF_BASIS_SCF
    atoms 1        entry CL         line   816 file /home/liuchw/anaconda3/envs/psi4env/share/psi4/basis/aug-cc-pvtz-jkfit.gbs 
    atoms 2        entry C          line   162 file /home/liuchw/anaconda3/envs/psi4env/share/psi4/basis/aug-cc-pvtz-jkfit.gbs 
    atoms 3-5, 7-8 entry H          line    70 file /home/liuchw/anaconda3/envs/psi4env/share/psi4/basis/aug-cc-pvtz-jkfit.gbs 
    atoms 6        entry O          line   286 file /home/liuchw/anaconda3/envs/psi4env/share/psi4/basis/aug-cc-pvtz-jkfit.gbs 

  ==> Pre-Iterations <==

   -------------------------------------------------------
    Irrep   Nso     Nmo     Nalpha   Nbeta   Ndocc  Nsocc
   -------------------------------------------------------
     A        257     257       0       0       0       0
   -------------------------------------------------------
    Total     257     257      18      18      18       0
   -------------------------------------------------------

  ==> Integral Setup <==

  ==> DiskDFJK: Density-Fitted J/K Matrices <==

    J tasked:                  Yes
    K tasked:                  Yes
    wK tasked:                  No
    OpenMP threads:              8
    Integrals threads:           8
    Memory [MiB]:            35762
    Algorithm:                Core
    Integral Cache:           SAVE
    Schwarz Cutoff:          1E-12
    Fitting Condition:       1E-10

   => Auxiliary Basis Set <=

  Basis Set: (AUG-CC-PVTZ AUX)
    Blend: AUG-CC-PVTZ-JKFIT
    Number of shells: 172
    Number of basis function: 584
    Number of Cartesian functions: 717
    Spherical Harmonics?: true
    Max angular momentum: 4

  Minimum eigenvalue in the overlap matrix is 6.7306045688E-05.
  Using Symmetric Orthogonalization.

  SCF Guess: Superposition of Atomic Densities via on-the-fly atomic UHF.

  ==> Iterations <==

                           Total Energy        Delta E     RMS |[F,P]|

   @DF-RHF iter SAD:  -574.18215114154748   -5.74182e+02   0.00000e+00 
   @DF-RHF iter   1:  -575.08920839963582   -9.07057e-01   2.05004e-03 DIIS
   @DF-RHF iter   2:  -575.17412711616714   -8.49187e-02   1.28365e-03 DIIS
   @DF-RHF iter   3:  -575.20923449814188   -3.51074e-02   1.44087e-04 DIIS
   @DF-RHF iter   4:  -575.21041589431968   -1.18140e-03   3.96799e-05 DIIS
   @DF-RHF iter   5:  -575.21050914328021   -9.32490e-05   1.00328e-05 DIIS
   @DF-RHF iter   6:  -575.21051459302237   -5.44974e-06   3.31298e-06 DIIS
   @DF-RHF iter   7:  -575.21051519970524   -6.06683e-07   6.93250e-07 DIIS
   @DF-RHF iter   8:  -575.21051524550990   -4.58047e-08   2.06956e-07 DIIS
   @DF-RHF iter   9:  -575.21051524899372   -3.48382e-09   5.35235e-08 DIIS
   @DF-RHF iter  10:  -575.21051524922188   -2.28169e-10   1.05826e-08 DIIS
   @DF-RHF iter  11:  -575.21051524923018   -8.29914e-12   2.89757e-09 DIIS
  Energy and wave function converged.


  ==> Post-Iterations <==

    Orbital Energies [Eh]
    ---------------------

    Doubly Occupied:                                                      

       1A   -104.827573     2A    -20.567750     3A    -11.289947  
       4A    -10.551898     5A     -8.018795     6A     -8.016963  
       7A     -8.016956     8A     -1.352325     9A     -1.128805  
      10A     -0.915976    11A     -0.714971    12A     -0.619647  
      13A     -0.618990    14A     -0.585770    15A     -0.545342  
      16A     -0.510291    17A     -0.437520    18A     -0.437093  

    Virtual:                                                              

      19A      0.028333    20A      0.036058    21A      0.046945  
      22A      0.054970    23A      0.062011    24A      0.083735  
      25A      0.115288    26A      0.125084    27A      0.129056  
      28A      0.136931    29A      0.137633    30A      0.153929  
      31A      0.157978    32A      0.170498    33A      0.181360  
      34A      0.185526    35A      0.209660    36A      0.212870  
      37A      0.229180    38A      0.252581    39A      0.272472  
      40A      0.275466    41A      0.278499    42A      0.286196  
      43A      0.299723    44A      0.306836    45A      0.322150  
      46A      0.333285    47A      0.337327    48A      0.345472  
      49A      0.357107    50A      0.363779    51A      0.369968  
      52A      0.375755    53A      0.396645    54A      0.419353  
      55A      0.435569    56A      0.439283    57A      0.451629  
      58A      0.456834    59A      0.464029    60A      0.472628  
      61A      0.487959    62A      0.494319    63A      0.517941  
      64A      0.518455    65A      0.534378    66A      0.563154  
      67A      0.629158    68A      0.666724    69A      0.671452  
      70A      0.714989    71A      0.721520    72A      0.726239  
      73A      0.734020    74A      0.745134    75A      0.760136  
      76A      0.789807    77A      0.791765    78A      0.803168  
      79A      0.843128    80A      0.865733    81A      0.869025  
      82A      0.875755    83A      0.882225    84A      0.888552  
      85A      0.901470    86A      0.913690    87A      0.926352  
      88A      0.934200    89A      0.938082    90A      0.947691  
      91A      0.955257    92A      0.964907    93A      0.970693  
      94A      0.980610    95A      0.985986    96A      0.994672  
      97A      1.001645    98A      1.029476    99A      1.031262  
     100A      1.041020   101A      1.055882   102A      1.058544  
     103A      1.090212   104A      1.095344   105A      1.099744  
     106A      1.107291   107A      1.109577   108A      1.132037  
     109A      1.150729   110A      1.168779   111A      1.172986  
     112A      1.183930   113A      1.199426   114A      1.210881  
     115A      1.249221   116A      1.275528   117A      1.284386  
     118A      1.297497   119A      1.336946   120A      1.407125  
     121A      1.412895   122A      1.429563   123A      1.502511  
     124A      1.523553   125A      1.576938   126A      1.584517  
     127A      1.591860   128A      1.596496   129A      1.598932  
     130A      1.634287   131A      1.665689   132A      1.681199  
     133A      1.694121   134A      1.707846   135A      1.716991  
     136A      1.767437   137A      1.821777   138A      1.825587  
     139A      1.836334   140A      1.849142   141A      1.937808  
     142A      1.938981   143A      1.951968   144A      1.981471  
     145A      1.999780   146A      2.049254   147A      2.074113  
     148A      2.135926   149A      2.196831   150A      2.198357  
     151A      2.204930   152A      2.267747   153A      2.320877  
     154A      2.381222   155A      2.427462   156A      2.441246  
     157A      2.463005   158A      2.491866   159A      2.517545  
     160A      2.628688   161A      2.656068   162A      2.685326  
     163A      2.688224   164A      2.702086   165A      2.710697  
     166A      2.731665   167A      2.789556   168A      2.842621  
     169A      2.892405   170A      2.925219   171A      2.943351  
     172A      3.000001   173A      3.057608   174A      3.109826  
     175A      3.139323   176A      3.140956   177A      3.154234  
     178A      3.191797   179A      3.249010   180A      3.256288  
     181A      3.345421   182A      3.349189   183A      3.557398  
     184A      3.564266   185A      3.567080   186A      3.578083  
     187A      3.597154   188A      3.609405   189A      3.673768  
     190A      3.774135   191A      3.794602   192A      3.811626  
     193A      3.922334   194A      3.935098   195A      4.029701  
     196A      4.033295   197A      4.080063   198A      4.083883  
     199A      4.092066   200A      4.104854   201A      4.163457  
     202A      4.186599   203A      4.197974   204A      4.204886  
     205A      4.265443   206A      4.294570   207A      4.382087  
     208A      4.395723   209A      4.409086   210A      4.467163  
     211A      4.473380   212A      4.507711   213A      4.527749  
     214A      4.738924   215A      4.751024   216A      4.761881  
     217A      4.779850   218A      4.854119   219A      4.866945  
     220A      4.879897   221A      4.985155   222A      4.986976  
     223A      5.152555   224A      5.159936   225A      5.188019  
     226A      5.194364   227A      5.213044   228A      5.261784  
     229A      5.338829   230A      5.511171   231A      5.514298  
     232A      5.526589   233A      5.570297   234A      5.674994  
     235A      5.699766   236A      5.969048   237A      6.043116  
     238A      6.056635   239A      6.195758   240A      6.535134  
     241A      6.597134   242A      6.600681   243A      6.719361  
     244A      6.909872   245A      7.138627   246A      7.261991  
     247A      7.312671   248A      7.321238   249A      7.348585  
     250A      7.365263   251A      7.526975   252A      7.544041  
     253A      7.905123   254A      7.933846   255A      8.816643  
     256A     15.809422   257A     16.968945  

    Final Occupation by Irrep:
              A 
    DOCC [    18 ]

  @DF-RHF Final Energy:  -575.21051524923018

   => Energetics <=

    Nuclear Repulsion Energy =             88.5958559564916044
    One-Electron Energy =                -969.2995255192947752
    Two-Electron Energy =                 305.4931543135729726
    Total Energy =                       -575.2105152492301841

Computation Completed


Properties will be evaluated at   0.000000,   0.000000,   0.000000 [a0]

Properties computed using the SCF density matrix

  Nuclear Dipole Moment: [e a0]
     X:     4.7408      Y:     4.0273      Z:    -0.1394

  Electronic Dipole Moment: [e a0]
     X:    -4.6198      Y:    -3.9336      Z:     0.0248

  Dipole Moment: [e a0]
     X:     0.1210      Y:     0.0937      Z:    -0.1146     Total:     0.1911

  Dipole Moment: [D]
     X:     0.3075      Y:     0.2382      Z:    -0.2912     Total:     0.4858


*** tstop() called on genome.bme.utexas.edu at Thu Apr 23 21:55:59 2020
Module time:
	user time   =      62.44 seconds =       1.04 minutes
	system time =       1.69 seconds =       0.03 minutes
	total time  =          9 seconds =       0.15 minutes
Total time:
	user time   =      62.44 seconds =       1.04 minutes
	system time =       1.69 seconds =       0.03 minutes
	total time  =          9 seconds =       0.15 minutes

  //>>>>>>>>>>>>>>>>>>>>>>>>>>>>>>>>>>>//
  //            Monomer A HF           //
  //<<<<<<<<<<<<<<<<<<<<<<<<<<<<<<<<<<<//


*** tstart() called on genome.bme.utexas.edu
*** at Thu Apr 23 21:55:59 2020

   => Loading Basis Set <=

    Name: AUG-CC-PVTZ
    Role: ORBITAL
    Keyword: BASIS
    atoms 1        entry CL         line   988 file /home/liuchw/anaconda3/envs/psi4env/share/psi4/basis/aug-cc-pvtz.gbs 
    atoms 2        entry C          line   239 file /home/liuchw/anaconda3/envs/psi4env/share/psi4/basis/aug-cc-pvtz.gbs 
    atoms 3-5, 7-8 entry H          line    40 file /home/liuchw/anaconda3/envs/psi4env/share/psi4/basis/aug-cc-pvtz.gbs 
    atoms 6        entry O          line   331 file /home/liuchw/anaconda3/envs/psi4env/share/psi4/basis/aug-cc-pvtz.gbs 


         ---------------------------------------------------------
                                   SCF
               by Justin Turney, Rob Parrish, Andy Simmonett
                          and Daniel G. A. Smith
                              RHF Reference
                        8 Threads,  47683 MiB Core
         ---------------------------------------------------------

  ==> Geometry <==

    Molecular point group: c1
    Full point group: C1

    Geometry (in Angstrom), charge = 0, multiplicity = 1:

       Center              X                  Y                   Z               Mass       
    ------------   -----------------  -----------------  -----------------  -----------------
         CL          -1.329775265457    -0.586300241675    -0.003328709338    34.968852682000
         C           -1.180235265457     1.192779758325    -0.009428709338    12.000000000000
         H           -0.131555265457     1.443259758325    -0.113168709338     1.007825032230
         H           -1.754915265457     1.575379758325    -0.844038709338     1.007825032230
         H           -1.575055265457     1.566839758325     0.927251290662     1.007825032230
      Gh(O)           3.557004734543     0.152369758325     0.023931290662    15.994914619570
      Gh(H)           4.348884734543    -0.359950241675    -0.148278709338     1.007825032230
      Gh(H)           2.852924734543    -0.502910241675     0.026191290662     1.007825032230

  Running in c1 symmetry.

  Rotational constants: A =      0.44188  B =      0.05337  C =      0.04806 [cm^-1]
  Rotational constants: A =  13247.09159  B =   1600.10810  C =   1440.90582 [MHz]
  Nuclear repulsion =   51.359090959185167

  Charge       = 0
  Multiplicity = 1
  Electrons    = 26
  Nalpha       = 13
  Nbeta        = 13

  ==> Algorithm <==

  SCF Algorithm Type is DF.
  DIIS enabled.
  MOM disabled.
  Fractional occupation disabled.
  Guess Type is SAD.
  Energy threshold   = 1.00e-08
  Density threshold  = 1.00e-08
  Integral threshold = 0.00e+00

  ==> Primary Basis <==

  Basis Set: AUG-CC-PVTZ
    Blend: AUG-CC-PVTZ
    Number of shells: 89
    Number of basis function: 257
    Number of Cartesian functions: 294
    Spherical Harmonics?: true
    Max angular momentum: 3

   => Loading Basis Set <=

    Name: (AUG-CC-PVTZ AUX)
    Role: JKFIT
    Keyword: DF_BASIS_SCF
    atoms 1        entry CL         line   816 file /home/liuchw/anaconda3/envs/psi4env/share/psi4/basis/aug-cc-pvtz-jkfit.gbs 
    atoms 2        entry C          line   162 file /home/liuchw/anaconda3/envs/psi4env/share/psi4/basis/aug-cc-pvtz-jkfit.gbs 
    atoms 3-5, 7-8 entry H          line    70 file /home/liuchw/anaconda3/envs/psi4env/share/psi4/basis/aug-cc-pvtz-jkfit.gbs 
    atoms 6        entry O          line   286 file /home/liuchw/anaconda3/envs/psi4env/share/psi4/basis/aug-cc-pvtz-jkfit.gbs 

  ==> Pre-Iterations <==

   -------------------------------------------------------
    Irrep   Nso     Nmo     Nalpha   Nbeta   Ndocc  Nsocc
   -------------------------------------------------------
     A        257     257       0       0       0       0
   -------------------------------------------------------
    Total     257     257      13      13      13       0
   -------------------------------------------------------

  ==> Integral Setup <==

  ==> DiskDFJK: Density-Fitted J/K Matrices <==

    J tasked:                  Yes
    K tasked:                  Yes
    wK tasked:                  No
    OpenMP threads:              8
    Integrals threads:           8
    Memory [MiB]:            35762
    Algorithm:                Core
    Integral Cache:           LOAD
    Schwarz Cutoff:          1E-12
    Fitting Condition:       1E-10

   => Auxiliary Basis Set <=

  Basis Set: (AUG-CC-PVTZ AUX)
    Blend: AUG-CC-PVTZ-JKFIT
    Number of shells: 172
    Number of basis function: 584
    Number of Cartesian functions: 717
    Spherical Harmonics?: true
    Max angular momentum: 4

  Minimum eigenvalue in the overlap matrix is 6.7306045688E-05.
  Using Symmetric Orthogonalization.

  SCF Guess: Superposition of Atomic Densities via on-the-fly atomic UHF.

  ==> Iterations <==

                           Total Energy        Delta E     RMS |[F,P]|

   @DF-RHF iter SAD:  -498.70368313880272   -4.98704e+02   0.00000e+00 
   @DF-RHF iter   1:  -499.11152262822662   -4.07839e-01   9.46001e-04 DIIS
   @DF-RHF iter   2:  -499.14428171625377   -3.27591e-02   3.31188e-04 DIIS
   @DF-RHF iter   3:  -499.14825974380835   -3.97803e-03   9.96097e-05 DIIS
   @DF-RHF iter   4:  -499.14884036631838   -5.80623e-04   2.84478e-05 DIIS
   @DF-RHF iter   5:  -499.14888350484716   -4.31385e-05   4.13572e-06 DIIS
   @DF-RHF iter   6:  -499.14888484269267   -1.33785e-06   8.00972e-07 DIIS
   @DF-RHF iter   7:  -499.14888488824840   -4.55557e-08   2.51822e-07 DIIS
   @DF-RHF iter   8:  -499.14888489321766   -4.96925e-09   6.66282e-08 DIIS
   @DF-RHF iter   9:  -499.14888489373794   -5.20288e-10   1.27693e-08 DIIS
   @DF-RHF iter  10:  -499.14888489375755   -1.96110e-11   1.98201e-09 DIIS
  Energy and wave function converged.


  ==> Post-Iterations <==

    Orbital Energies [Eh]
    ---------------------

    Doubly Occupied:                                                      

       1A   -104.825861     2A    -11.290434     3A    -10.550145  
       4A     -8.017043     5A     -8.015186     6A     -8.015186  
       7A     -1.127538     8A     -0.915890     9A     -0.620051  
      10A     -0.619199    11A     -0.544311    12A     -0.435689  
      13A     -0.435524  

    Virtual:                                                              

      14A      0.024943    15A      0.035628    16A      0.045675  
      17A      0.052955    18A      0.062042    19A      0.085004  
      20A      0.112088    21A      0.113807    22A      0.126956  
      23A      0.134026    24A      0.137339    25A      0.138533  
      26A      0.148870    27A      0.159410    28A      0.163906  
      29A      0.170387    30A      0.208166    31A      0.212789  
      32A      0.238685    33A      0.256322    34A      0.275541  
      35A      0.277987    36A      0.287553    37A      0.297470  
      38A      0.303932    39A      0.307414    40A      0.317200  
      41A      0.334399    42A      0.336853    43A      0.349429  
      44A      0.356540    45A      0.365994    46A      0.371809  
      47A      0.375645    48A      0.378970    49A      0.393616  
      50A      0.422381    51A      0.429789    52A      0.438880  
      53A      0.454962    54A      0.460385    55A      0.474348  
      56A      0.486702    57A      0.494448    58A      0.515620  
      59A      0.519743    60A      0.533328    61A      0.561657  
      62A      0.619273    63A      0.651180    64A      0.669496  
      65A      0.679883    66A      0.724101    67A      0.742298  
      68A      0.771760    69A      0.780647    70A      0.784619  
      71A      0.798938    72A      0.804081    73A      0.807301  
      74A      0.818888    75A      0.835385    76A      0.862125  
      77A      0.866113    78A      0.877147    79A      0.881883  
      80A      0.891498    81A      0.897235    82A      0.920607  
      83A      0.926385    84A      0.934989    85A      0.951996  
      86A      0.955494    87A      0.968058    88A      0.976972  
      89A      0.992052    90A      0.999835    91A      1.010166  
      92A      1.014078    93A      1.025098    94A      1.032432  
      95A      1.036307    96A      1.049875    97A      1.058654  
      98A      1.080258    99A      1.092946   100A      1.100678  
     101A      1.108348   102A      1.117191   103A      1.133693  
     104A      1.147743   105A      1.171784   106A      1.180281  
     107A      1.205168   108A      1.214230   109A      1.231688  
     110A      1.271834   111A      1.279486   112A      1.298182  
     113A      1.324435   114A      1.401490   115A      1.412446  
     116A      1.420466   117A      1.456257   118A      1.486351  
     119A      1.504182   120A      1.578775   121A      1.588180  
     122A      1.596497   123A      1.632881   124A      1.661810  
     125A      1.677631   126A      1.697197   127A      1.704853  
     128A      1.708493   129A      1.716682   130A      1.718384  
     131A      1.735587   132A      1.773283   133A      1.825001  
     134A      1.829725   135A      1.835193   136A      1.863917  
     137A      1.936852   138A      1.942088   139A      1.951496  
     140A      1.981457   141A      2.049000   142A      2.079747  
     143A      2.087177   144A      2.195634   145A      2.198472  
     146A      2.205249   147A      2.370169   148A      2.385776  
     149A      2.492182   150A      2.512711   151A      2.532972  
     152A      2.537193   153A      2.552633   154A      2.582465  
     155A      2.632181   156A      2.639826   157A      2.664477  
     158A      2.689672   159A      2.698314   160A      2.722631  
     161A      2.892795   162A      2.926410   163A      2.939910  
     164A      2.999751   165A      3.054293   166A      3.111260  
     167A      3.140525   168A      3.141662   169A      3.153344  
     170A      3.155900   171A      3.174782   172A      3.189711  
     173A      3.196998   174A      3.250472   175A      3.255471  
     176A      3.310489   177A      3.331496   178A      3.347733  
     179A      3.351419   180A      3.525602   181A      3.557272  
     182A      3.563839   183A      3.567268   184A      3.579953  
     185A      3.597414   186A      3.613390   187A      3.670462  
     188A      3.793849   189A      3.807940   190A      3.922312  
     191A      3.933473   192A      4.031187   193A      4.079744  
     194A      4.086002   195A      4.104356   196A      4.163265  
     197A      4.196991   198A      4.205247   199A      4.362269  
     200A      4.436797   201A      4.466416   202A      4.471957  
     203A      4.476200   204A      4.506934   205A      4.603581  
     206A      4.659963   207A      4.679570   208A      4.748553  
     209A      4.759486   210A      4.782496   211A      4.862355  
     212A      4.871366   213A      4.876515   214A      4.882929  
     215A      4.889254   216A      4.984461   217A      4.987470  
     218A      5.187254   219A      5.189078   220A      5.205376  
     221A      5.213239   222A      5.510451   223A      5.513147  
     224A      5.550684   225A      5.569555   226A      5.607562  
     227A      5.649560   228A      5.675597   229A      5.840724  
     230A      5.968302   231A      6.042281   232A      6.054257  
     233A      6.102302   234A      6.386517   235A      6.595682  
     236A      6.598044   237A      6.628598   238A      7.066779  
     239A      7.528797   240A      7.666104   241A      7.815847  
     242A      8.043598   243A      8.160623   244A      8.281997  
     245A      8.731617   246A      8.830804   247A      9.632571  
     248A      9.827429   249A      9.989652   250A     10.221268  
     251A     11.236267   252A     11.604177   253A     12.099562  
     254A     13.511666   255A     13.785243   256A     16.968277  
     257A     64.592453  

    Final Occupation by Irrep:
              A 
    DOCC [    13 ]

  @DF-RHF Final Energy:  -499.14888489375755

   => Energetics <=

    Nuclear Repulsion Energy =             51.3590909591851670
    One-Electron Energy =                -790.1918373075029649
    Two-Electron Energy =                 239.6838614545602297
    Total Energy =                       -499.1488848937575540

Computation Completed


Properties will be evaluated at   0.000000,   0.000000,   0.000000 [a0]

Properties computed using the SCF density matrix

  Nuclear Dipole Moment: [e a0]
     X:   -62.6428      Y:     3.3544      Z:    -0.2705

  Electronic Dipole Moment: [e a0]
     X:    62.7126      Y:    -2.5118      Z:     0.2679

  Dipole Moment: [e a0]
     X:     0.0699      Y:     0.8425      Z:    -0.0026     Total:     0.8454

  Dipole Moment: [D]
     X:     0.1776      Y:     2.1415      Z:    -0.0065     Total:     2.1489


*** tstop() called on genome.bme.utexas.edu at Thu Apr 23 21:56:05 2020
Module time:
	user time   =      36.13 seconds =       0.60 minutes
	system time =       0.88 seconds =       0.01 minutes
	total time  =          6 seconds =       0.10 minutes
Total time:
	user time   =      98.64 seconds =       1.64 minutes
	system time =       2.58 seconds =       0.04 minutes
	total time  =         15 seconds =       0.25 minutes

  //>>>>>>>>>>>>>>>>>>>>>>>>>>>>>>>>>>>//
  //            Monomer B HF           //
  //<<<<<<<<<<<<<<<<<<<<<<<<<<<<<<<<<<<//


*** tstart() called on genome.bme.utexas.edu
*** at Thu Apr 23 21:56:05 2020

   => Loading Basis Set <=

    Name: AUG-CC-PVTZ
    Role: ORBITAL
    Keyword: BASIS
    atoms 1        entry CL         line   988 file /home/liuchw/anaconda3/envs/psi4env/share/psi4/basis/aug-cc-pvtz.gbs 
    atoms 2        entry C          line   239 file /home/liuchw/anaconda3/envs/psi4env/share/psi4/basis/aug-cc-pvtz.gbs 
    atoms 3-5, 7-8 entry H          line    40 file /home/liuchw/anaconda3/envs/psi4env/share/psi4/basis/aug-cc-pvtz.gbs 
    atoms 6        entry O          line   331 file /home/liuchw/anaconda3/envs/psi4env/share/psi4/basis/aug-cc-pvtz.gbs 


         ---------------------------------------------------------
                                   SCF
               by Justin Turney, Rob Parrish, Andy Simmonett
                          and Daniel G. A. Smith
                              RHF Reference
                        8 Threads,  47683 MiB Core
         ---------------------------------------------------------

  ==> Geometry <==

    Molecular point group: c1
    Full point group: C1

    Geometry (in Angstrom), charge = 0, multiplicity = 1:

       Center              X                  Y                   Z               Mass       
    ------------   -----------------  -----------------  -----------------  -----------------
      Gh(CL)         -1.329775265457    -0.586300241675    -0.003328709338    34.968852682000
      Gh(C)          -1.180235265457     1.192779758325    -0.009428709338    12.000000000000
      Gh(H)          -0.131555265457     1.443259758325    -0.113168709338     1.007825032230
      Gh(H)          -1.754915265457     1.575379758325    -0.844038709338     1.007825032230
      Gh(H)          -1.575055265457     1.566839758325     0.927251290662     1.007825032230
         O            3.557004734543     0.152369758325     0.023931290662    15.994914619570
         H            4.348884734543    -0.359950241675    -0.148278709338     1.007825032230
         H            2.852924734543    -0.502910241675     0.026191290662     1.007825032230

  Running in c1 symmetry.

  Rotational constants: A =      0.44188  B =      0.05337  C =      0.04806 [cm^-1]
  Rotational constants: A =  13247.09159  B =   1600.10810  C =   1440.90582 [MHz]
  Nuclear repulsion =    9.166741502140066

  Charge       = 0
  Multiplicity = 1
  Electrons    = 10
  Nalpha       = 5
  Nbeta        = 5

  ==> Algorithm <==

  SCF Algorithm Type is DF.
  DIIS enabled.
  MOM disabled.
  Fractional occupation disabled.
  Guess Type is SAD.
  Energy threshold   = 1.00e-08
  Density threshold  = 1.00e-08
  Integral threshold = 0.00e+00

  ==> Primary Basis <==

  Basis Set: AUG-CC-PVTZ
    Blend: AUG-CC-PVTZ
    Number of shells: 89
    Number of basis function: 257
    Number of Cartesian functions: 294
    Spherical Harmonics?: true
    Max angular momentum: 3

   => Loading Basis Set <=

    Name: (AUG-CC-PVTZ AUX)
    Role: JKFIT
    Keyword: DF_BASIS_SCF
    atoms 1        entry CL         line   816 file /home/liuchw/anaconda3/envs/psi4env/share/psi4/basis/aug-cc-pvtz-jkfit.gbs 
    atoms 2        entry C          line   162 file /home/liuchw/anaconda3/envs/psi4env/share/psi4/basis/aug-cc-pvtz-jkfit.gbs 
    atoms 3-5, 7-8 entry H          line    70 file /home/liuchw/anaconda3/envs/psi4env/share/psi4/basis/aug-cc-pvtz-jkfit.gbs 
    atoms 6        entry O          line   286 file /home/liuchw/anaconda3/envs/psi4env/share/psi4/basis/aug-cc-pvtz-jkfit.gbs 

  ==> Pre-Iterations <==

   -------------------------------------------------------
    Irrep   Nso     Nmo     Nalpha   Nbeta   Ndocc  Nsocc
   -------------------------------------------------------
     A        257     257       0       0       0       0
   -------------------------------------------------------
    Total     257     257       5       5       5       0
   -------------------------------------------------------

  ==> Integral Setup <==

  ==> DiskDFJK: Density-Fitted J/K Matrices <==

    J tasked:                  Yes
    K tasked:                  Yes
    wK tasked:                  No
    OpenMP threads:              8
    Integrals threads:           8
    Memory [MiB]:            35762
    Algorithm:                Core
    Integral Cache:           LOAD
    Schwarz Cutoff:          1E-12
    Fitting Condition:       1E-10

   => Auxiliary Basis Set <=

  Basis Set: (AUG-CC-PVTZ AUX)
    Blend: AUG-CC-PVTZ-JKFIT
    Number of shells: 172
    Number of basis function: 584
    Number of Cartesian functions: 717
    Spherical Harmonics?: true
    Max angular momentum: 4

  Minimum eigenvalue in the overlap matrix is 6.7306045688E-05.
  Using Symmetric Orthogonalization.

  SCF Guess: Superposition of Atomic Densities via on-the-fly atomic UHF.

  ==> Iterations <==

                           Total Energy        Delta E     RMS |[F,P]|

   @DF-RHF iter SAD:   -75.47512662953527   -7.54751e+01   0.00000e+00 
   @DF-RHF iter   1:   -75.97592007660103   -5.00793e-01   1.82264e-03 DIIS
   @DF-RHF iter   2:   -76.02840149111852   -5.24814e-02   1.24402e-03 DIIS
   @DF-RHF iter   3:   -76.05993267121666   -3.15312e-02   8.45073e-05 DIIS
   @DF-RHF iter   4:   -76.06032227523639   -3.89604e-04   2.02627e-05 DIIS
   @DF-RHF iter   5:   -76.06034671202798   -2.44368e-05   4.60457e-06 DIIS
   @DF-RHF iter   6:   -76.06034871288759   -2.00086e-06   1.00781e-06 DIIS
   @DF-RHF iter   7:   -76.06034881827399   -1.05386e-07   1.81251e-07 DIIS
   @DF-RHF iter   8:   -76.06034882126926   -2.99526e-09   3.04008e-08 DIIS
   @DF-RHF iter   9:   -76.06034882133532   -6.60663e-11   7.45459e-09 DIIS
  Energy and wave function converged.


  ==> Post-Iterations <==

    Orbital Energies [Eh]
    ---------------------

    Doubly Occupied:                                                      

       1A    -20.567993     2A     -1.352446     3A     -0.715073  
       4A     -0.585476     5A     -0.510278  

    Virtual:                                                              

       6A      0.022013     7A      0.035017     8A      0.047070  
       9A      0.049569    10A      0.061669    11A      0.074793  
      12A      0.103832    13A      0.111673    14A      0.114245  
      15A      0.122757    16A      0.127619    17A      0.144230  
      18A      0.153208    19A      0.168368    20A      0.176476  
      21A      0.187424    22A      0.193748    23A      0.236592  
      24A      0.239874    25A      0.266000    26A      0.272488  
      27A      0.280469    28A      0.293032    29A      0.301659  
      30A      0.307965    31A      0.308852    32A      0.313260  
      33A      0.315920    34A      0.330056    35A      0.349154  
      36A      0.373533    37A      0.384720    38A      0.389033  
      39A      0.396122    40A      0.403615    41A      0.414118  
      42A      0.419587    43A      0.432980    44A      0.447472  
      45A      0.462756    46A      0.481438    47A      0.487222  
      48A      0.500985    49A      0.530287    50A      0.551058  
      51A      0.582767    52A      0.596016    53A      0.599965  
      54A      0.609002    55A      0.627861    56A      0.657599  
      57A      0.659059    58A      0.675798    59A      0.683713  
      60A      0.689676    61A      0.726456    62A      0.732179  
      63A      0.741559    64A      0.749793    65A      0.809938  
      66A      0.848108    67A      0.873613    68A      0.906216  
      69A      0.918527    70A      0.923760    71A      0.947492  
      72A      0.951390    73A      0.958983    74A      0.962739  
      75A      0.993584    76A      0.998929    77A      1.024941  
      78A      1.043269    79A      1.048600    80A      1.068818  
      81A      1.071894    82A      1.073334    83A      1.079321  
      84A      1.086510    85A      1.090789    86A      1.098916  
      87A      1.107085    88A      1.124689    89A      1.136476  
      90A      1.159778    91A      1.170715    92A      1.185226  
      93A      1.199363    94A      1.216007    95A      1.233599  
      96A      1.235896    97A      1.238494    98A      1.256616  
      99A      1.292617   100A      1.298374   101A      1.317890  
     102A      1.373513   103A      1.379086   104A      1.389729  
     105A      1.393070   106A      1.407626   107A      1.419962  
     108A      1.465712   109A      1.494078   110A      1.511827  
     111A      1.524542   112A      1.544728   113A      1.551048  
     114A      1.567294   115A      1.574253   116A      1.581193  
     117A      1.590287   118A      1.597164   119A      1.634962  
     120A      1.745186   121A      1.782942   122A      1.826322  
     123A      1.839808   124A      1.897213   125A      1.907341  
     126A      1.921803   127A      1.964663   128A      1.967892  
     129A      1.995380   130A      2.059532   131A      2.065472  
     132A      2.075595   133A      2.110638   134A      2.117499  
     135A      2.133028   136A      2.136133   137A      2.167077  
     138A      2.268083   139A      2.319413   140A      2.321654  
     141A      2.325967   142A      2.384257   143A      2.429589  
     144A      2.443068   145A      2.457879   146A      2.496018  
     147A      2.503277   148A      2.519241   149A      2.527195  
     150A      2.571716   151A      2.695631   152A      2.704572  
     153A      2.712872   154A      2.727003   155A      2.788500  
     156A      2.847381   157A      2.892450   158A      2.951922  
     159A      3.667510   160A      3.739378   161A      3.776168  
     162A      3.918785   163A      3.923261   164A      3.935996  
     165A      3.972531   166A      3.977328   167A      3.984552  
     168A      4.002118   169A      4.032190   170A      4.077101  
     171A      4.080871   172A      4.088323   173A      4.093219  
     174A      4.150982   175A      4.167185   176A      4.172380  
     177A      4.196312   178A      4.232465   179A      4.239210  
     180A      4.266320   181A      4.294159   182A      4.380327  
     183A      4.389377   184A      4.401452   185A      4.407488  
     186A      4.451478   187A      4.462698   188A      4.473390  
     189A      4.524175   190A      4.539035   191A      4.550406  
     192A      4.588141   193A      4.596849   194A      4.681533  
     195A      4.735129   196A      4.740429   197A      4.757961  
     198A      4.775784   199A      4.821627   200A      4.827613  
     201A      4.852871   202A      4.877114   203A      4.896128  
     204A      4.967168   205A      5.095745   206A      5.097456  
     207A      5.152403   208A      5.159951   209A      5.181747  
     210A      5.249057   211A      5.260322   212A      5.334688  
     213A      5.344700   214A      5.360077   215A      5.382935  
     216A      5.482178   217A      5.487273   218A      5.492548  
     219A      5.526277   220A      5.699070   221A      5.725573  
     222A      5.732585   223A      6.037432   224A      6.157393  
     225A      6.165076   226A      6.181334   227A      6.196219  
     228A      6.286213   229A      6.535397   230A      6.621077  
     231A      6.646463   232A      6.719381   233A      6.910051  
     234A      7.138704   235A      7.207997   236A      7.262052  
     237A      7.312858   238A      7.321359   239A      7.348665  
     240A      7.365305   241A      7.543377   242A      7.754241  
     243A      7.757648   244A      7.855080   245A      7.904812  
     246A      7.933964   247A      8.160414   248A      8.165109  
     249A      8.816410   250A     10.299782   251A     15.808702  
     252A     16.125865   253A     28.032552   254A     28.048909  
     255A     28.936490   256A     51.379881   257A    161.011178  

    Final Occupation by Irrep:
              A 
    DOCC [     5 ]

  @DF-RHF Final Energy:   -76.06034882133532

   => Energetics <=

    Nuclear Repulsion Energy =              9.1667415021400664
    One-Electron Energy =                -122.9916436525544725
    Two-Electron Energy =                  37.7645533290790780
    Total Energy =                        -76.0603488213353245

Computation Completed


Properties will be evaluated at   0.000000,   0.000000,   0.000000 [a0]

Properties computed using the SCF density matrix

  Nuclear Dipole Moment: [e a0]
     X:    67.3836      Y:     0.6729      Z:     0.1311

  Electronic Dipole Moment: [e a0]
     X:   -67.3248      Y:    -1.4474      Z:    -0.2440

  Dipole Moment: [e a0]
     X:     0.0587      Y:    -0.7745      Z:    -0.1129     Total:     0.7848

  Dipole Moment: [D]
     X:     0.1493      Y:    -1.9685      Z:    -0.2869     Total:     1.9949


*** tstop() called on genome.bme.utexas.edu at Thu Apr 23 21:56:09 2020
Module time:
	user time   =      25.96 seconds =       0.43 minutes
	system time =       0.72 seconds =       0.01 minutes
	total time  =          4 seconds =       0.07 minutes
Total time:
	user time   =     124.67 seconds =       2.08 minutes
	system time =       3.30 seconds =       0.06 minutes
	total time  =         19 seconds =       0.32 minutes
  Constructing Basis Sets for SAPT...

   => Loading Basis Set <=

    Name: (AUG-CC-PVTZ AUX)
    Role: RIFIT
    Keyword: DF_BASIS_SAPT
    atoms 1        entry CL         line   742 file /home/liuchw/anaconda3/envs/psi4env/share/psi4/basis/aug-cc-pvtz-ri.gbs 
    atoms 2        entry C          line   148 file /home/liuchw/anaconda3/envs/psi4env/share/psi4/basis/aug-cc-pvtz-ri.gbs 
    atoms 3-5, 7-8 entry H          line    30 file /home/liuchw/anaconda3/envs/psi4env/share/psi4/basis/aug-cc-pvtz-ri.gbs 
    atoms 6        entry O          line   264 file /home/liuchw/anaconda3/envs/psi4env/share/psi4/basis/aug-cc-pvtz-ri.gbs 


  //>>>>>>>>>>>>>>>>>>>>>>>>>>>>>>>>>>>//
  //               SAPT2+              //
  //<<<<<<<<<<<<<<<<<<<<<<<<<<<<<<<<<<<//


*** tstart() called on genome.bme.utexas.edu
*** at Thu Apr 23 21:56:09 2020

        SAPT2+  
    Ed Hohenstein
     6 June 2009

      Orbital Information
  --------------------------
    NSO        =       257
    NMO        =       257
    NRI        =       589
    NOCC A     =        13
    NOCC B     =         5
    FOCC A     =         6
    FOCC B     =         1
    NVIR A     =       244
    NVIR B     =       252

    Estimated memory usage: 556.8 MB

    Natural Orbital Cutoff:   1.000E-06
    Disp(T3) Truncation:            Yes
    CCD (vv|vv) Truncation:         Yes
    MBPT T2 Truncation:             Yes

    Monomer A: 108 virtual orbitals dropped
    Monomer B: 175 virtual orbitals dropped

    Elst10,r            =    -0.001245318025 [Eh]
    Exch10 (S^2)        =     0.000017875105 [Eh]
    Exch10              =     0.000017875240 [Eh]
    Ind20,r (A<-B)      =    -0.000042980937 [Eh]
    Ind20,r (B<-A)      =    -0.000010628648 [Eh]
    Ind20,r             =    -0.000053609585 [Eh]
    Exch-Ind20,r (A<-B) =     0.000001941163 [Eh]
    Exch-Ind20,r (B<-A) =     0.000000365914 [Eh]
    Exch-Ind20,r        =     0.000002307077 [Eh]
    Disp20              =    -0.000293433983 [Eh]
    Disp20 (NO)         =    -0.000278989768 [Eh]
    Exch-Disp20         =     0.000002382439 [Eh]
    Elst12,r            =     0.000162219305 [Eh]
    Exch11              =     0.000000227314 [Eh]
    Exch12              =     0.000003982378 [Eh]
    Ind22               =     0.000001149605 [Eh]
    Disp21              =     0.000027931163 [Eh]
    Disp22 (SDQ)        =     0.000007396932 [Eh]

    (i =   1 of   4)          4 seconds
    (i =   2 of   4)          8 seconds
    (i =   3 of   4)         12 seconds
    (i =   4 of   4)         16 seconds

    Disp220 (T)         =    -0.000021022147 [Eh]

    (i =   1 of   7)          2 seconds
    (i =   2 of   7)          3 seconds
    (i =   3 of   7)          5 seconds
    (i =   4 of   7)          6 seconds
    (i =   5 of   7)          7 seconds
    (i =   6 of   7)          9 seconds
    (i =   7 of   7)         10 seconds

    Disp202 (T)         =    -0.000027899756 [Eh]

    Disp22 (T)          =    -0.000048921903 [Eh]

    Est. Disp220 (T)    =    -0.000022110532 [Eh]
    Est. Disp202 (T)    =    -0.000029344218 [Eh]

    Est. Disp22 (T)     =    -0.000051454750 [Eh]

    SAPT Results 
  --------------------------------------------------------------------------------------------------------
    Electrostatics                 -1.08309872 [mEh]      -0.67965471 [kcal/mol]      -2.84367530 [kJ/mol]
      Elst10,r                     -1.24531803 [mEh]      -0.78144886 [kcal/mol]      -3.26958202 [kJ/mol]
      Elst12,r                      0.16221930 [mEh]       0.10179415 [kcal/mol]       0.42590673 [kJ/mol]

    Exchange                        0.02208493 [mEh]       0.01385850 [kcal/mol]       0.05798398 [kJ/mol]
      Exch10                        0.01787524 [mEh]       0.01121688 [kcal/mol]       0.04693144 [kJ/mol]
      Exch10(S^2)                   0.01787511 [mEh]       0.01121680 [kcal/mol]       0.04693108 [kJ/mol]
      Exch11(S^2)                   0.00022731 [mEh]       0.00014264 [kcal/mol]       0.00059681 [kJ/mol]
      Exch12(S^2)                   0.00398238 [mEh]       0.00249898 [kcal/mol]       0.01045573 [kJ/mol]

    Induction                      -0.05299122 [mEh]      -0.03325249 [kcal/mol]      -0.13912843 [kJ/mol]
      Ind20,r                      -0.05360959 [mEh]      -0.03364052 [kcal/mol]      -0.14075195 [kJ/mol]
      Ind22                         0.00114961 [mEh]       0.00072139 [kcal/mol]       0.00301829 [kJ/mol]
      Exch-Ind20,r                  0.00230708 [mEh]       0.00144771 [kcal/mol]       0.00605723 [kJ/mol]
      Exch-Ind22                   -0.00004947 [mEh]      -0.00003104 [kcal/mol]      -0.00012989 [kJ/mol]
      delta HF,r (2)               -0.00278884 [mEh]      -0.00175003 [kcal/mol]      -0.00732211 [kJ/mol]

    Dispersion                     -0.30717820 [mEh]      -0.19275723 [kcal/mol]      -0.80649625 [kJ/mol]
      Disp20                       -0.29343398 [mEh]      -0.18413260 [kcal/mol]      -0.77041082 [kJ/mol]
      Disp21                        0.02793116 [mEh]       0.01752707 [kcal/mol]       0.07333326 [kJ/mol]
      Disp22 (SDQ)                  0.00739693 [mEh]       0.00464164 [kcal/mol]       0.01942064 [kJ/mol]
      Disp22 (T)                   -0.04892190 [mEh]      -0.03069896 [kcal/mol]      -0.12844444 [kJ/mol]
      Est. Disp22 (T)              -0.05145475 [mEh]      -0.03228834 [kcal/mol]      -0.13509443 [kJ/mol]
      Exch-Disp20                   0.00238244 [mEh]       0.00149500 [kcal/mol]       0.00625509 [kJ/mol]

  Total HF                         -1.28153414 [mEh]      -0.80417481 [kcal/mol]      -3.36466741 [kJ/mol]
  Total SAPT0                      -1.57258568 [mEh]      -0.98681241 [kcal/mol]      -4.12882314 [kJ/mol]
  Total SAPT2                      -1.40505655 [mEh]      -0.88168630 [kcal/mol]      -3.68897547 [kJ/mol]
  Total SAPT2+                     -1.42118321 [mEh]      -0.89180593 [kcal/mol]      -3.73131600 [kJ/mol]

  Special recipe for scaled SAPT0 (see Manual):
    Electrostatics sSAPT0          -1.24531803 [mEh]      -0.78144886 [kcal/mol]      -3.26958202 [kJ/mol]
    Exchange sSAPT0                 0.01787524 [mEh]       0.01121688 [kcal/mol]       0.04693144 [kJ/mol]
    Induction sSAPT0               -0.05409130 [mEh]      -0.03394280 [kcal/mol]      -0.14201669 [kJ/mol]
    Dispersion sSAPT0              -0.29105149 [mEh]      -0.18263757 [kcal/mol]      -0.76415558 [kJ/mol]
  Total sSAPT0                     -1.57258558 [mEh]      -0.98681235 [kcal/mol]      -4.12882286 [kJ/mol]
  --------------------------------------------------------------------------------------------------------

*** tstop() called on genome.bme.utexas.edu at Thu Apr 23 21:57:37 2020
Module time:
	user time   =     566.76 seconds =       9.45 minutes
	system time =      25.14 seconds =       0.42 minutes
	total time  =         88 seconds =       1.47 minutes
Total time:
	user time   =     692.33 seconds =      11.54 minutes
	system time =      28.47 seconds =       0.47 minutes
	total time  =        107 seconds =       1.78 minutes

    Psi4 stopped on: Thursday, 23 April 2020 09:57PM
    Psi4 wall time for execution: 0:01:47.06

*** Psi4 exiting successfully. Buy a developer a beer!
