    -----------------------------------------------------------------------
          PSI4: An Open-Source Ab Initio Electronic Structure Package
                              PSI 4.0.0-beta4 Driver

    J. M. Turney, A. C. Simmonett, R. M. Parrish, E. G. Hohenstein,
    F. A. Evangelista, J. T. Fermann, B. J. Mintz, L. A. Burns, J. J. Wilke,
    M. L. Abrams, N. J. Russ, M. L. Leininger, C. L. Janssen, E. T. Seidl,
    W. D. Allen, H. F. Schaefer, R. A. King, E. F. Valeev, C. D. Sherrill,
    and T. D. Crawford, WIREs Comput. Mol. Sci., (2011) (doi: 10.1002/wcms.93)

                         Additional Contributions by
    A. E. DePrince, M. Saitow, U. Bozkaya, A. Yu. Sokolov
    -----------------------------------------------------------------------

    Process ID:   7537
    PSI4DATADIR: /home/xzhu216/psi4/psi4-install/share/psi

    Using LocalCommunicator (Number of processes = 1)

    Memory level set to 256.000 MB

  ==> Input File <==

--------------------------------------------------------------------------
#psi4
#
memory 7 gb

molecule MeCl_Water {
0 1
   Cl    -0.951589000    -0.634073000     0.000553000
    C    -0.802054000     1.145009000    -0.005546000
    H     0.246631000     1.395493000    -0.109289000
    H    -1.376732000     1.527611000    -0.840161000
    H    -1.196867000     1.519065000     0.931130000
--
0 1
    O     1.956293226     0.054179423     0.019807332
    H     2.748176226    -0.458141577    -0.152401668
    H     1.252220226    -0.601093577     0.022067332
units angstrom
no_reorient  #important for SAPT in psi4, default
symmetry c1  #important for SAPT in psi4, default
}

set {
basis aug-cc-pVTZ
scf_type DF
freeze_core True
}
energy('sapt2+')
--------------------------------------------------------------------------

  Memory set to   7.000 GiB by Python script.

  //>>>>>>>>>>>>>>>>>>>>>>>>>>>>>>>>>>>//
  //              Dimer HF             //
  //<<<<<<<<<<<<<<<<<<<<<<<<<<<<<<<<<<<//


  No DF_BASIS_SCF auxiliary basis selected, defaulting to aug-cc-pvtz-jkfit


*** tstart() called on node36.bme.utexas.edu
*** at Fri Jun 20 18:16:24 2014


         ---------------------------------------------------------
                                   SCF
            by Justin Turney, Rob Parrish, and Andy Simmonett
                              RHF Reference
                        4 Threads,   7000 MiB Core
         ---------------------------------------------------------

  ==> Geometry <==

    Molecular point group: c1
    Full point group: C1

    Geometry (in Angstrom), charge = 0, multiplicity = 1:

       Center              X                  Y                   Z       
    ------------   -----------------  -----------------  -----------------
          CL         -0.805663481370    -0.572947707835    -0.001208466232
           C         -0.656128481370     1.206134292165    -0.007307466232
           H          0.392556518630     1.456618292165    -0.111050466232
           H         -1.230806481370     1.588736292165    -0.841922466232
           H         -1.050941481370     1.580190292165     0.929368533768
           O          2.102218744630     0.115304715165     0.018045865768
           H          2.894101744630    -0.397016284835    -0.154163134232
           H          1.398145744630    -0.539968284835     0.020305865768

  Running in c1 symmetry.

  Nuclear repulsion =  106.871473102753967

  Charge       = 0
  Multiplicity = 1
  Electrons    = 36
  Nalpha       = 18
  Nbeta        = 18

  ==> Algorithm <==

  SCF Algorithm Type is DF.
  DIIS enabled.
  MOM disabled.
  Fractional occupation disabled.
  Guess Type is CORE.
  Energy threshold   = 1.00e-08
  Density threshold  = 1.00e-08
  Integral threshold = 0.00e+00

  ==> Primary Basis <==

  Basis Set: AUG-CC-PVTZ
    Number of shells: 89
    Number of basis function: 257
    Number of Cartesian functions: 294
    Spherical Harmonics?: true
    Max angular momentum: 3

  ==> Pre-Iterations <==

   -------------------------------------------------------
    Irrep   Nso     Nmo     Nalpha   Nbeta   Ndocc  Nsocc
   -------------------------------------------------------
     A        257     257       0       0       0       0
   -------------------------------------------------------
    Total     257     257      18      18      18       0
   -------------------------------------------------------

 OEINTS: Wrapper to libmints.
   by Justin Turney

   Calculation information:
      Number of atoms:                   8
      Number of AO shells:              89
      Number of SO shells:              89
      Number of primitives:            179
      Number of atomic orbitals:       294
      Number of basis functions:       257

      Number of irreps:                  1
      Number of functions per irrep: [ 257 ]

      Overlap, kinetic, potential, dipole, and quadrupole integrals
        stored in file 35.

  ==> Integral Setup <==

  ==> DFJK: Density-Fitted J/K Matrices <==

    J tasked:                  Yes
    K tasked:                  Yes
    wK tasked:                  No
    OpenMP threads:              4
    Integrals threads:           4
    Memory (MB):              5006
    Algorithm:                Core
    Integral Cache:           SAVE
    Schwarz Cutoff:          0E+00
    Fitting Condition:       1E-12

   => Auxiliary Basis Set <=

  Basis Set: aug-cc-pvtz-jkfit
    Number of shells: 172
    Number of basis function: 584
    Number of Cartesian functions: 717
    Spherical Harmonics?: true
    Max angular momentum: 4

  Minimum eigenvalue in the overlap matrix is 5.4849807696E-05.
  Using Symmetric Orthogonalization.
  SCF Guess: Core (One-Electron) Hamiltonian.

  Guess energy:  -442.81178184962869

  ==> Iterations <==

                        Total Energy        Delta E     RMS |[F,P]|

   @RHF iter   1:  -480.03988492316671   -4.80040e+02   3.83798e-02 
   @RHF iter   2:  -354.85604537057071    1.25184e+02   3.77049e-02 DIIS
   @RHF iter   3:  -541.64922717023194   -1.86793e+02   2.01609e-02 DIIS
   @RHF iter   4:  -553.19798563346092   -1.15488e+01   1.96840e-02 DIIS
   @RHF iter   5:  -574.77514278940669   -2.15772e+01   4.21374e-03 DIIS
   @RHF iter   6:  -575.12012390581447   -3.44981e-01   1.89109e-03 DIIS
   @RHF iter   7:  -575.20192892501223   -8.18050e-02   3.78945e-04 DIIS
   @RHF iter   8:  -575.20573968561996   -3.81076e-03   1.89284e-04 DIIS
   @RHF iter   9:  -575.20682701592409   -1.08733e-03   3.54708e-05 DIIS
   @RHF iter  10:  -575.20689978760322   -7.27717e-05   6.73450e-06 DIIS
   @RHF iter  11:  -575.20690253921532   -2.75161e-06   2.66131e-06 DIIS
   @RHF iter  12:  -575.20690297222893   -4.33014e-07   7.20013e-07 DIIS
   @RHF iter  13:  -575.20690300923786   -3.70089e-08   1.94152e-07 DIIS
   @RHF iter  14:  -575.20690301266984   -3.43198e-09   5.33403e-08 DIIS
   @RHF iter  15:  -575.20690301300840   -3.38559e-10   1.54415e-08 DIIS
   @RHF iter  16:  -575.20690301303830   -2.98996e-11   3.64373e-09 DIIS

  ==> Post-Iterations <==

	Orbital Energies (a.u.)
	-----------------------

	Doubly Occupied:                                                      

	   1A   -104.832800     2A    -20.556680     3A    -11.283488  
	   4A    -10.557608     5A     -8.024446     6A     -8.022771  
	   7A     -8.022694     8A     -1.347041     9A     -1.134162  
	  10A     -0.915255    11A     -0.718806    12A     -0.616460  
	  13A     -0.613877    14A     -0.578540    15A     -0.548292  
	  16A     -0.503645    17A     -0.443276    18A     -0.442264  

	Virtual:                                                              

	  19A      0.030617    20A      0.039385    21A      0.047283  
	  22A      0.052373    23A      0.070588    24A      0.087381  
	  25A      0.115582    26A      0.129750    27A      0.134099  
	  28A      0.135993    29A      0.143469    30A      0.155209  
	  31A      0.165919    32A      0.173382    33A      0.191873  
	  34A      0.223581    35A      0.224714    36A      0.229832  
	  37A      0.264316    38A      0.274061    39A      0.283066  
	  40A      0.286227    41A      0.301893    42A      0.307302  
	  43A      0.320035    44A      0.329037    45A      0.336860  
	  46A      0.349561    47A      0.353821    48A      0.379760  
	  49A      0.393699    50A      0.404424    51A      0.411741  
	  52A      0.414806    53A      0.437269    54A      0.446651  
	  55A      0.449406    56A      0.453265    57A      0.469695  
	  58A      0.479167    59A      0.491105    60A      0.498620  
	  61A      0.517962    62A      0.521723    63A      0.544137  
	  64A      0.557133    65A      0.584626    66A      0.598262  
	  67A      0.633431    68A      0.699559    69A      0.723344  
	  70A      0.735749    71A      0.738377    72A      0.755423  
	  73A      0.773497    74A      0.789707    75A      0.791817  
	  76A      0.806759    77A      0.821040    78A      0.838214  
	  79A      0.855564    80A      0.881880    81A      0.889055  
	  82A      0.900230    83A      0.917145    84A      0.921935  
	  85A      0.934543    86A      0.940753    87A      0.956031  
	  88A      0.963647    89A      0.969066    90A      0.996028  
	  91A      1.006695    92A      1.016976    93A      1.024722  
	  94A      1.030829    95A      1.040210    96A      1.058813  
	  97A      1.072603    98A      1.083969    99A      1.090870  
	 100A      1.100298   101A      1.109380   102A      1.123475  
	 103A      1.139855   104A      1.142748   105A      1.157413  
	 106A      1.197921   107A      1.219437   108A      1.230770  
	 109A      1.244933   110A      1.268001   111A      1.295439  
	 112A      1.306342   113A      1.325176   114A      1.364875  
	 115A      1.396699   116A      1.411424   117A      1.445186  
	 118A      1.491118   119A      1.518900   120A      1.531760  
	 121A      1.555840   122A      1.589415   123A      1.598570  
	 124A      1.599493   125A      1.619589   126A      1.632530  
	 127A      1.654238   128A      1.656301   129A      1.691071  
	 130A      1.715448   131A      1.731168   132A      1.767080  
	 133A      1.786357   134A      1.788132   135A      1.824495  
	 136A      1.835565   137A      1.850212   138A      1.855545  
	 139A      1.919409   140A      1.937810   141A      1.955681  
	 142A      2.012805   143A      2.048358   144A      2.059803  
	 145A      2.073757   146A      2.122574   147A      2.179621  
	 148A      2.217305   149A      2.226241   150A      2.255656  
	 151A      2.333699   152A      2.376364   153A      2.425127  
	 154A      2.466183   155A      2.500727   156A      2.538457  
	 157A      2.562115   158A      2.602844   159A      2.614755  
	 160A      2.700679   161A      2.709244   162A      2.752991  
	 163A      2.793419   164A      2.818444   165A      2.845937  
	 166A      2.891052   167A      2.907787   168A      2.944491  
	 169A      2.980071   170A      3.030744   171A      3.074859  
	 172A      3.089136   173A      3.150449   174A      3.157560  
	 175A      3.183197   176A      3.241027   177A      3.244399  
	 178A      3.268675   179A      3.341350   180A      3.393010  
	 181A      3.412098   182A      3.469455   183A      3.586044  
	 184A      3.591337   185A      3.599690   186A      3.621524  
	 187A      3.641423   188A      3.729838   189A      3.810777  
	 190A      3.865089   191A      3.899151   192A      3.935822  
	 193A      3.960643   194A      3.999977   195A      4.070704  
	 196A      4.088667   197A      4.105885   198A      4.125789  
	 199A      4.155149   200A      4.206390   201A      4.211802  
	 202A      4.227501   203A      4.241168   204A      4.289950  
	 205A      4.363482   206A      4.438542   207A      4.454702  
	 208A      4.488642   209A      4.506809   210A      4.546757  
	 211A      4.571127   212A      4.682986   213A      4.745786  
	 214A      4.773477   215A      4.779956   216A      4.846835  
	 217A      4.899132   218A      4.908503   219A      4.943234  
	 220A      4.965966   221A      5.007921   222A      5.098823  
	 223A      5.196726   224A      5.214989   225A      5.226446  
	 226A      5.256680   227A      5.282401   228A      5.351862  
	 229A      5.458088   230A      5.520674   231A      5.553971  
	 232A      5.627112   233A      5.675173   234A      5.692849  
	 235A      5.826835   236A      6.008631   237A      6.061405  
	 238A      6.205396   239A      6.306409   240A      6.613066  
	 241A      6.634188   242A      6.665593   243A      6.793526  
	 244A      7.021161   245A      7.178468   246A      7.333946  
	 247A      7.352174   248A      7.365414   249A      7.440784  
	 250A      7.480289   251A      7.761150   252A      7.853515  
	 253A      8.004501   254A      8.063116   255A      8.921592  
	 256A     16.184824   257A     17.107391  

	Final Occupation by Irrep:
	          A 
	DOCC [    18 ]

  Energy converged.

  @RHF Final Energy:  -575.20690301303830

   => Energetics <=

    Nuclear Repulsion Energy =            106.8714731027539671
    One-Electron Energy =               -1005.8325414958229658
    Two-Electron Energy =                 323.7541653800298036
    DFT Exchange-Correlation Energy =       0.0000000000000000
    Empirical Dispersion Energy =           0.0000000000000000
    Total Energy =                       -575.2069030130392093



Properties will be evaluated at   0.000000,   0.000000,   0.000000 Bohr
  ==> Properties <==


Properties computed using the SCF density density matrix
  Nuclear Dipole Moment: (a.u.)
     X:     3.0004      Y:     3.9830      Z:    -0.1464

  Electronic Dipole Moment: (a.u.)
     X:    -2.9223      Y:    -3.8413      Z:     0.0290

  Dipole Moment: (a.u.)
     X:     0.0781      Y:     0.1416      Z:    -0.1175     Total:     0.1999

  Dipole Moment: (Debye)
     X:     0.1986      Y:     0.3600      Z:    -0.2986     Total:     0.5082


  Saving occupied orbitals to File 180.

  Saving SAPT 2-DIMER file.

*** tstop() called on node36.bme.utexas.edu at Fri Jun 20 18:16:30 2014
Module time:
	user time   =      19.98 seconds =       0.33 minutes
	system time =       0.42 seconds =       0.01 minutes
	total time  =          6 seconds =       0.10 minutes
Total time:
	user time   =      19.98 seconds =       0.33 minutes
	system time =       0.42 seconds =       0.01 minutes
	total time  =          6 seconds =       0.10 minutes

  //>>>>>>>>>>>>>>>>>>>>>>>>>>>>>>>>>>>//
  //            Monomer A HF           //
  //<<<<<<<<<<<<<<<<<<<<<<<<<<<<<<<<<<<//


  No DF_BASIS_SCF auxiliary basis selected, defaulting to aug-cc-pvtz-jkfit


*** tstart() called on node36.bme.utexas.edu
*** at Fri Jun 20 18:16:30 2014


         ---------------------------------------------------------
                                   SCF
            by Justin Turney, Rob Parrish, and Andy Simmonett
                              RHF Reference
                        4 Threads,   7000 MiB Core
         ---------------------------------------------------------

  ==> Geometry <==

    Molecular point group: c1
    Full point group: C1

    Geometry (in Angstrom), charge = 0, multiplicity = 1:

       Center              X                  Y                   Z       
    ------------   -----------------  -----------------  -----------------
          CL         -0.805663481370    -0.572947707835    -0.001208466232
           C         -0.656128481370     1.206134292165    -0.007307466232
           H          0.392556518630     1.456618292165    -0.111050466232
           H         -1.230806481370     1.588736292165    -0.841922466232
           H         -1.050941481370     1.580190292165     0.929368533768
           O(Gh)      2.102218744630     0.115304715165     0.018045865768
           H(Gh)      2.894101744630    -0.397016284835    -0.154163134232
           H(Gh)      1.398145744630    -0.539968284835     0.020305865768

  Running in c1 symmetry.

  Nuclear repulsion =   51.359045554383400

  Charge       = 0
  Multiplicity = 1
  Electrons    = 26
  Nalpha       = 13
  Nbeta        = 13

  ==> Algorithm <==

  SCF Algorithm Type is DF.
  DIIS enabled.
  MOM disabled.
  Fractional occupation disabled.
  Guess Type is CORE.
  Energy threshold   = 1.00e-08
  Density threshold  = 1.00e-08
  Integral threshold = 0.00e+00

  ==> Primary Basis <==

  Basis Set: AUG-CC-PVTZ
    Number of shells: 89
    Number of basis function: 257
    Number of Cartesian functions: 294
    Spherical Harmonics?: true
    Max angular momentum: 3

  ==> Pre-Iterations <==

   -------------------------------------------------------
    Irrep   Nso     Nmo     Nalpha   Nbeta   Ndocc  Nsocc
   -------------------------------------------------------
     A        257     257       0       0       0       0
   -------------------------------------------------------
    Total     257     257      13      13      13       0
   -------------------------------------------------------

 OEINTS: Wrapper to libmints.
   by Justin Turney

   Calculation information:
      Number of atoms:                   8
      Number of AO shells:              89
      Number of SO shells:              89
      Number of primitives:            179
      Number of atomic orbitals:       294
      Number of basis functions:       257

      Number of irreps:                  1
      Number of functions per irrep: [ 257 ]

      Overlap, kinetic, potential, dipole, and quadrupole integrals
        stored in file 35.

  ==> Integral Setup <==

  ==> DFJK: Density-Fitted J/K Matrices <==

    J tasked:                  Yes
    K tasked:                  Yes
    wK tasked:                  No
    OpenMP threads:              4
    Integrals threads:           4
    Memory (MB):              5006
    Algorithm:                Core
    Integral Cache:           LOAD
    Schwarz Cutoff:          0E+00
    Fitting Condition:       1E-12

   => Auxiliary Basis Set <=

  Basis Set: aug-cc-pvtz-jkfit
    Number of shells: 172
    Number of basis function: 584
    Number of Cartesian functions: 717
    Spherical Harmonics?: true
    Max angular momentum: 4

  Minimum eigenvalue in the overlap matrix is 5.4849807697E-05.
  Using Symmetric Orthogonalization.
  SCF Guess: Core (One-Electron) Hamiltonian.

  Guess energy:  -378.34624873818103

  ==> Iterations <==

                        Total Energy        Delta E     RMS |[F,P]|

   @RHF iter   1:  -446.56356243368231   -4.46564e+02   3.12749e-02 
   @RHF iter   2:  -364.57725709414376    8.19863e+01   3.31279e-02 DIIS
   @RHF iter   3:  -488.74664986944771   -1.24169e+02   1.50576e-02 DIIS
   @RHF iter   4:  -497.98152650512833   -9.23488e+00   7.04005e-03 DIIS
   @RHF iter   5:  -498.51253424643556   -5.31008e-01   4.37268e-03 DIIS
   @RHF iter   6:  -499.03911123071993   -5.26577e-01   1.57373e-03 DIIS
   @RHF iter   7:  -499.14678859274153   -1.07677e-01   2.24155e-04 DIIS
   @RHF iter   8:  -499.14864128227470   -1.85269e-03   6.02902e-05 DIIS
   @RHF iter   9:  -499.14890300103815   -2.61719e-04   1.77490e-05 DIIS
   @RHF iter  10:  -499.14893838954521   -3.53885e-05   4.36306e-06 DIIS
   @RHF iter  11:  -499.14894051428718   -2.12474e-06   8.69147e-07 DIIS
   @RHF iter  12:  -499.14894058249428   -6.82071e-08   8.35644e-08 DIIS
   @RHF iter  13:  -499.14894058299893   -5.04656e-10   1.65856e-08 DIIS
   @RHF iter  14:  -499.14894058302258   -2.36469e-11   4.01500e-09 DIIS

  ==> Post-Iterations <==

	Orbital Energies (a.u.)
	-----------------------

	Doubly Occupied:                                                      

	   1A   -104.825972     2A    -11.290412     3A    -10.550133  
	   4A     -8.017037     5A     -8.015184     6A     -8.015161  
	   7A     -1.127497     8A     -0.915858     9A     -0.620025  
	  10A     -0.619168    11A     -0.544273    12A     -0.435685  
	  13A     -0.435485  

	Virtual:                                                              

	  14A      0.026067    15A      0.039721    16A      0.045045  
	  17A      0.050243    18A      0.070819    19A      0.088294  
	  20A      0.111383    21A      0.119027    22A      0.123029  
	  23A      0.134901    24A      0.139369    25A      0.145410  
	  26A      0.161596    27A      0.168110    28A      0.173676  
	  29A      0.202943    30A      0.223270    31A      0.228729  
	  32A      0.266874    33A      0.273427    34A      0.275227  
	  35A      0.290988    36A      0.303639    37A      0.311723  
	  38A      0.321193    39A      0.335858    40A      0.340895  
	  41A      0.345567    42A      0.359652    43A      0.367586  
	  44A      0.378953    45A      0.384985    46A      0.405664  
	  47A      0.409714    48A      0.418103    49A      0.429716  
	  50A      0.442511    51A      0.446367    52A      0.465101  
	  53A      0.471405    54A      0.477922    55A      0.492513  
	  56A      0.510230    57A      0.523264    58A      0.537046  
	  59A      0.563143    60A      0.580221    61A      0.594167  
	  62A      0.643916    63A      0.700884    64A      0.733845  
	  65A      0.747947    66A      0.755954    67A      0.774472  
	  68A      0.777806    69A      0.796879    70A      0.804738  
	  71A      0.810586    72A      0.830329    73A      0.833911  
	  74A      0.850093    75A      0.866832    76A      0.878418  
	  77A      0.907295    78A      0.910275    79A      0.921565  
	  80A      0.933540    81A      0.939812    82A      0.946903  
	  83A      0.959325    84A      0.972752    85A      0.978205  
	  86A      0.986482    87A      1.008840    88A      1.015156  
	  89A      1.023300    90A      1.041776    91A      1.048689  
	  92A      1.073226    93A      1.081352    94A      1.091842  
	  95A      1.101154    96A      1.102828    97A      1.127499  
	  98A      1.137858    99A      1.142690   100A      1.155772  
	 101A      1.215764   102A      1.225959   103A      1.235661  
	 104A      1.259652   105A      1.275358   106A      1.313175  
	 107A      1.322576   108A      1.354433   109A      1.377300  
	 110A      1.406172   111A      1.415025   112A      1.429253  
	 113A      1.477642   114A      1.510350   115A      1.556471  
	 116A      1.576281   117A      1.594294   118A      1.603535  
	 119A      1.642755   120A      1.646666   121A      1.663086  
	 122A      1.675053   123A      1.700072   124A      1.717000  
	 125A      1.729083   126A      1.758271   127A      1.766098  
	 128A      1.783151   129A      1.788953   130A      1.824225  
	 131A      1.837239   132A      1.849902   133A      1.874583  
	 134A      1.881050   135A      1.907185   136A      1.937622  
	 137A      1.949181   138A      2.014976   139A      2.027821  
	 140A      2.041797   141A      2.074312   142A      2.169254  
	 143A      2.193330   144A      2.215686   145A      2.234850  
	 146A      2.287452   147A      2.518748   148A      2.531568  
	 149A      2.553204   150A      2.580882   151A      2.618631  
	 152A      2.629276   153A      2.642711   154A      2.692774  
	 155A      2.715234   156A      2.764472   157A      2.790234  
	 158A      2.819610   159A      2.880883   160A      2.917674  
	 161A      2.951938   162A      2.995232   163A      3.068680  
	 164A      3.094561   165A      3.152124   166A      3.159375  
	 167A      3.188061   168A      3.207765   169A      3.225539  
	 170A      3.248554   171A      3.264907   172A      3.283557  
	 173A      3.333128   174A      3.350399   175A      3.374566  
	 176A      3.398959   177A      3.422775   178A      3.453201  
	 179A      3.519948   180A      3.579545   181A      3.589141  
	 182A      3.598879   183A      3.618972   184A      3.636357  
	 185A      3.703362   186A      3.786190   187A      3.809931  
	 188A      3.812110   189A      3.875354   190A      3.933856  
	 191A      3.964744   192A      4.076439   193A      4.085957  
	 194A      4.127580   195A      4.148610   196A      4.210891  
	 197A      4.221956   198A      4.244387   199A      4.435206  
	 200A      4.472845   201A      4.503262   202A      4.528513  
	 203A      4.564028   204A      4.626994   205A      4.678926  
	 206A      4.766683   207A      4.773916   208A      4.783439  
	 209A      4.835512   210A      4.868002   211A      4.911383  
	 212A      4.929490   213A      4.950894   214A      4.990422  
	 215A      5.020559   216A      5.095191   217A      5.137500  
	 218A      5.195600   219A      5.244593   220A      5.270433  
	 221A      5.399723   222A      5.514087   223A      5.517429  
	 224A      5.614986   225A      5.641868   226A      5.652480  
	 227A      5.686767   228A      5.792499   229A      5.971948  
	 230A      6.013376   231A      6.053561   232A      6.138335  
	 233A      6.345508   234A      6.500145   235A      6.610038  
	 236A      6.654800   237A      6.851814   238A      7.191575  
	 239A      7.725226   240A      7.856500   241A      7.886203  
	 242A      8.086348   243A      8.194490   244A      8.322613  
	 245A      8.855845   246A      8.940746   247A      9.795472  
	 248A      9.913796   249A     10.043298   250A     10.315118  
	 251A     11.290567   252A     11.685404   253A     12.183628  
	 254A     13.701330   255A     13.928065   256A     17.096387  
	 257A     65.450430  

	Final Occupation by Irrep:
	          A 
	DOCC [    13 ]

  Energy converged.

  @RHF Final Energy:  -499.14894058302258

   => Energetics <=

    Nuclear Repulsion Energy =             51.3590455543833997
    One-Electron Energy =                -790.1921922493766033
    Two-Electron Energy =                 239.6842061119715765
    DFT Exchange-Correlation Energy =       0.0000000000000000
    Empirical Dispersion Energy =           0.0000000000000000
    Total Energy =                       -499.1489405830216128



Properties will be evaluated at   0.000000,   0.000000,   0.000000 Bohr
  ==> Properties <==


Properties computed using the SCF density density matrix
  Nuclear Dipole Moment: (a.u.)
     X:   -36.8917      Y:     4.0105      Z:    -0.1663

  Electronic Dipole Moment: (a.u.)
     X:    36.9620      Y:    -3.1682      Z:     0.1637

  Dipole Moment: (a.u.)
     X:     0.0703      Y:     0.8422      Z:    -0.0026     Total:     0.8452

  Dipole Moment: (Debye)
     X:     0.1786      Y:     2.1407      Z:    -0.0065     Total:     2.1482


  Saving occupied orbitals to File 180.

  Saving SAPT 2-MONOMER_A file.

*** tstop() called on node36.bme.utexas.edu at Fri Jun 20 18:16:33 2014
Module time:
	user time   =      12.85 seconds =       0.21 minutes
	system time =       0.22 seconds =       0.00 minutes
	total time  =          3 seconds =       0.05 minutes
Total time:
	user time   =      32.85 seconds =       0.55 minutes
	system time =       0.64 seconds =       0.01 minutes
	total time  =          9 seconds =       0.15 minutes

  //>>>>>>>>>>>>>>>>>>>>>>>>>>>>>>>>>>>//
  //            Monomer B HF           //
  //<<<<<<<<<<<<<<<<<<<<<<<<<<<<<<<<<<<//


  No DF_BASIS_SCF auxiliary basis selected, defaulting to aug-cc-pvtz-jkfit


*** tstart() called on node36.bme.utexas.edu
*** at Fri Jun 20 18:16:33 2014


         ---------------------------------------------------------
                                   SCF
            by Justin Turney, Rob Parrish, and Andy Simmonett
                              RHF Reference
                        4 Threads,   7000 MiB Core
         ---------------------------------------------------------

  ==> Geometry <==

    Molecular point group: c1
    Full point group: C1

    Geometry (in Angstrom), charge = 0, multiplicity = 1:

       Center              X                  Y                   Z       
    ------------   -----------------  -----------------  -----------------
          CL(Gh)     -0.805663481370    -0.572947707835    -0.001208466232
           C(Gh)     -0.656128481370     1.206134292165    -0.007307466232
           H(Gh)      0.392556518630     1.456618292165    -0.111050466232
           H(Gh)     -1.230806481370     1.588736292165    -0.841922466232
           H(Gh)     -1.050941481370     1.580190292165     0.929368533768
           O          2.102218744630     0.115304715165     0.018045865768
           H          2.894101744630    -0.397016284835    -0.154163134232
           H          1.398145744630    -0.539968284835     0.020305865768

  Running in c1 symmetry.

  Nuclear repulsion =    9.166774808184694

  Charge       = 0
  Multiplicity = 1
  Electrons    = 10
  Nalpha       = 5
  Nbeta        = 5

  ==> Algorithm <==

  SCF Algorithm Type is DF.
  DIIS enabled.
  MOM disabled.
  Fractional occupation disabled.
  Guess Type is CORE.
  Energy threshold   = 1.00e-08
  Density threshold  = 1.00e-08
  Integral threshold = 0.00e+00

  ==> Primary Basis <==

  Basis Set: AUG-CC-PVTZ
    Number of shells: 89
    Number of basis function: 257
    Number of Cartesian functions: 294
    Spherical Harmonics?: true
    Max angular momentum: 3

  ==> Pre-Iterations <==

   -------------------------------------------------------
    Irrep   Nso     Nmo     Nalpha   Nbeta   Ndocc  Nsocc
   -------------------------------------------------------
     A        257     257       0       0       0       0
   -------------------------------------------------------
    Total     257     257       5       5       5       0
   -------------------------------------------------------

 OEINTS: Wrapper to libmints.
   by Justin Turney

   Calculation information:
      Number of atoms:                   8
      Number of AO shells:              89
      Number of SO shells:              89
      Number of primitives:            179
      Number of atomic orbitals:       294
      Number of basis functions:       257

      Number of irreps:                  1
      Number of functions per irrep: [ 257 ]

      Overlap, kinetic, potential, dipole, and quadrupole integrals
        stored in file 35.

  ==> Integral Setup <==

  ==> DFJK: Density-Fitted J/K Matrices <==

    J tasked:                  Yes
    K tasked:                  Yes
    wK tasked:                  No
    OpenMP threads:              4
    Integrals threads:           4
    Memory (MB):              5006
    Algorithm:                Core
    Integral Cache:           LOAD
    Schwarz Cutoff:          0E+00
    Fitting Condition:       1E-12

   => Auxiliary Basis Set <=

  Basis Set: aug-cc-pvtz-jkfit
    Number of shells: 172
    Number of basis function: 584
    Number of Cartesian functions: 717
    Spherical Harmonics?: true
    Max angular momentum: 4

  Minimum eigenvalue in the overlap matrix is 5.4849807696E-05.
  Using Symmetric Orthogonalization.
  SCF Guess: Core (One-Electron) Hamiltonian.

  Guess energy:   -60.18800494748545

  ==> Iterations <==

                        Total Energy        Delta E     RMS |[F,P]|

   @RHF iter   1:   -61.30253210284634   -6.13025e+01   3.13675e-02 
   @RHF iter   2:   -62.24783427438014   -9.45302e-01   1.11169e-02 DIIS
   @RHF iter   3:   -72.64269652500387   -1.03949e+01   1.33242e-02 DIIS
   @RHF iter   4:   -75.17080960765270   -2.52811e+00   6.13018e-03 DIIS
   @RHF iter   5:   -76.03759617583886   -8.66787e-01   7.46957e-04 DIIS
   @RHF iter   6:   -76.05966248566506   -2.20663e-02   1.90707e-04 DIIS
   @RHF iter   7:   -76.06038747415491   -7.24988e-04   3.01166e-05 DIIS
   @RHF iter   8:   -76.06040813691364   -2.06628e-05   4.84868e-06 DIIS
   @RHF iter   9:   -76.06040878650805   -6.49594e-07   7.00309e-07 DIIS
   @RHF iter  10:   -76.06040880658841   -2.00804e-08   8.13435e-08 DIIS
   @RHF iter  11:   -76.06040880690580   -3.17385e-10   3.05496e-08 DIIS
   @RHF iter  12:   -76.06040880693473   -2.89333e-11   2.26828e-09 DIIS

  ==> Post-Iterations <==

	Orbital Energies (a.u.)
	-----------------------

	Doubly Occupied:                                                      

	   1A    -20.567903     2A     -1.352383     3A     -0.715019  
	   4A     -0.585435     5A     -0.510229  

	Virtual:                                                              

	   6A      0.022676     7A      0.038185     8A      0.047035  
	   9A      0.048810    10A      0.068537    11A      0.080507  
	  12A      0.106636    13A      0.111828    14A      0.115137  
	  15A      0.130670    16A      0.134466    17A      0.144895  
	  18A      0.160302    19A      0.171720    20A      0.176085  
	  21A      0.210158    22A      0.226558    23A      0.255657  
	  24A      0.265234    25A      0.289830    26A      0.291906  
	  27A      0.298391    28A      0.307319    29A      0.309379  
	  30A      0.316869    31A      0.320795    32A      0.339141  
	  33A      0.343514    34A      0.356305    35A      0.378802  
	  36A      0.393856    37A      0.402942    38A      0.408416  
	  39A      0.420184    40A      0.433474    41A      0.461051  
	  42A      0.462946    43A      0.468113    44A      0.485895  
	  45A      0.495894    46A      0.510216    47A      0.524945  
	  48A      0.553284    49A      0.568384    50A      0.584200  
	  51A      0.600470    52A      0.615376    53A      0.624924  
	  54A      0.631638    55A      0.657034    56A      0.664680  
	  57A      0.688790    58A      0.706079    59A      0.718618  
	  60A      0.748625    61A      0.758042    62A      0.778854  
	  63A      0.790401    64A      0.809545    65A      0.828337  
	  66A      0.889386    67A      0.921371    68A      0.947253  
	  69A      0.955787    70A      0.970108    71A      0.988058  
	  72A      1.012259    73A      1.014988    74A      1.030302  
	  75A      1.042327    76A      1.049588    77A      1.063979  
	  78A      1.073380    79A      1.088661    80A      1.099728  
	  81A      1.109645    82A      1.114016    83A      1.122875  
	  84A      1.142060    85A      1.145523    86A      1.174042  
	  87A      1.187072    88A      1.207100    89A      1.210102  
	  90A      1.234691    91A      1.246613    92A      1.266835  
	  93A      1.284156    94A      1.299866    95A      1.309971  
	  96A      1.320958    97A      1.329899    98A      1.369789  
	  99A      1.394846   100A      1.405611   101A      1.425461  
	 102A      1.431155   103A      1.450120   104A      1.484478  
	 105A      1.498840   106A      1.520172   107A      1.531719  
	 108A      1.564547   109A      1.567211   110A      1.584520  
	 111A      1.614569   112A      1.634112   113A      1.661267  
	 114A      1.667379   115A      1.702322   116A      1.714933  
	 117A      1.738175   118A      1.778578   119A      1.780693  
	 120A      1.847059   121A      1.890466   122A      1.917782  
	 123A      1.938129   124A      1.948461   125A      1.969481  
	 126A      2.018843   127A      2.024071   128A      2.064401  
	 129A      2.071967   130A      2.092454   131A      2.109995  
	 132A      2.138545   133A      2.156071   134A      2.184058  
	 135A      2.217441   136A      2.284893   137A      2.330329  
	 138A      2.337289   139A      2.367620   140A      2.399566  
	 141A      2.444536   142A      2.495150   143A      2.511391  
	 144A      2.535232   145A      2.544073   146A      2.568264  
	 147A      2.578935   148A      2.635909   149A      2.673019  
	 150A      2.702084   151A      2.712182   152A      2.765541  
	 153A      2.801057   154A      2.864318   155A      2.950003  
	 156A      2.972170   157A      2.998238   158A      3.032195  
	 159A      3.801404   160A      3.815008   161A      3.881760  
	 162A      3.935824   163A      3.959235   164A      3.973844  
	 165A      4.021008   166A      4.058885   167A      4.060325  
	 168A      4.073612   169A      4.099866   170A      4.124008  
	 171A      4.157933   172A      4.180435   173A      4.195279  
	 174A      4.211996   175A      4.234122   176A      4.245035  
	 177A      4.261115   178A      4.279889   179A      4.357325  
	 180A      4.372442   181A      4.415682   182A      4.431422  
	 183A      4.456727   184A      4.471751   185A      4.496469  
	 186A      4.530838   187A      4.551668   188A      4.558909  
	 189A      4.595694   190A      4.610391   191A      4.642030  
	 192A      4.703919   193A      4.724074   194A      4.751391  
	 195A      4.784147   196A      4.797105   197A      4.832465  
	 198A      4.850895   199A      4.883123   200A      4.911734  
	 201A      4.938258   202A      4.966635   203A      5.012074  
	 204A      5.107643   205A      5.114452   206A      5.208540  
	 207A      5.250969   208A      5.262846   209A      5.273273  
	 210A      5.297497   211A      5.356189   212A      5.379652  
	 213A      5.381834   214A      5.449059   215A      5.488259  
	 216A      5.493049   217A      5.519080   218A      5.578899  
	 219A      5.716888   220A      5.738153   221A      5.783455  
	 222A      5.894051   223A      6.079398   224A      6.169568  
	 225A      6.217562   226A      6.248511   227A      6.291490  
	 228A      6.306739   229A      6.630929   230A      6.646295  
	 231A      6.730620   232A      6.791111   233A      7.018377  
	 234A      7.167471   235A      7.276781   236A      7.327805  
	 237A      7.347006   238A      7.363101   239A      7.435831  
	 240A      7.476916   241A      7.725333   242A      7.774449  
	 243A      7.860650   244A      7.886830   245A      7.988926  
	 246A      8.061341   247A      8.186769   248A      8.283366  
	 249A      8.922896   250A     10.335506   251A     16.172891  
	 252A     16.513857   253A     28.055524   254A     28.349527  
	 255A     28.980346   256A     51.657079   257A    161.032644  

	Final Occupation by Irrep:
	          A 
	DOCC [     5 ]

  Energy converged.

  @RHF Final Energy:   -76.06040880693473

   => Energetics <=

    Nuclear Repulsion Energy =              9.1667748081846945
    One-Electron Energy =                -122.9924283601452260
    Two-Electron Energy =                  37.7652447450258535
    DFT Exchange-Correlation Energy =       0.0000000000000000
    Empirical Dispersion Energy =           0.0000000000000000
    Total Energy =                        -76.0604088069346744



Properties will be evaluated at   0.000000,   0.000000,   0.000000 Bohr
  ==> Properties <==


Properties computed using the SCF density density matrix
  Nuclear Dipole Moment: (a.u.)
     X:    39.8921      Y:    -0.0275      Z:     0.0199

  Electronic Dipole Moment: (a.u.)
     X:   -39.8335      Y:    -0.7465      Z:    -0.1324

  Dipole Moment: (a.u.)
     X:     0.0586      Y:    -0.7740      Z:    -0.1125     Total:     0.7844

  Dipole Moment: (Debye)
     X:     0.1490      Y:    -1.9674      Z:    -0.2859     Total:     1.9937


  Saving occupied orbitals to File 180.

  Saving SAPT 2-MONOMER_B file.

*** tstop() called on node36.bme.utexas.edu at Fri Jun 20 18:16:36 2014
Module time:
	user time   =       9.33 seconds =       0.16 minutes
	system time =       0.20 seconds =       0.00 minutes
	total time  =          3 seconds =       0.05 minutes
Total time:
	user time   =      42.20 seconds =       0.70 minutes
	system time =       0.84 seconds =       0.01 minutes
	total time  =         12 seconds =       0.20 minutes
  No DF_BASIS_SAPT auxiliary basis selected, defaulting to aug-cc-pvtz-ri

  //>>>>>>>>>>>>>>>>>>>>>>>>>>>>>>>>>>>//
  //               SAPT2+              //
  //<<<<<<<<<<<<<<<<<<<<<<<<<<<<<<<<<<<//


*** tstart() called on node36.bme.utexas.edu
*** at Fri Jun 20 18:16:36 2014

        SAPT2+  
    Ed Hohenstein
     6 June 2009

      Orbital Information
  --------------------------
    NSO        =       257
    NMO        =       257
    NRI        =       589
    NOCC A     =        13
    NOCC B     =         5
    FOCC A     =         6
    FOCC B     =         1
    NVIR A     =       244
    NVIR B     =       252

    Estimated memory usage: 556.8 MB

    Elst10,r            =    -0.013782951151 H
    Exch10 (S^2)        =     0.021291448326 H
    Exch10              =     0.021434056543 H
    Ind20,r (A<-B)      =    -0.006101871629 H
    Ind20,r (B<-A)      =    -0.002855854643 H
    Ind20,r             =    -0.008957726272 H
    Exch-Ind20,r (A<-B) =     0.003645891751 H
    Exch-Ind20,r (B<-A) =     0.002271900380 H
    Exch-Ind20,r        =     0.005917792131 H
    Disp20              =    -0.009154552159 H
    Exch-Disp20         =     0.001481835912 H
    Elst12,r            =     0.000119938751 H
    Exch11              =     0.000480096937 H
    Exch12              =     0.001493834220 H
    Ind22               =    -0.000843461835 H
    Disp21              =     0.000607261377 H
    Disp22 (SDQ)        =     0.000198499860 H

    (i =   1 of   4)         44 seconds
    (i =   2 of   4)         88 seconds
    (i =   3 of   4)        132 seconds
    (i =   4 of   4)        175 seconds

    Disp220 (T)         =    -0.000606599691 H

    (i =   1 of   7)         22 seconds
    (i =   2 of   7)         45 seconds
    (i =   3 of   7)         69 seconds
    (i =   4 of   7)         92 seconds
    (i =   5 of   7)        116 seconds
    (i =   6 of   7)        139 seconds
    (i =   7 of   7)        162 seconds

    Disp202 (T)         =    -0.000785973569 H

    Disp22 (T)          =    -0.001392573260 H

    SAPT Results  
  -----------------------------------------------------------------------
    Electrostatics         -13.66301240 mH      -8.57367008 kcal mol^-1
      Elst10,r             -13.78295115 mH      -8.64893278 kcal mol^-1
      Elst12,r               0.11993875 mH       0.07526271 kcal mol^-1

    Exchange                23.40798770 mH      14.68873466 kcal mol^-1
      Exch10                21.43405654 mH      13.45007410 kcal mol^-1
      Exch10(S^2)           21.29144833 mH      13.36058609 kcal mol^-1
      Exch11(S^2)            0.48009694 mH       0.30126539 kcal mol^-1
      Exch12(S^2)            1.49383422 mH       0.93739516 kcal mol^-1

    Induction               -5.49096946 mH      -3.44563550 kcal mol^-1
      Ind20,r               -8.95772627 mH      -5.62105833 kcal mol^-1
      Ind22                 -0.84346184 mH      -0.52928031 kcal mol^-1
      Exch-Ind20,r           5.91779213 mH       3.71347078 kcal mol^-1
      Exch-Ind22             0.55722085 mH       0.34966137 kcal mol^-1
      delta HF,r (2)        -2.16479433 mH      -1.35842901 kcal mol^-1

    Dispersion              -8.25952827 mH      -5.18293246 kcal mol^-1
      Disp20                -9.15455216 mH      -5.74456845 kcal mol^-1
      Disp21                 0.60726138 mH       0.38106228 kcal mol^-1
      Disp22 (SDQ)           0.19849986 mH       0.12456055 kcal mol^-1
      Disp22 (T)            -1.39257326 mH      -0.87385295 kcal mol^-1
      Exch-Disp20            1.48183591 mH       0.92986611 kcal mol^-1

    Total HF                 2.44637692 mH       1.53512476 kcal mol^-1
    Total SAPT0             -5.22633933 mH      -3.27957758 kcal mol^-1
    Total SAPT2             -3.41871041 mH      -2.14527326 kcal mol^-1
    Total SAPT2+            -4.00552243 mH      -2.51350338 kcal mol^-1

*** tstop() called on node36.bme.utexas.edu at Fri Jun 20 18:25:42 2014
Module time:
	user time   =    2135.16 seconds =      35.59 minutes
	system time =      15.69 seconds =       0.26 minutes
	total time  =        546 seconds =       9.10 minutes
Total time:
	user time   =    2177.37 seconds =      36.29 minutes
	system time =      16.53 seconds =       0.28 minutes
	total time  =        558 seconds =       9.30 minutes

*** PSI4 exiting successfully. Buy a developer a beer!
