    -----------------------------------------------------------------------
          PSI4: An Open-Source Ab Initio Electronic Structure Package
                              PSI 4.0.0-beta4 Driver

    J. M. Turney, A. C. Simmonett, R. M. Parrish, E. G. Hohenstein,
    F. A. Evangelista, J. T. Fermann, B. J. Mintz, L. A. Burns, J. J. Wilke,
    M. L. Abrams, N. J. Russ, M. L. Leininger, C. L. Janssen, E. T. Seidl,
    W. D. Allen, H. F. Schaefer, R. A. King, E. F. Valeev, C. D. Sherrill,
    and T. D. Crawford, WIREs Comput. Mol. Sci., (2011) (doi: 10.1002/wcms.93)

                         Additional Contributions by
    A. E. DePrince, M. Saitow, U. Bozkaya, A. Yu. Sokolov
    -----------------------------------------------------------------------

    Process ID:  28828
    PSI4DATADIR: /home/xzhu216/psi4/psi4-install/share/psi

    Using LocalCommunicator (Number of processes = 1)

    Memory level set to 256.000 MB

  ==> Input File <==

--------------------------------------------------------------------------
#psi4
#
memory 7 gb

molecule MeCl_MeCl {
0 1
   Cl     2.111707000    -0.538824000     0.000181000
    C     1.762530000     1.209208000     0.000110000
    H     0.687619000     1.343583000     0.000122000
    H     2.201980000     1.643830000    -0.889662000
    H     2.202008000     1.643908000     0.889831000
--
0 1
   Cl    -2.262516681     0.538770889     0.000199552
    C    -1.913606681    -1.209312111     0.000117552
    H    -2.353247681    -1.643885111    -0.889584448
    H    -2.353030681    -1.643925111     0.889907552
    H    -0.838717681    -1.343871111    -0.000014448
units angstrom
no_reorient  #important for SAPT in psi4, default
symmetry c1  #important for SAPT in psi4, default
}

set {
basis aug-cc-pVTZ
scf_type DF
freeze_core True
}
energy('sapt2+')
--------------------------------------------------------------------------

  Memory set to   7.000 GiB by Python script.

  //>>>>>>>>>>>>>>>>>>>>>>>>>>>>>>>>>>>//
  //              Dimer HF             //
  //<<<<<<<<<<<<<<<<<<<<<<<<<<<<<<<<<<<//


  No DF_BASIS_SCF auxiliary basis selected, defaulting to aug-cc-pvtz-jkfit


*** tstart() called on node139.bme.utexas.edu
*** at Fri Jun 20 18:12:09 2014


         ---------------------------------------------------------
                                   SCF
            by Justin Turney, Rob Parrish, and Andy Simmonett
                              RHF Reference
                        4 Threads,   7000 MiB Core
         ---------------------------------------------------------

  ==> Geometry <==

    Molecular point group: c1
    Full point group: C1

    Geometry (in Angstrom), charge = 0, multiplicity = 1:

       Center              X                  Y                   Z       
    ------------   -----------------  -----------------  -----------------
          CL          2.187153562022    -0.538789297522     0.000014550068
           C          1.837976562022     1.209242702478    -0.000056449932
           H          0.763065562022     1.343617702478    -0.000044449932
           H          2.277426562022     1.643864702478    -0.889828449932
           H          2.277454562022     1.643942702478     0.889664550068
          CL         -2.187070118978     0.538805591478     0.000033102068
           C         -1.838160118978    -1.209277408522    -0.000048897932
           H         -2.277801118978    -1.643850408522    -0.889750897932
           H         -2.277584118978    -1.643890408522     0.889741102068
           H         -0.763271118978    -1.343836408522    -0.000180897932

  Running in c1 symmetry.

  Nuclear repulsion =  186.365414485799960

  Charge       = 0
  Multiplicity = 1
  Electrons    = 52
  Nalpha       = 26
  Nbeta        = 26

  ==> Algorithm <==

  SCF Algorithm Type is DF.
  DIIS enabled.
  MOM disabled.
  Fractional occupation disabled.
  Guess Type is CORE.
  Energy threshold   = 1.00e-08
  Density threshold  = 1.00e-08
  Integral threshold = 0.00e+00

  ==> Primary Basis <==

  Basis Set: AUG-CC-PVTZ
    Number of shells: 114
    Number of basis function: 330
    Number of Cartesian functions: 378
    Spherical Harmonics?: true
    Max angular momentum: 3

  ==> Pre-Iterations <==

   -------------------------------------------------------
    Irrep   Nso     Nmo     Nalpha   Nbeta   Ndocc  Nsocc
   -------------------------------------------------------
     A        330     330       0       0       0       0
   -------------------------------------------------------
    Total     330     330      26      26      26       0
   -------------------------------------------------------

 OEINTS: Wrapper to libmints.
   by Justin Turney

   Calculation information:
      Number of atoms:                  10
      Number of AO shells:             114
      Number of SO shells:             114
      Number of primitives:            254
      Number of atomic orbitals:       378
      Number of basis functions:       330

      Number of irreps:                  1
      Number of functions per irrep: [ 330 ]

      Overlap, kinetic, potential, dipole, and quadrupole integrals
        stored in file 35.

  ==> Integral Setup <==

  ==> DFJK: Density-Fitted J/K Matrices <==

    J tasked:                  Yes
    K tasked:                  Yes
    wK tasked:                  No
    OpenMP threads:              4
    Integrals threads:           4
    Memory (MB):              5006
    Algorithm:                Core
    Integral Cache:           SAVE
    Schwarz Cutoff:          0E+00
    Fitting Condition:       1E-12

   => Auxiliary Basis Set <=

  Basis Set: aug-cc-pvtz-jkfit
    Number of shells: 228
    Number of basis function: 776
    Number of Cartesian functions: 952
    Spherical Harmonics?: true
    Max angular momentum: 4

  Minimum eigenvalue in the overlap matrix is 4.6634334412E-05.
  Using Symmetric Orthogonalization.
  SCF Guess: Core (One-Electron) Hamiltonian.

  Guess energy:  -755.89396996742198

  ==> Iterations <==

                        Total Energy        Delta E     RMS |[F,P]|

   @RHF iter   1:  -895.02384846083294   -8.95024e+02   3.41224e-02 
   @RHF iter   2:  -734.67607779183061    1.60348e+02   3.69555e-02 DIIS
   @RHF iter   3:  -984.92701991943989   -2.50251e+02   1.49310e-02 DIIS
   @RHF iter   4:  -996.46437058527624   -1.15374e+01   7.05593e-03 DIIS
   @RHF iter   5:  -997.41683517259969   -9.52465e-01   3.85966e-03 DIIS
   @RHF iter   6:  -998.24188098979891   -8.25046e-01   7.84580e-04 DIIS
   @RHF iter   7:  -998.29638571646672   -5.45047e-02   1.72361e-04 DIIS
   @RHF iter   8:  -998.29874397165133   -2.35826e-03   5.67345e-05 DIIS
   @RHF iter   9:  -998.29920871985803   -4.64748e-04   1.65359e-05 DIIS
   @RHF iter  10:  -998.29926358902378   -5.48692e-05   3.23463e-06 DIIS
   @RHF iter  11:  -998.29926542020132   -1.83118e-06   7.38531e-07 DIIS
   @RHF iter  12:  -998.29926550160769   -8.14064e-08   1.22853e-07 DIIS
   @RHF iter  13:  -998.29926550328457   -1.67688e-09   3.25707e-08 DIIS
   @RHF iter  14:  -998.29926550346033   -1.75760e-10   9.36966e-09 DIIS

  ==> Post-Iterations <==

	Orbital Energies (a.u.)
	-----------------------

	Doubly Occupied:                                                      

	   1A   -104.828021     2A   -104.828017     3A    -11.287078  
	   4A    -11.287074     5A    -10.552403     6A    -10.552399  
	   7A     -8.019304     8A     -8.019300     9A     -8.017481  
	  10A     -8.017480    11A     -8.017477    12A     -8.017477  
	  13A     -1.130300    14A     -1.128480    15A     -0.915777  
	  16A     -0.913349    17A     -0.624499    18A     -0.617546  
	  19A     -0.616820    20A     -0.609954    21A     -0.547256  
	  22A     -0.544755    23A     -0.444890    24A     -0.437492  
	  25A     -0.437406    26A     -0.431051  

	Virtual:                                                              

	  27A      0.030340    28A      0.035567    29A      0.043320  
	  30A      0.050298    31A      0.052705    32A      0.064998  
	  33A      0.079045    34A      0.105630    35A      0.111892  
	  36A      0.125171    37A      0.125732    38A      0.127619  
	  39A      0.128234    40A      0.133097    41A      0.144647  
	  42A      0.155559    43A      0.158406    44A      0.166360  
	  45A      0.166371    46A      0.176616    47A      0.201753  
	  48A      0.212219    49A      0.219170    50A      0.234492  
	  51A      0.244228    52A      0.270978    53A      0.272923  
	  54A      0.274675    55A      0.280512    56A      0.288492  
	  57A      0.296056    58A      0.301478    59A      0.314319  
	  60A      0.326502    61A      0.330493    62A      0.337171  
	  63A      0.339253    64A      0.349379    65A      0.362150  
	  66A      0.366287    67A      0.379228    68A      0.383032  
	  69A      0.391738    70A      0.402470    71A      0.407344  
	  72A      0.410087    73A      0.418790    74A      0.426770  
	  75A      0.434171    76A      0.444364    77A      0.452414  
	  78A      0.460409    79A      0.462089    80A      0.462901  
	  81A      0.478645    82A      0.490006    83A      0.504317  
	  84A      0.512158    85A      0.517062    86A      0.528773  
	  87A      0.528852    88A      0.537646    89A      0.551173  
	  90A      0.553519    91A      0.559100    92A      0.616106  
	  93A      0.633842    94A      0.650903    95A      0.698204  
	  96A      0.710375    97A      0.710459    98A      0.721180  
	  99A      0.731976   100A      0.761595   101A      0.780985  
	 102A      0.791910   103A      0.795268   104A      0.802254  
	 105A      0.808363   106A      0.811036   107A      0.837979  
	 108A      0.847614   109A      0.861945   110A      0.867331  
	 111A      0.884875   112A      0.889608   113A      0.893506  
	 114A      0.902083   115A      0.906927   116A      0.929853  
	 117A      0.931219   118A      0.941003   119A      0.941116  
	 120A      0.946542   121A      0.964378   122A      0.975281  
	 123A      0.982396   124A      0.983539   125A      0.987309  
	 126A      0.989516   127A      1.013347   128A      1.014991  
	 129A      1.029956   130A      1.032471   131A      1.042356  
	 132A      1.048438   133A      1.061854   134A      1.062629  
	 135A      1.081416   136A      1.089158   137A      1.095210  
	 138A      1.111154   139A      1.119553   140A      1.121002  
	 141A      1.128323   142A      1.132040   143A      1.135612  
	 144A      1.145021   145A      1.150049   146A      1.172234  
	 147A      1.186028   148A      1.194024   149A      1.194034  
	 150A      1.234576   151A      1.263812   152A      1.270743  
	 153A      1.275435   154A      1.279320   155A      1.309953  
	 156A      1.314138   157A      1.342493   158A      1.376008  
	 159A      1.396599   160A      1.405033   161A      1.410416  
	 162A      1.435156   163A      1.454120   164A      1.467325  
	 165A      1.487480   166A      1.506951   167A      1.555555  
	 168A      1.574545   169A      1.575857   170A      1.590363  
	 171A      1.596666   172A      1.604022   173A      1.627947  
	 174A      1.629707   175A      1.655190   176A      1.676328  
	 177A      1.687449   178A      1.690199   179A      1.701446  
	 180A      1.711480   181A      1.713853   182A      1.722147  
	 183A      1.728752   184A      1.759104   185A      1.784765  
	 186A      1.792058   187A      1.811279   188A      1.827376  
	 189A      1.839474   190A      1.844806   191A      1.870998  
	 192A      1.880817   193A      1.949336   194A      1.951971  
	 195A      1.953815   196A      1.990491   197A      1.991543  
	 198A      2.003117   199A      2.016251   200A      2.028037  
	 201A      2.048190   202A      2.072784   203A      2.116244  
	 204A      2.195285   205A      2.211917   206A      2.216635  
	 207A      2.218434   208A      2.231286   209A      2.260995  
	 210A      2.279204   211A      2.508742   212A      2.554877  
	 213A      2.641679   214A      2.664114   215A      2.672654  
	 216A      2.696011   217A      2.697024   218A      2.714130  
	 219A      2.718306   220A      2.758442   221A      2.792452  
	 222A      2.821358   223A      2.931483   224A      2.943537  
	 225A      2.996955   226A      3.017152   227A      3.042591  
	 228A      3.053645   229A      3.104636   230A      3.113667  
	 231A      3.119711   232A      3.146312   233A      3.159656  
	 234A      3.161933   235A      3.165399   236A      3.193732  
	 237A      3.202051   238A      3.211041   239A      3.248438  
	 240A      3.249819   241A      3.258782   242A      3.327807  
	 243A      3.343565   244A      3.366467   245A      3.368618  
	 246A      3.399201   247A      3.411665   248A      3.433643  
	 249A      3.556308   250A      3.575064   251A      3.579776  
	 252A      3.580128   253A      3.582476   254A      3.587740  
	 255A      3.599625   256A      3.610119   257A      3.611384  
	 258A      3.628187   259A      3.664189   260A      3.797998  
	 261A      3.814503   262A      3.815645   263A      3.858265  
	 264A      3.889524   265A      3.934329   266A      3.935753  
	 267A      3.966235   268A      3.995062   269A      4.037539  
	 270A      4.051464   271A      4.088385   272A      4.090764  
	 273A      4.114009   274A      4.114721   275A      4.147392  
	 276A      4.176924   277A      4.185798   278A      4.203180  
	 279A      4.204523   280A      4.221749   281A      4.226459  
	 282A      4.251406   283A      4.464255   284A      4.470474  
	 285A      4.478937   286A      4.517291   287A      4.528547  
	 288A      4.553461   289A      4.758072   290A      4.764842  
	 291A      4.765256   292A      4.780190   293A      4.799465  
	 294A      4.800919   295A      4.881766   296A      4.883973  
	 297A      4.890189   298A      4.910998   299A      4.991496  
	 300A      4.994928   301A      5.006634   302A      5.036081  
	 303A      5.194051   304A      5.194798   305A      5.195401  
	 306A      5.215155   307A      5.229331   308A      5.260876  
	 309A      5.518477   310A      5.518619   311A      5.526363  
	 312A      5.552764   313A      5.614096   314A      5.621334  
	 315A      5.673051   316A      5.676995   317A      5.968380  
	 318A      5.978259   319A      6.059546   320A      6.061631  
	 321A      6.088929   322A      6.090184   323A      6.595057  
	 324A      6.616421   325A      6.622777   326A      6.663785  
	 327A      7.607756   328A      7.671957   329A     17.097403  
	 330A     17.137975  

	Final Occupation by Irrep:
	          A 
	DOCC [    26 ]

  Energy converged.

  @RHF Final Energy:  -998.29926550346033

   => Energetics <=

    Nuclear Repulsion Energy =            186.3654144857999597
    One-Electron Energy =               -1747.6431839318872790
    Two-Electron Energy =                 562.9785039426260482
    DFT Exchange-Correlation Energy =       0.0000000000000000
    Empirical Dispersion Energy =           0.0000000000000000
    Total Energy =                       -998.2992655034613563



Properties will be evaluated at   0.000000,   0.000000,   0.000000 Bohr
  ==> Properties <==


Properties computed using the SCF density density matrix
  Nuclear Dipole Moment: (a.u.)
     X:    -0.0007      Y:    -0.0002      Z:    -0.0004

  Electronic Dipole Moment: (a.u.)
     X:     0.0006      Y:     0.0001      Z:     0.0003

  Dipole Moment: (a.u.)
     X:    -0.0002      Y:    -0.0000      Z:    -0.0001     Total:     0.0002

  Dipole Moment: (Debye)
     X:    -0.0004      Y:    -0.0001      Z:    -0.0002     Total:     0.0004


  Saving occupied orbitals to File 180.

  Saving SAPT 2-DIMER file.

*** tstop() called on node139.bme.utexas.edu at Fri Jun 20 18:12:40 2014
Module time:
	user time   =     114.38 seconds =       1.91 minutes
	system time =       1.45 seconds =       0.02 minutes
	total time  =         31 seconds =       0.52 minutes
Total time:
	user time   =     114.38 seconds =       1.91 minutes
	system time =       1.45 seconds =       0.02 minutes
	total time  =         31 seconds =       0.52 minutes

  //>>>>>>>>>>>>>>>>>>>>>>>>>>>>>>>>>>>//
  //            Monomer A HF           //
  //<<<<<<<<<<<<<<<<<<<<<<<<<<<<<<<<<<<//


  No DF_BASIS_SCF auxiliary basis selected, defaulting to aug-cc-pvtz-jkfit


*** tstart() called on node139.bme.utexas.edu
*** at Fri Jun 20 18:12:40 2014


         ---------------------------------------------------------
                                   SCF
            by Justin Turney, Rob Parrish, and Andy Simmonett
                              RHF Reference
                        4 Threads,   7000 MiB Core
         ---------------------------------------------------------

  ==> Geometry <==

    Molecular point group: c1
    Full point group: C1

    Geometry (in Angstrom), charge = 0, multiplicity = 1:

       Center              X                  Y                   Z       
    ------------   -----------------  -----------------  -----------------
          CL          2.187153562022    -0.538789297522     0.000014550068
           C          1.837976562022     1.209242702478    -0.000056449932
           H          0.763065562022     1.343617702478    -0.000044449932
           H          2.277426562022     1.643864702478    -0.889828449932
           H          2.277454562022     1.643942702478     0.889664550068
          CL(Gh)     -2.187070118978     0.538805591478     0.000033102068
           C(Gh)     -1.838160118978    -1.209277408522    -0.000048897932
           H(Gh)     -2.277801118978    -1.643850408522    -0.889750897932
           H(Gh)     -2.277584118978    -1.643890408522     0.889741102068
           H(Gh)     -0.763271118978    -1.343836408522    -0.000180897932

  Running in c1 symmetry.

  Nuclear repulsion =   51.402544081991323

  Charge       = 0
  Multiplicity = 1
  Electrons    = 26
  Nalpha       = 13
  Nbeta        = 13

  ==> Algorithm <==

  SCF Algorithm Type is DF.
  DIIS enabled.
  MOM disabled.
  Fractional occupation disabled.
  Guess Type is CORE.
  Energy threshold   = 1.00e-08
  Density threshold  = 1.00e-08
  Integral threshold = 0.00e+00

  ==> Primary Basis <==

  Basis Set: AUG-CC-PVTZ
    Number of shells: 114
    Number of basis function: 330
    Number of Cartesian functions: 378
    Spherical Harmonics?: true
    Max angular momentum: 3

  ==> Pre-Iterations <==

   -------------------------------------------------------
    Irrep   Nso     Nmo     Nalpha   Nbeta   Ndocc  Nsocc
   -------------------------------------------------------
     A        330     330       0       0       0       0
   -------------------------------------------------------
    Total     330     330      13      13      13       0
   -------------------------------------------------------

 OEINTS: Wrapper to libmints.
   by Justin Turney

   Calculation information:
      Number of atoms:                  10
      Number of AO shells:             114
      Number of SO shells:             114
      Number of primitives:            254
      Number of atomic orbitals:       378
      Number of basis functions:       330

      Number of irreps:                  1
      Number of functions per irrep: [ 330 ]

      Overlap, kinetic, potential, dipole, and quadrupole integrals
        stored in file 35.

  ==> Integral Setup <==

  ==> DFJK: Density-Fitted J/K Matrices <==

    J tasked:                  Yes
    K tasked:                  Yes
    wK tasked:                  No
    OpenMP threads:              4
    Integrals threads:           4
    Memory (MB):              5006
    Algorithm:                Core
    Integral Cache:           LOAD
    Schwarz Cutoff:          0E+00
    Fitting Condition:       1E-12

   => Auxiliary Basis Set <=

  Basis Set: aug-cc-pvtz-jkfit
    Number of shells: 228
    Number of basis function: 776
    Number of Cartesian functions: 952
    Spherical Harmonics?: true
    Max angular momentum: 4

  Minimum eigenvalue in the overlap matrix is 4.6634334412E-05.
  Using Symmetric Orthogonalization.
  SCF Guess: Core (One-Electron) Hamiltonian.

  Guess energy:  -378.28257449980424

  ==> Iterations <==

                        Total Energy        Delta E     RMS |[F,P]|

   @RHF iter   1:  -446.80977230186636   -4.46810e+02   2.40623e-02 
   @RHF iter   2:  -364.62397004676546    8.21858e+01   2.57770e-02 DIIS
   @RHF iter   3:  -489.33752990359869   -1.24714e+02   1.12092e-02 DIIS
   @RHF iter   4:  -497.98549828968521   -8.64797e+00   5.36489e-03 DIIS
   @RHF iter   5:  -498.57896031248117   -5.93462e-01   3.23911e-03 DIIS
   @RHF iter   6:  -499.04880152868532   -4.69841e-01   1.16144e-03 DIIS
   @RHF iter   7:  -499.14704675169241   -9.82452e-02   1.63537e-04 DIIS
   @RHF iter   8:  -499.14867337639100   -1.62662e-03   4.26313e-05 DIIS
   @RHF iter   9:  -499.14888735097895   -2.13975e-04   1.25460e-05 DIIS
   @RHF iter  10:  -499.14891622408231   -2.88731e-05   3.09019e-06 DIIS
   @RHF iter  11:  -499.14891800094688   -1.77686e-06   6.35254e-07 DIIS
   @RHF iter  12:  -499.14891806049502   -5.95481e-08   5.28516e-08 DIIS
   @RHF iter  13:  -499.14891806087508   -3.80055e-10   1.07587e-08 DIIS
   @RHF iter  14:  -499.14891806089213   -1.70530e-11   1.90609e-09 DIIS

  ==> Post-Iterations <==

	Orbital Energies (a.u.)
	-----------------------

	Doubly Occupied:                                                      

	   1A   -104.826180     2A    -11.290076     3A    -10.550429  
	   4A     -8.017336     5A     -8.015471     6A     -8.015462  
	   7A     -1.128196     8A     -0.915781     9A     -0.619426  
	  10A     -0.618906    11A     -0.545397    12A     -0.435734  
	  13A     -0.435577  

	Virtual:                                                              

	  14A      0.023711    15A      0.034430    16A      0.042048  
	  17A      0.046507    18A      0.053262    19A      0.062971  
	  20A      0.075282    21A      0.094798    22A      0.105889  
	  23A      0.108247    24A      0.113425    25A      0.123371  
	  26A      0.126326    27A      0.131502    28A      0.141330  
	  29A      0.145432    30A      0.147372    31A      0.155684  
	  32A      0.162636    33A      0.173945    34A      0.194510  
	  35A      0.210803    36A      0.224264    37A      0.238654  
	  38A      0.267228    39A      0.268444    40A      0.274808  
	  41A      0.277941    42A      0.291095    43A      0.298306  
	  44A      0.301429    45A      0.305788    46A      0.307479  
	  47A      0.324039    48A      0.331451    49A      0.341396  
	  50A      0.344148    51A      0.344512    52A      0.354146  
	  53A      0.370092    54A      0.370932    55A      0.394428  
	  56A      0.403072    57A      0.403668    58A      0.413940  
	  59A      0.415343    60A      0.415594    61A      0.426424  
	  62A      0.432144    63A      0.452422    64A      0.454358  
	  65A      0.459719    66A      0.473650    67A      0.480855  
	  68A      0.490987    69A      0.505848    70A      0.512165  
	  71A      0.517976    72A      0.531398    73A      0.534189  
	  74A      0.554088    75A      0.559165    76A      0.586917  
	  77A      0.599956    78A      0.602118    79A      0.608204  
	  80A      0.652252    81A      0.656788    82A      0.662789  
	  83A      0.681330    84A      0.698570    85A      0.707343  
	  86A      0.712458    87A      0.715582    88A      0.719945  
	  89A      0.748970    90A      0.770913    91A      0.785543  
	  92A      0.797135    93A      0.818444    94A      0.829155  
	  95A      0.855465    96A      0.863980    97A      0.892170  
	  98A      0.897415    99A      0.914929   100A      0.938993  
	 101A      0.943332   102A      0.951333   103A      0.952890  
	 104A      0.984177   105A      0.989692   106A      0.993399  
	 107A      0.996166   108A      1.003795   109A      1.025578  
	 110A      1.032346   111A      1.045033   112A      1.053741  
	 113A      1.057644   114A      1.058980   115A      1.065299  
	 116A      1.082666   117A      1.090650   118A      1.095965  
	 119A      1.108459   120A      1.116067   121A      1.117073  
	 122A      1.133261   123A      1.139465   124A      1.139701  
	 125A      1.152784   126A      1.163640   127A      1.173072  
	 128A      1.182122   129A      1.194091   130A      1.209022  
	 131A      1.211062   132A      1.236417   133A      1.250802  
	 134A      1.263271   135A      1.272644   136A      1.278000  
	 137A      1.298165   138A      1.307174   139A      1.329035  
	 140A      1.363932   141A      1.376943   142A      1.380855  
	 143A      1.394110   144A      1.394506   145A      1.408824  
	 146A      1.414302   147A      1.435213   148A      1.454506  
	 149A      1.459167   150A      1.471999   151A      1.500955  
	 152A      1.536614   153A      1.542752   154A      1.552070  
	 155A      1.561782   156A      1.569679   157A      1.573934  
	 158A      1.588246   159A      1.613012   160A      1.613376  
	 161A      1.617714   162A      1.642450   163A      1.662769  
	 164A      1.677589   165A      1.685418   166A      1.711673  
	 167A      1.734667   168A      1.751814   169A      1.757701  
	 170A      1.784229   171A      1.809711   172A      1.828522  
	 173A      1.833029   174A      1.846560   175A      1.892036  
	 176A      1.903674   177A      1.925968   178A      1.942296  
	 179A      1.960800   180A      1.973722   181A      1.996821  
	 182A      2.000048   183A      2.020441   184A      2.021298  
	 185A      2.055469   186A      2.073427   187A      2.090445  
	 188A      2.103586   189A      2.122711   190A      2.157659  
	 191A      2.163734   192A      2.183158   193A      2.218193  
	 194A      2.220364   195A      2.230511   196A      2.289603  
	 197A      2.346046   198A      2.358582   199A      2.508928  
	 200A      2.520414   201A      2.538462   202A      2.573888  
	 203A      2.596589   204A      2.666088   205A      2.674826  
	 206A      2.692945   207A      2.718165   208A      2.724718  
	 209A      2.777351   210A      2.843301   211A      2.939992  
	 212A      2.987629   213A      3.025906   214A      3.047652  
	 215A      3.118286   216A      3.143626   217A      3.161328  
	 218A      3.196552   219A      3.207119   220A      3.255169  
	 221A      3.281083   222A      3.361125   223A      3.381236  
	 224A      3.402806   225A      3.569115   226A      3.570585  
	 227A      3.577639   228A      3.594947   229A      3.612383  
	 230A      3.676427   231A      3.802295   232A      3.808621  
	 233A      3.856977   234A      3.917939   235A      3.927512  
	 236A      3.939632   237A      3.960693   238A      3.974852  
	 239A      3.997442   240A      3.999737   241A      4.046992  
	 242A      4.056415   243A      4.079481   244A      4.082027  
	 245A      4.094034   246A      4.107391   247A      4.129350  
	 248A      4.141893   249A      4.171040   250A      4.174101  
	 251A      4.189756   252A      4.202446   253A      4.222374  
	 254A      4.241951   255A      4.247676   256A      4.290622  
	 257A      4.390659   258A      4.413935   259A      4.456057  
	 260A      4.472465   261A      4.478860   262A      4.506191  
	 263A      4.514383   264A      4.552358   265A      4.557831  
	 266A      4.588116   267A      4.598645   268A      4.626102  
	 269A      4.711220   270A      4.750179   271A      4.768671  
	 272A      4.777120   273A      4.778148   274A      4.793368  
	 275A      4.820555   276A      4.825484   277A      4.871184  
	 278A      4.882498   279A      4.889459   280A      4.890550  
	 281A      4.946625   282A      4.990962   283A      5.006029  
	 284A      5.031307   285A      5.101839   286A      5.110456  
	 287A      5.192144   288A      5.202565   289A      5.223088  
	 290A      5.239060   291A      5.254713   292A      5.348314  
	 293A      5.386865   294A      5.392992   295A      5.496803  
	 296A      5.505384   297A      5.520171   298A      5.528590  
	 299A      5.548680   300A      5.618330   301A      5.672411  
	 302A      5.729934   303A      5.775420   304A      5.971031  
	 305A      6.057529   306A      6.058687   307A      6.092001  
	 308A      6.167773   309A      6.193788   310A      6.217110  
	 311A      6.285285   312A      6.602979   313A      6.634321  
	 314A      6.642254   315A      6.732602   316A      7.220400  
	 317A      7.643833   318A      7.765144   319A      7.784838  
	 320A      7.876786   321A      8.176087   322A      8.181784  
	 323A     10.335587   324A     16.247290   325A     17.117110  
	 326A     28.050671   327A     28.244436   328A     28.965701  
	 329A     51.687442   330A    161.020743  

	Final Occupation by Irrep:
	          A 
	DOCC [    13 ]

  Energy converged.

  @RHF Final Energy:  -499.14891806089213

   => Energetics <=

    Nuclear Repulsion Energy =             51.4025440819913229
    One-Electron Energy =                -790.2749806821199172
    Two-Electron Energy =                 239.7235185392373467
    DFT Exchange-Correlation Energy =       0.0000000000000000
    Empirical Dispersion Energy =           0.0000000000000000
    Total Energy =                       -499.1489180608912193



Properties will be evaluated at   0.000000,   0.000000,   0.000000 Bohr
  ==> Properties <==


Properties computed using the SCF density density matrix
  Nuclear Dipole Moment: (a.u.)
     X:   101.1522      Y:     5.1542      Z:    -0.0006

  Electronic Dipole Moment: (a.u.)
     X:  -101.3163      Y:    -4.3297      Z:     0.0005

  Dipole Moment: (a.u.)
     X:    -0.1641      Y:     0.8245      Z:    -0.0000     Total:     0.8407

  Dipole Moment: (Debye)
     X:    -0.4171      Y:     2.0957      Z:    -0.0001     Total:     2.1368


  Saving occupied orbitals to File 180.

  Saving SAPT 2-MONOMER_A file.

*** tstop() called on node139.bme.utexas.edu at Fri Jun 20 18:13:04 2014
Module time:
	user time   =      86.90 seconds =       1.45 minutes
	system time =       1.02 seconds =       0.02 minutes
	total time  =         24 seconds =       0.40 minutes
Total time:
	user time   =     201.31 seconds =       3.36 minutes
	system time =       2.47 seconds =       0.04 minutes
	total time  =         55 seconds =       0.92 minutes

  //>>>>>>>>>>>>>>>>>>>>>>>>>>>>>>>>>>>//
  //            Monomer B HF           //
  //<<<<<<<<<<<<<<<<<<<<<<<<<<<<<<<<<<<//


  No DF_BASIS_SCF auxiliary basis selected, defaulting to aug-cc-pvtz-jkfit


*** tstart() called on node139.bme.utexas.edu
*** at Fri Jun 20 18:13:04 2014


         ---------------------------------------------------------
                                   SCF
            by Justin Turney, Rob Parrish, and Andy Simmonett
                              RHF Reference
                        4 Threads,   7000 MiB Core
         ---------------------------------------------------------

  ==> Geometry <==

    Molecular point group: c1
    Full point group: C1

    Geometry (in Angstrom), charge = 0, multiplicity = 1:

       Center              X                  Y                   Z       
    ------------   -----------------  -----------------  -----------------
          CL(Gh)      2.187153562022    -0.538789297522     0.000014550068
           C(Gh)      1.837976562022     1.209242702478    -0.000056449932
           H(Gh)      0.763065562022     1.343617702478    -0.000044449932
           H(Gh)      2.277426562022     1.643864702478    -0.889828449932
           H(Gh)      2.277454562022     1.643942702478     0.889664550068
          CL         -2.187070118978     0.538805591478     0.000033102068
           C         -1.838160118978    -1.209277408522    -0.000048897932
           H         -2.277801118978    -1.643850408522    -0.889750897932
           H         -2.277584118978    -1.643890408522     0.889741102068
           H         -0.763271118978    -1.343836408522    -0.000180897932

  Running in c1 symmetry.

  Nuclear repulsion =   51.402569254535251

  Charge       = 0
  Multiplicity = 1
  Electrons    = 26
  Nalpha       = 13
  Nbeta        = 13

  ==> Algorithm <==

  SCF Algorithm Type is DF.
  DIIS enabled.
  MOM disabled.
  Fractional occupation disabled.
  Guess Type is CORE.
  Energy threshold   = 1.00e-08
  Density threshold  = 1.00e-08
  Integral threshold = 0.00e+00

  ==> Primary Basis <==

  Basis Set: AUG-CC-PVTZ
    Number of shells: 114
    Number of basis function: 330
    Number of Cartesian functions: 378
    Spherical Harmonics?: true
    Max angular momentum: 3

  ==> Pre-Iterations <==

   -------------------------------------------------------
    Irrep   Nso     Nmo     Nalpha   Nbeta   Ndocc  Nsocc
   -------------------------------------------------------
     A        330     330       0       0       0       0
   -------------------------------------------------------
    Total     330     330      13      13      13       0
   -------------------------------------------------------

 OEINTS: Wrapper to libmints.
   by Justin Turney

   Calculation information:
      Number of atoms:                  10
      Number of AO shells:             114
      Number of SO shells:             114
      Number of primitives:            254
      Number of atomic orbitals:       378
      Number of basis functions:       330

      Number of irreps:                  1
      Number of functions per irrep: [ 330 ]

      Overlap, kinetic, potential, dipole, and quadrupole integrals
        stored in file 35.

  ==> Integral Setup <==

  ==> DFJK: Density-Fitted J/K Matrices <==

    J tasked:                  Yes
    K tasked:                  Yes
    wK tasked:                  No
    OpenMP threads:              4
    Integrals threads:           4
    Memory (MB):              5006
    Algorithm:                Core
    Integral Cache:           LOAD
    Schwarz Cutoff:          0E+00
    Fitting Condition:       1E-12

   => Auxiliary Basis Set <=

  Basis Set: aug-cc-pvtz-jkfit
    Number of shells: 228
    Number of basis function: 776
    Number of Cartesian functions: 952
    Spherical Harmonics?: true
    Max angular momentum: 4

  Minimum eigenvalue in the overlap matrix is 4.6634334412E-05.
  Using Symmetric Orthogonalization.
  SCF Guess: Core (One-Electron) Hamiltonian.

  Guess energy:  -378.28260550853139

  ==> Iterations <==

                        Total Energy        Delta E     RMS |[F,P]|

   @RHF iter   1:  -446.80968651276027   -4.46810e+02   2.40625e-02 
   @RHF iter   2:  -364.62397062858423    8.21857e+01   2.57770e-02 DIIS
   @RHF iter   3:  -489.33728837224749   -1.24713e+02   1.12094e-02 DIIS
   @RHF iter   4:  -497.98549108149837   -8.64820e+00   5.36494e-03 DIIS
   @RHF iter   5:  -498.57893591884897   -5.93445e-01   3.23918e-03 DIIS
   @RHF iter   6:  -499.04879811813692   -4.69862e-01   1.16147e-03 DIIS
   @RHF iter   7:  -499.14704667487092   -9.82486e-02   1.63540e-04 DIIS
   @RHF iter   8:  -499.14867334862265   -1.62667e-03   4.26325e-05 DIIS
   @RHF iter   9:  -499.14888733492751   -2.13986e-04   1.25463e-05 DIIS
   @RHF iter  10:  -499.14891620957894   -2.88747e-05   3.09028e-06 DIIS
   @RHF iter  11:  -499.14891798652422   -1.77695e-06   6.35266e-07 DIIS
   @RHF iter  12:  -499.14891804607475   -5.95505e-08   5.28560e-08 DIIS
   @RHF iter  13:  -499.14891804645572   -3.80965e-10   1.07597e-08 DIIS
   @RHF iter  14:  -499.14891804647038   -1.46656e-11   1.90741e-09 DIIS

  ==> Post-Iterations <==

	Orbital Energies (a.u.)
	-----------------------

	Doubly Occupied:                                                      

	   1A   -104.826181     2A    -11.290075     3A    -10.550430  
	   4A     -8.017336     5A     -8.015471     6A     -8.015463  
	   7A     -1.128196     8A     -0.915781     9A     -0.619425  
	  10A     -0.618906    11A     -0.545399    12A     -0.435734  
	  13A     -0.435577  

	Virtual:                                                              

	  14A      0.023712    15A      0.034430    16A      0.042049  
	  17A      0.046506    18A      0.053263    19A      0.062972  
	  20A      0.075281    21A      0.094801    22A      0.105892  
	  23A      0.108246    24A      0.113423    25A      0.123371  
	  26A      0.126329    27A      0.131502    28A      0.141331  
	  29A      0.145433    30A      0.147369    31A      0.155686  
	  32A      0.162637    33A      0.173947    34A      0.194507  
	  35A      0.210802    36A      0.224264    37A      0.238656  
	  38A      0.267230    39A      0.268444    40A      0.274812  
	  41A      0.277936    42A      0.291097    43A      0.298309  
	  44A      0.301436    45A      0.305792    46A      0.307479  
	  47A      0.324039    48A      0.331448    49A      0.341401  
	  50A      0.344149    51A      0.344510    52A      0.354147  
	  53A      0.370092    54A      0.370937    55A      0.394420  
	  56A      0.403066    57A      0.403672    58A      0.413940  
	  59A      0.415346    60A      0.415592    61A      0.426427  
	  62A      0.432145    63A      0.452428    64A      0.454353  
	  65A      0.459715    66A      0.473653    67A      0.480845  
	  68A      0.490990    69A      0.505852    70A      0.512164  
	  71A      0.517990    72A      0.531408    73A      0.534199  
	  74A      0.554095    75A      0.559160    76A      0.586920  
	  77A      0.599946    78A      0.602117    79A      0.608189  
	  80A      0.652246    81A      0.656791    82A      0.662789  
	  83A      0.681334    84A      0.698558    85A      0.707338  
	  86A      0.712446    87A      0.715591    88A      0.719946  
	  89A      0.748978    90A      0.770924    91A      0.785538  
	  92A      0.797136    93A      0.818452    94A      0.829180  
	  95A      0.855433    96A      0.863981    97A      0.892189  
	  98A      0.897411    99A      0.914929   100A      0.938990  
	 101A      0.943334   102A      0.951335   103A      0.952891  
	 104A      0.984168   105A      0.989698   106A      0.993400  
	 107A      0.996176   108A      1.003787   109A      1.025565  
	 110A      1.032339   111A      1.045030   112A      1.053759  
	 113A      1.057642   114A      1.058983   115A      1.065296  
	 116A      1.082672   117A      1.090657   118A      1.095967  
	 119A      1.108455   120A      1.116068   121A      1.117067  
	 122A      1.133266   123A      1.139490   124A      1.139718  
	 125A      1.152773   126A      1.163629   127A      1.173067  
	 128A      1.182122   129A      1.194087   130A      1.209043  
	 131A      1.211071   132A      1.236424   133A      1.250802  
	 134A      1.263283   135A      1.272643   136A      1.277997  
	 137A      1.298154   138A      1.307183   139A      1.329045  
	 140A      1.363976   141A      1.376965   142A      1.380833  
	 143A      1.394111   144A      1.394509   145A      1.408840  
	 146A      1.414286   147A      1.435234   148A      1.454510  
	 149A      1.459185   150A      1.471986   151A      1.500973  
	 152A      1.536606   153A      1.542752   154A      1.552052  
	 155A      1.561779   156A      1.569681   157A      1.573942  
	 158A      1.588243   159A      1.613014   160A      1.613396  
	 161A      1.617702   162A      1.642453   163A      1.662746  
	 164A      1.677585   165A      1.685396   166A      1.711674  
	 167A      1.734664   168A      1.751802   169A      1.757702  
	 170A      1.784229   171A      1.809710   172A      1.828531  
	 173A      1.833023   174A      1.846539   175A      1.891976  
	 176A      1.903675   177A      1.925966   178A      1.942295  
	 179A      1.960823   180A      1.973736   181A      1.996812  
	 182A      2.000055   183A      2.020436   184A      2.021286  
	 185A      2.055473   186A      2.073430   187A      2.090450  
	 188A      2.103595   189A      2.122718   190A      2.157685  
	 191A      2.163740   192A      2.183147   193A      2.218162  
	 194A      2.220356   195A      2.230524   196A      2.289576  
	 197A      2.346044   198A      2.358603   199A      2.508932  
	 200A      2.520419   201A      2.538450   202A      2.573855  
	 203A      2.596584   204A      2.666110   205A      2.674841  
	 206A      2.692953   207A      2.718166   208A      2.724712  
	 209A      2.777351   210A      2.843347   211A      2.939995  
	 212A      2.987731   213A      3.025909   214A      3.047612  
	 215A      3.118287   216A      3.143627   217A      3.161330  
	 218A      3.196611   219A      3.207136   220A      3.255167  
	 221A      3.281093   222A      3.361130   223A      3.381242  
	 224A      3.402916   225A      3.569118   226A      3.570575  
	 227A      3.577637   228A      3.594951   229A      3.612385  
	 230A      3.676423   231A      3.802294   232A      3.808679  
	 233A      3.856983   234A      3.917932   235A      3.927513  
	 236A      3.939634   237A      3.960655   238A      3.974858  
	 239A      3.997427   240A      3.999731   241A      4.046984  
	 242A      4.056420   243A      4.079486   244A      4.081996  
	 245A      4.094039   246A      4.107383   247A      4.129313  
	 248A      4.141859   249A      4.171034   250A      4.174105  
	 251A      4.189742   252A      4.202441   253A      4.222366  
	 254A      4.241927   255A      4.247675   256A      4.290634  
	 257A      4.390608   258A      4.413943   259A      4.456061  
	 260A      4.472467   261A      4.478863   262A      4.506183  
	 263A      4.514379   264A      4.552361   265A      4.557851  
	 266A      4.588123   267A      4.598653   268A      4.626105  
	 269A      4.711200   270A      4.750183   271A      4.768674  
	 272A      4.777091   273A      4.778145   274A      4.793362  
	 275A      4.820550   276A      4.825490   277A      4.871170  
	 278A      4.882496   279A      4.889461   280A      4.890533  
	 281A      4.946636   282A      4.990956   283A      5.006044  
	 284A      5.031263   285A      5.101840   286A      5.110446  
	 287A      5.192141   288A      5.202580   289A      5.223089  
	 290A      5.239064   291A      5.254716   292A      5.348316  
	 293A      5.386873   294A      5.392999   295A      5.496806  
	 296A      5.505409   297A      5.520181   298A      5.528593  
	 299A      5.548727   300A      5.618260   301A      5.672392  
	 302A      5.729938   303A      5.775429   304A      5.971020  
	 305A      6.057533   306A      6.058696   307A      6.091983  
	 308A      6.167772   309A      6.193805   310A      6.217100  
	 311A      6.285308   312A      6.602982   313A      6.634321  
	 314A      6.642245   315A      6.732647   316A      7.220433  
	 317A      7.643909   318A      7.765144   319A      7.784842  
	 320A      7.876778   321A      8.176094   322A      8.181804  
	 323A     10.335630   324A     16.247217   325A     17.116936  
	 326A     28.050660   327A     28.244355   328A     28.965695  
	 329A     51.687793   330A    161.020736  

	Final Occupation by Irrep:
	          A 
	DOCC [    13 ]

  Energy converged.

  @RHF Final Energy:  -499.14891804647038

   => Energetics <=

    Nuclear Repulsion Energy =             51.4025692545352513
    One-Electron Energy =                -790.2750262940761559
    Two-Electron Energy =                 239.7235389930687290
    DFT Exchange-Correlation Energy =       0.0000000000000000
    Empirical Dispersion Energy =           0.0000000000000000
    Total Energy =                       -499.1489180464722040



Properties will be evaluated at   0.000000,   0.000000,   0.000000 Bohr
  ==> Properties <==


Properties computed using the SCF density density matrix
  Nuclear Dipole Moment: (a.u.)
     X:  -101.1529      Y:    -5.1543      Z:     0.0001

  Electronic Dipole Moment: (a.u.)
     X:   101.3169      Y:     4.3298      Z:    -0.0002

  Dipole Moment: (a.u.)
     X:     0.1640      Y:    -0.8245      Z:    -0.0000     Total:     0.8407

  Dipole Moment: (Debye)
     X:     0.4168      Y:    -2.0957      Z:    -0.0001     Total:     2.1368


  Saving occupied orbitals to File 180.

  Saving SAPT 2-MONOMER_B file.

*** tstop() called on node139.bme.utexas.edu at Fri Jun 20 18:13:28 2014
Module time:
	user time   =      86.93 seconds =       1.45 minutes
	system time =       0.89 seconds =       0.01 minutes
	total time  =         24 seconds =       0.40 minutes
Total time:
	user time   =     288.26 seconds =       4.80 minutes
	system time =       3.36 seconds =       0.06 minutes
	total time  =         79 seconds =       1.32 minutes
  No DF_BASIS_SAPT auxiliary basis selected, defaulting to aug-cc-pvtz-ri

  //>>>>>>>>>>>>>>>>>>>>>>>>>>>>>>>>>>>//
  //               SAPT2+              //
  //<<<<<<<<<<<<<<<<<<<<<<<<<<<<<<<<<<<//


*** tstart() called on node139.bme.utexas.edu
*** at Fri Jun 20 18:13:28 2014

        SAPT2+  
    Ed Hohenstein
     6 June 2009

      Orbital Information
  --------------------------
    NSO        =       330
    NMO        =       330
    NRI        =       782
    NOCC A     =        13
    NOCC B     =        13
    FOCC A     =         6
    FOCC B     =         6
    NVIR A     =       317
    NVIR B     =       317

    Estimated memory usage: 1036.2 MB

    Elst10,r            =    -0.003230580290 H
    Exch10 (S^2)        =     0.002398685154 H
    Exch10              =     0.002400662195 H
    Ind20,r (A<-B)      =    -0.000408318798 H
    Ind20,r (B<-A)      =    -0.000408347726 H
    Ind20,r             =    -0.000816666524 H
    Exch-Ind20,r (A<-B) =     0.000225014215 H
    Exch-Ind20,r (B<-A) =     0.000224991309 H
    Exch-Ind20,r        =     0.000450005523 H
    Disp20              =    -0.003162626547 H
    Exch-Disp20         =     0.000244167508 H
    Elst12,r            =     0.000255433477 H
    Exch11              =     0.000075872902 H
    Exch12              =     0.000120958310 H
    Ind22               =    -0.000042436711 H
    Disp21              =     0.000259010042 H
    Disp22 (SDQ)        =     0.000140884255 H

    (i =   1 of   7)        229 seconds
    (i =   2 of   7)        459 seconds
    (i =   3 of   7)        689 seconds
    (i =   4 of   7)        918 seconds
    (i =   5 of   7)       1148 seconds
    (i =   6 of   7)       1377 seconds
    (i =   7 of   7)       1607 seconds

    Disp220 (T)         =    -0.000248890024 H

    (i =   1 of   7)        230 seconds
    (i =   2 of   7)        460 seconds
    (i =   3 of   7)        689 seconds
    (i =   4 of   7)        919 seconds
    (i =   5 of   7)       1148 seconds
    (i =   6 of   7)       1378 seconds
    (i =   7 of   7)       1608 seconds

    Disp202 (T)         =    -0.000248894179 H

    Disp22 (T)          =    -0.000497784202 H

    SAPT Results  
  -----------------------------------------------------------------------
    Electrostatics          -2.97514681 mH      -1.86693289 kcal mol^-1
      Elst10,r              -3.23058029 mH      -2.02721982 kcal mol^-1
      Elst12,r               0.25543348 mH       0.16028693 kcal mol^-1

    Exchange                 2.59749341 mH       1.62995179 kcal mol^-1
      Exch10                 2.40066219 mH       1.50643833 kcal mol^-1
      Exch10(S^2)            2.39868515 mH       1.50519772 kcal mol^-1
      Exch11(S^2)            0.07587290 mH       0.04761097 kcal mol^-1
      Exch12(S^2)            0.12095831 mH       0.07590249 kcal mol^-1

    Induction               -0.61853093 mH      -0.38813403 kcal mol^-1
      Ind20,r               -0.81666652 mH      -0.51246600 kcal mol^-1
      Ind22                 -0.04243671 mH      -0.02662944 kcal mol^-1
      Exch-Ind20,r           0.45000552 mH       0.28238274 kcal mol^-1
      Exch-Ind22             0.02338378 mH       0.01467355 kcal mol^-1
      delta HF,r (2)        -0.23281700 mH      -0.14609488 kcal mol^-1

    Dispersion              -3.01634894 mH      -1.89278762 kcal mol^-1
      Disp20                -3.16262655 mH      -1.98457820 kcal mol^-1
      Disp21                 0.25901004 mH       0.16253126 kcal mol^-1
      Disp22 (SDQ)           0.14088425 mH       0.08840621 kcal mol^-1
      Disp22 (T)            -0.49778420 mH      -0.31236432 kcal mol^-1
      Exch-Disp20            0.24416751 mH       0.15321743 kcal mol^-1

    Total HF                -1.42939610 mH      -0.89695963 kcal mol^-1
    Total SAPT0             -4.34785514 mH      -2.72832040 kcal mol^-1
    Total SAPT2             -3.91464337 mH      -2.45647591 kcal mol^-1
    Total SAPT2+            -4.01253328 mH      -2.51790275 kcal mol^-1

*** tstop() called on node139.bme.utexas.edu at Fri Jun 20 19:29:10 2014
Module time:
	user time   =   17574.88 seconds =     292.91 minutes
	system time =      88.82 seconds =       1.48 minutes
	total time  =       4542 seconds =      75.70 minutes
Total time:
	user time   =   17863.15 seconds =     297.72 minutes
	system time =      92.18 seconds =       1.54 minutes
	total time  =       4621 seconds =      77.02 minutes

*** PSI4 exiting successfully. Buy a developer a beer!
