    -----------------------------------------------------------------------
          PSI4: An Open-Source Ab Initio Electronic Structure Package
                              PSI 4.0.0-beta4 Driver

    J. M. Turney, A. C. Simmonett, R. M. Parrish, E. G. Hohenstein,
    F. A. Evangelista, J. T. Fermann, B. J. Mintz, L. A. Burns, J. J. Wilke,
    M. L. Abrams, N. J. Russ, M. L. Leininger, C. L. Janssen, E. T. Seidl,
    W. D. Allen, H. F. Schaefer, R. A. King, E. F. Valeev, C. D. Sherrill,
    and T. D. Crawford, WIREs Comput. Mol. Sci., (2011) (doi: 10.1002/wcms.93)

                         Additional Contributions by
    A. E. DePrince, M. Saitow, U. Bozkaya, A. Yu. Sokolov
    -----------------------------------------------------------------------

    Process ID:   7969
    PSI4DATADIR: /home/xzhu216/psi4/psi4-install/share/psi

    Using LocalCommunicator (Number of processes = 1)

    Memory level set to 256.000 MB

  ==> Input File <==

--------------------------------------------------------------------------
#psi4
#
memory 7 gb

molecule MeCl_MeCl {
0 1
   Cl    -1.010165000     0.000009000     0.000000000
    C    -2.790218000     0.000024000     0.000000000
    H    -3.133660000     1.027425000     0.000000000
    H    -3.133673000    -0.513673000     0.889753000
    H    -3.133673000    -0.513673000    -0.889753000
--
0 1
   Cl     3.199973251     0.000015389     0.000000000
    C     1.420040251     0.000017389     0.000000000
    H     1.073866251     1.026626389     0.000000000
    H     1.073865251    -0.513286611     0.889069000
    H     1.073865251    -0.513286611    -0.889069000
units angstrom
no_reorient  #important for SAPT in psi4, default
symmetry c1  #important for SAPT in psi4, default
}

set {
basis aug-cc-pVTZ
scf_type DF
freeze_core True
}
energy('sapt2+')
--------------------------------------------------------------------------

  Memory set to   7.000 GiB by Python script.

  //>>>>>>>>>>>>>>>>>>>>>>>>>>>>>>>>>>>//
  //              Dimer HF             //
  //<<<<<<<<<<<<<<<<<<<<<<<<<<<<<<<<<<<//


  No DF_BASIS_SCF auxiliary basis selected, defaulting to aug-cc-pvtz-jkfit


*** tstart() called on node33.bme.utexas.edu
*** at Mon Jun 23 10:51:01 2014


         ---------------------------------------------------------
                                   SCF
            by Justin Turney, Rob Parrish, and Andy Simmonett
                              RHF Reference
                        4 Threads,   7000 MiB Core
         ---------------------------------------------------------

  ==> Geometry <==

    Molecular point group: c1
    Full point group: C1

    Geometry (in Angstrom), charge = 0, multiplicity = 1:

       Center              X                  Y                   Z       
    ------------   -----------------  -----------------  -----------------
          CL         -1.549299585407    -0.000005829521     0.000000000000
           C         -3.329352585407     0.000009170479     0.000000000000
           H         -3.672794585407     1.027410170479     0.000000000000
           H         -3.672807585407    -0.513687829521     0.889753000000
           H         -3.672807585407    -0.513687829521    -0.889753000000
          CL          2.660838665593     0.000000559479     0.000000000000
           C          0.880905665593     0.000002559479     0.000000000000
           H          0.534731665593     1.026611559479     0.000000000000
           H          0.534730665593    -0.513301440521     0.889069000000
           H          0.534730665593    -0.513301440521    -0.889069000000

  Running in c1 symmetry.

  Nuclear repulsion =  196.277550297142454

  Charge       = 0
  Multiplicity = 1
  Electrons    = 52
  Nalpha       = 26
  Nbeta        = 26

  ==> Algorithm <==

  SCF Algorithm Type is DF.
  DIIS enabled.
  MOM disabled.
  Fractional occupation disabled.
  Guess Type is CORE.
  Energy threshold   = 1.00e-08
  Density threshold  = 1.00e-08
  Integral threshold = 0.00e+00

  ==> Primary Basis <==

  Basis Set: AUG-CC-PVTZ
    Number of shells: 114
    Number of basis function: 330
    Number of Cartesian functions: 378
    Spherical Harmonics?: true
    Max angular momentum: 3

  ==> Pre-Iterations <==

   -------------------------------------------------------
    Irrep   Nso     Nmo     Nalpha   Nbeta   Ndocc  Nsocc
   -------------------------------------------------------
     A        330     330       0       0       0       0
   -------------------------------------------------------
    Total     330     330      26      26      26       0
   -------------------------------------------------------

 OEINTS: Wrapper to libmints.
   by Justin Turney

   Calculation information:
      Number of atoms:                  10
      Number of AO shells:             114
      Number of SO shells:             114
      Number of primitives:            254
      Number of atomic orbitals:       378
      Number of basis functions:       330

      Number of irreps:                  1
      Number of functions per irrep: [ 330 ]

      Overlap, kinetic, potential, dipole, and quadrupole integrals
        stored in file 35.

  ==> Integral Setup <==

  ==> DFJK: Density-Fitted J/K Matrices <==

    J tasked:                  Yes
    K tasked:                  Yes
    wK tasked:                  No
    OpenMP threads:              4
    Integrals threads:           4
    Memory (MB):              5006
    Algorithm:                Core
    Integral Cache:           SAVE
    Schwarz Cutoff:          0E+00
    Fitting Condition:       1E-12

   => Auxiliary Basis Set <=

  Basis Set: aug-cc-pvtz-jkfit
    Number of shells: 228
    Number of basis function: 776
    Number of Cartesian functions: 952
    Spherical Harmonics?: true
    Max angular momentum: 4

  Minimum eigenvalue in the overlap matrix is 3.2399228391E-05.
  Using Symmetric Orthogonalization.
  SCF Guess: Core (One-Electron) Hamiltonian.

  Guess energy:  -757.58019796105100

  ==> Iterations <==

                        Total Energy        Delta E     RMS |[F,P]|

   @RHF iter   1:  -889.72247332592747   -8.89722e+02   3.53929e-02 
   @RHF iter   2:  -846.19218303182447    4.35303e+01   3.07449e-02 DIIS
   @RHF iter   3:  -980.02225612030884   -1.33830e+02   1.22937e-02 DIIS
   @RHF iter   4:  -927.42607669051972    5.25962e+01   2.25451e-02 DIIS
   @RHF iter   5:  -990.39401059360011   -6.29679e+01   7.63822e-03 DIIS
   @RHF iter   6:  -991.35919483047701   -9.65184e-01   6.93811e-03 DIIS
   @RHF iter   7:  -998.11124958025016   -6.75205e+00   1.74629e-03 DIIS
   @RHF iter   8:  -998.23225973060948   -1.21010e-01   7.11814e-04 DIIS
   @RHF iter   9:  -998.25574343241260   -2.34837e-02   3.11730e-04 DIIS
   @RHF iter  10:  -998.26197977393508   -6.23634e-03   1.38173e-04 DIIS
   @RHF iter  11:  -998.26382673193348   -1.84696e-03   4.41828e-05 DIIS
   @RHF iter  12:  -998.26402826712342   -2.01535e-04   1.26626e-05 DIIS
   @RHF iter  13:  -998.26405094693564   -2.26798e-05   3.71772e-06 DIIS
   @RHF iter  14:  -998.26405300543638   -2.05850e-06   1.11502e-06 DIIS
   @RHF iter  15:  -998.26405319990613   -1.94470e-07   2.13763e-07 DIIS
   @RHF iter  16:  -998.26405320764025   -7.73412e-09   5.76667e-08 DIIS
   @RHF iter  17:  -998.26405320812137   -4.81123e-10   9.83671e-09 DIIS

  ==> Post-Iterations <==

	Orbital Energies (a.u.)
	-----------------------

	Doubly Occupied:                                                      

	   1A   -104.834204     2A   -104.811920     3A    -11.293925  
	   4A    -11.273871     5A    -10.560483     6A    -10.536524  
	   7A     -8.027304     8A     -8.025029     9A     -8.025029  
	  10A     -8.003417    11A     -8.001623    12A     -8.001623  
	  13A     -1.147766    14A     -1.115021    15A     -0.947797  
	  16A     -0.891029    17A     -0.629031    18A     -0.629031  
	  19A     -0.610407    20A     -0.610407    21A     -0.586587  
	  22A     -0.498902    23A     -0.453696    24A     -0.453696  
	  25A     -0.417448    26A     -0.417448  

	Virtual:                                                              

	  27A      0.022217    28A      0.040653    29A      0.040653  
	  30A      0.045354    31A      0.062208    32A      0.062208  
	  33A      0.077092    34A      0.099879    35A      0.114231  
	  36A      0.114231    37A      0.122594    38A      0.145203  
	  39A      0.145203    40A      0.149087    41A      0.149087  
	  42A      0.150793    43A      0.160547    44A      0.180857  
	  45A      0.180858    46A      0.193627    47A      0.207844  
	  48A      0.207845    49A      0.217296    50A      0.217296  
	  51A      0.245294    52A      0.261191    53A      0.281939  
	  54A      0.290817    55A      0.290817    56A      0.308345  
	  57A      0.308346    58A      0.314801    59A      0.320152  
	  60A      0.328746    61A      0.331622    62A      0.331622  
	  63A      0.350037    64A      0.350619    65A      0.350619  
	  66A      0.362078    67A      0.383223    68A      0.395939  
	  69A      0.395939    70A      0.401548    71A      0.408217  
	  72A      0.408217    73A      0.416537    74A      0.442818  
	  75A      0.442818    76A      0.448954    77A      0.448954  
	  78A      0.460349    79A      0.463962    80A      0.463962  
	  81A      0.494174    82A      0.495353    83A      0.495353  
	  84A      0.511352    85A      0.511352    86A      0.524374  
	  87A      0.524375    88A      0.574356    89A      0.580046  
	  90A      0.580047    91A      0.581857    92A      0.581859  
	  93A      0.583180    94A      0.682270    95A      0.687566  
	  96A      0.687566    97A      0.755062    98A      0.759372  
	  99A      0.761548   100A      0.761549   101A      0.792483  
	 102A      0.792484   103A      0.797795   104A      0.828086  
	 105A      0.828087   106A      0.844154   107A      0.861148  
	 108A      0.876871   109A      0.876871   110A      0.880721  
	 111A      0.892183   112A      0.892183   113A      0.900279  
	 114A      0.900280   115A      0.908708   116A      0.913051  
	 117A      0.913051   118A      0.948099   119A      0.965325  
	 120A      0.979528   121A      0.979529   122A      0.980935  
	 123A      0.981517   124A      0.981518   125A      0.989294  
	 126A      0.994839   127A      1.024609   128A      1.024609  
	 129A      1.048669   130A      1.048670   131A      1.052841  
	 132A      1.095162   133A      1.095163   134A      1.105361  
	 135A      1.123956   136A      1.123957   137A      1.127578  
	 138A      1.127578   139A      1.137175   140A      1.137175  
	 141A      1.145057   142A      1.167296   143A      1.172980  
	 144A      1.172981   145A      1.202652   146A      1.208526  
	 147A      1.208526   148A      1.250369   149A      1.250369  
	 150A      1.255724   151A      1.258830   152A      1.292734  
	 153A      1.292735   154A      1.326404   155A      1.327240  
	 156A      1.327243   157A      1.399374   158A      1.406839  
	 159A      1.416878   160A      1.416878   161A      1.450076  
	 162A      1.492212   163A      1.492213   164A      1.518856  
	 165A      1.566225   166A      1.566229   167A      1.587276  
	 168A      1.587692   169A      1.587692   170A      1.617161  
	 171A      1.617161   172A      1.626358   173A      1.629596  
	 174A      1.655073   175A      1.670131   176A      1.679205  
	 177A      1.695114   178A      1.695115   179A      1.711338  
	 180A      1.711340   181A      1.757433   182A      1.781986  
	 183A      1.803899   184A      1.803899   185A      1.837029  
	 186A      1.843644   187A      1.843644   188A      1.861494  
	 189A      1.861494   190A      1.918458   191A      1.918459  
	 192A      1.935284   193A      1.945688   194A      1.988018  
	 195A      1.988021   196A      2.027355   197A      2.027356  
	 198A      2.059799   199A      2.095663   200A      2.145890  
	 201A      2.145890   202A      2.159031   203A      2.159032  
	 204A      2.221519   205A      2.249560   206A      2.249560  
	 207A      2.254318   208A      2.254320   209A      2.276200  
	 210A      2.368844   211A      2.563584   212A      2.652934  
	 213A      2.652934   214A      2.662586   215A      2.694359  
	 216A      2.694359   217A      2.725260   218A      2.725260  
	 219A      2.820083   220A      2.845720   221A      2.845720  
	 222A      2.925225   223A      3.029169   224A      3.029170  
	 225A      3.045836   226A      3.086250   227A      3.086250  
	 228A      3.091358   229A      3.118437   230A      3.149381  
	 231A      3.161592   232A      3.188309   233A      3.188310  
	 234A      3.190417   235A      3.230556   236A      3.267044  
	 237A      3.267044   238A      3.273872   239A      3.323867  
	 240A      3.323868   241A      3.352770   242A      3.352771  
	 243A      3.360965   244A      3.440017   245A      3.440018  
	 246A      3.537684   247A      3.537684   248A      3.538453  
	 249A      3.561574   250A      3.573476   251A      3.577131  
	 252A      3.577132   253A      3.623561   254A      3.623562  
	 255A      3.683540   256A      3.683541   257A      3.685057  
	 258A      3.733032   259A      3.733032   260A      3.824118  
	 261A      3.824119   262A      3.913613   263A      3.913614  
	 264A      3.926117   265A      3.926118   266A      3.953507  
	 267A      3.953507   268A      3.967639   269A      4.026894  
	 270A      4.055210   271A      4.099029   272A      4.099029  
	 273A      4.121521   274A      4.121521   275A      4.134546  
	 276A      4.205140   277A      4.209230   278A      4.209232  
	 279A      4.248631   280A      4.345921   281A      4.345924  
	 282A      4.417861   283A      4.471751   284A      4.471752  
	 285A      4.532152   286A      4.607855   287A      4.607855  
	 288A      4.643629   289A      4.731112   290A      4.746163  
	 291A      4.746164   292A      4.822082   293A      4.822082  
	 294A      4.877900   295A      4.890006   296A      4.891091  
	 297A      4.986954   298A      4.986955   299A      5.068739  
	 300A      5.101262   301A      5.101262   302A      5.158729  
	 303A      5.195717   304A      5.195718   305A      5.226216  
	 306A      5.226217   307A      5.244200   308A      5.375566  
	 309A      5.516940   310A      5.516941   311A      5.564528  
	 312A      5.564528   313A      5.601412   314A      5.639103  
	 315A      5.646141   316A      5.666279   317A      5.972326  
	 318A      5.996014   319A      6.054594   320A      6.054595  
	 321A      6.095793   322A      6.095793   323A      6.624447  
	 324A      6.624448   325A      6.661891   326A      6.661892  
	 327A      7.951739   328A      8.094872   329A     17.009108  
	 330A     17.817372  

	Final Occupation by Irrep:
	          A 
	DOCC [    26 ]

  Energy converged.

  @RHF Final Energy:  -998.26405320812137

   => Energetics <=

    Nuclear Repulsion Energy =            196.2775502971424544
    One-Electron Energy =               -1767.4767741127407135
    Two-Electron Energy =                 572.9351706074769481
    DFT Exchange-Correlation Energy =       0.0000000000000000
    Empirical Dispersion Energy =           0.0000000000000000
    Total Energy =                       -998.2640532081213678



Properties will be evaluated at   0.000000,   0.000000,   0.000000 Bohr
  ==> Properties <==


Properties computed using the SCF density density matrix
  Nuclear Dipole Moment: (a.u.)
     X:    -9.8431      Y:     0.0000      Z:     0.0000

  Electronic Dipole Moment: (a.u.)
     X:     8.0689      Y:    -0.0000      Z:    -0.0000

  Dipole Moment: (a.u.)
     X:    -1.7742      Y:     0.0000      Z:    -0.0000     Total:     1.7742

  Dipole Moment: (Debye)
     X:    -4.5096      Y:     0.0000      Z:    -0.0000     Total:     4.5096


  Saving occupied orbitals to File 180.

  Saving SAPT 2-DIMER file.

*** tstop() called on node33.bme.utexas.edu at Mon Jun 23 10:52:01 2014
Module time:
	user time   =     216.05 seconds =       3.60 minutes
	system time =       3.78 seconds =       0.06 minutes
	total time  =         60 seconds =       1.00 minutes
Total time:
	user time   =     216.05 seconds =       3.60 minutes
	system time =       3.78 seconds =       0.06 minutes
	total time  =         60 seconds =       1.00 minutes

  //>>>>>>>>>>>>>>>>>>>>>>>>>>>>>>>>>>>//
  //            Monomer A HF           //
  //<<<<<<<<<<<<<<<<<<<<<<<<<<<<<<<<<<<//


  No DF_BASIS_SCF auxiliary basis selected, defaulting to aug-cc-pvtz-jkfit


*** tstart() called on node33.bme.utexas.edu
*** at Mon Jun 23 10:52:01 2014


         ---------------------------------------------------------
                                   SCF
            by Justin Turney, Rob Parrish, and Andy Simmonett
                              RHF Reference
                        4 Threads,   7000 MiB Core
         ---------------------------------------------------------

  ==> Geometry <==

    Molecular point group: c1
    Full point group: C1

    Geometry (in Angstrom), charge = 0, multiplicity = 1:

       Center              X                  Y                   Z       
    ------------   -----------------  -----------------  -----------------
          CL         -1.549299585407    -0.000005829521     0.000000000000
           C         -3.329352585407     0.000009170479     0.000000000000
           H         -3.672794585407     1.027410170479     0.000000000000
           H         -3.672807585407    -0.513687829521     0.889753000000
           H         -3.672807585407    -0.513687829521    -0.889753000000
          CL(Gh)      2.660838665593     0.000000559479     0.000000000000
           C(Gh)      0.880905665593     0.000002559479     0.000000000000
           H(Gh)      0.534731665593     1.026611559479     0.000000000000
           H(Gh)      0.534730665593    -0.513301440521     0.889069000000
           H(Gh)      0.534730665593    -0.513301440521    -0.889069000000

  Running in c1 symmetry.

  Nuclear repulsion =   51.448254980077692

  Charge       = 0
  Multiplicity = 1
  Electrons    = 26
  Nalpha       = 13
  Nbeta        = 13

  ==> Algorithm <==

  SCF Algorithm Type is DF.
  DIIS enabled.
  MOM disabled.
  Fractional occupation disabled.
  Guess Type is CORE.
  Energy threshold   = 1.00e-08
  Density threshold  = 1.00e-08
  Integral threshold = 0.00e+00

  ==> Primary Basis <==

  Basis Set: AUG-CC-PVTZ
    Number of shells: 114
    Number of basis function: 330
    Number of Cartesian functions: 378
    Spherical Harmonics?: true
    Max angular momentum: 3

  ==> Pre-Iterations <==

   -------------------------------------------------------
    Irrep   Nso     Nmo     Nalpha   Nbeta   Ndocc  Nsocc
   -------------------------------------------------------
     A        330     330       0       0       0       0
   -------------------------------------------------------
    Total     330     330      13      13      13       0
   -------------------------------------------------------

 OEINTS: Wrapper to libmints.
   by Justin Turney

   Calculation information:
      Number of atoms:                  10
      Number of AO shells:             114
      Number of SO shells:             114
      Number of primitives:            254
      Number of atomic orbitals:       378
      Number of basis functions:       330

      Number of irreps:                  1
      Number of functions per irrep: [ 330 ]

      Overlap, kinetic, potential, dipole, and quadrupole integrals
        stored in file 35.

  ==> Integral Setup <==

  ==> DFJK: Density-Fitted J/K Matrices <==

    J tasked:                  Yes
    K tasked:                  Yes
    wK tasked:                  No
    OpenMP threads:              4
    Integrals threads:           4
    Memory (MB):              5006
    Algorithm:                Core
    Integral Cache:           LOAD
    Schwarz Cutoff:          0E+00
    Fitting Condition:       1E-12

   => Auxiliary Basis Set <=

  Basis Set: aug-cc-pvtz-jkfit
    Number of shells: 228
    Number of basis function: 776
    Number of Cartesian functions: 952
    Spherical Harmonics?: true
    Max angular momentum: 4

  Minimum eigenvalue in the overlap matrix is 3.2399228391E-05.
  Using Symmetric Orthogonalization.
  SCF Guess: Core (One-Electron) Hamiltonian.

  Guess energy:  -378.45214373680204

  ==> Iterations <==

                        Total Energy        Delta E     RMS |[F,P]|

   @RHF iter   1:  -446.12610446515635   -4.46126e+02   2.48763e-02 
   @RHF iter   2:  -364.60781004403566    8.15183e+01   2.58427e-02 DIIS
   @RHF iter   3:  -487.52808054303551   -1.22920e+02   1.26989e-02 DIIS
   @RHF iter   4:  -497.94745729694188   -1.04194e+01   5.74163e-03 DIIS
   @RHF iter   5:  -498.40609765491200   -4.58640e-01   3.67229e-03 DIIS
   @RHF iter   6:  -499.02090732141613   -6.14810e-01   1.35184e-03 DIIS
   @RHF iter   7:  -499.14630851467990   -1.25401e-01   1.93389e-04 DIIS
   @RHF iter   8:  -499.14861482199723   -2.30631e-03   5.30216e-05 DIIS
   @RHF iter   9:  -499.14895253203935   -3.37710e-04   1.53960e-05 DIIS
   @RHF iter  10:  -499.14899614070049   -4.36087e-05   3.81529e-06 DIIS
   @RHF iter  11:  -499.14899877182251   -2.63112e-06   7.54374e-07 DIIS
   @RHF iter  12:  -499.14899885552410   -8.37016e-08   9.05781e-08 DIIS
   @RHF iter  13:  -499.14899885637493   -8.50832e-10   1.46915e-08 DIIS
   @RHF iter  14:  -499.14899885640699   -3.20597e-11   3.75051e-09 DIIS

  ==> Post-Iterations <==

	Orbital Energies (a.u.)
	-----------------------

	Doubly Occupied:                                                      

	   1A   -104.826532     2A    -11.289697     3A    -10.550662  
	   4A     -8.017536     5A     -8.015727     6A     -8.015727  
	   7A     -1.128821     8A     -0.915693     9A     -0.618958  
	  10A     -0.618957    11A     -0.546247    12A     -0.435670  
	  13A     -0.435670  

	Virtual:                                                              

	  14A      0.026913    15A      0.037299    16A      0.044453  
	  17A      0.044453    18A      0.061173    19A      0.061173  
	  20A      0.069291    21A      0.098516    22A      0.117612  
	  23A      0.117881    24A      0.117881    25A      0.127488  
	  26A      0.127488    27A      0.130821    28A      0.147444  
	  29A      0.147444    30A      0.156314    31A      0.185798  
	  32A      0.185799    33A      0.193928    34A      0.214044  
	  35A      0.214045    36A      0.225975    37A      0.238291  
	  38A      0.238291    39A      0.249559    40A      0.279286  
	  41A      0.293905    42A      0.293906    43A      0.304831  
	  44A      0.325006    45A      0.325006    46A      0.328997  
	  47A      0.332101    48A      0.332101    49A      0.337717  
	  50A      0.346422    51A      0.346423    52A      0.372054  
	  53A      0.377273    54A      0.393259    55A      0.398044  
	  56A      0.398045    57A      0.411585    58A      0.421848  
	  59A      0.430527    60A      0.430527    61A      0.451865  
	  62A      0.451865    63A      0.467565    64A      0.467565  
	  65A      0.467909    66A      0.495311    67A      0.496690  
	  68A      0.496691    69A      0.501643    70A      0.501644  
	  71A      0.519005    72A      0.519005    73A      0.561968  
	  74A      0.570976    75A      0.590315    76A      0.590315  
	  77A      0.605322    78A      0.605323    79A      0.617280  
	  80A      0.619790    81A      0.619791    82A      0.672145  
	  83A      0.680562    84A      0.680562    85A      0.689383  
	  86A      0.689383    87A      0.749140    88A      0.768303  
	  89A      0.786635    90A      0.786636    91A      0.810660  
	  92A      0.810660    93A      0.866398    94A      0.870384  
	  95A      0.893209    96A      0.893209    97A      0.908388  
	  98A      0.932814    99A      0.932814   100A      0.954122  
	 101A      0.959371   102A      0.989376   103A      0.989377  
	 104A      0.993600   105A      1.014543   106A      1.026244  
	 107A      1.026244   108A      1.031979   109A      1.046771  
	 110A      1.046772   111A      1.049850   112A      1.069180  
	 113A      1.069181   114A      1.087580   115A      1.087580  
	 116A      1.094825   117A      1.129329   118A      1.129330  
	 119A      1.139478   120A      1.145765   121A      1.145765  
	 122A      1.170412   123A      1.180271   124A      1.180271  
	 125A      1.196695   126A      1.200217   127A      1.200218  
	 128A      1.236821   129A      1.240774   130A      1.240774  
	 131A      1.264658   132A      1.277708   133A      1.277709  
	 134A      1.315104   135A      1.315104   136A      1.317724  
	 137A      1.319619   138A      1.367993   139A      1.374250  
	 140A      1.374253   141A      1.401651   142A      1.401652  
	 143A      1.413665   144A      1.413665   145A      1.416065  
	 146A      1.446367   147A      1.471192   148A      1.471192  
	 149A      1.485778   150A      1.519837   151A      1.519837  
	 152A      1.533384   153A      1.569659   154A      1.569660  
	 155A      1.589632   156A      1.589632   157A      1.610921  
	 158A      1.610921   159A      1.636024   160A      1.637932  
	 161A      1.657667   162A      1.675466   163A      1.675468  
	 164A      1.686017   165A      1.749510   166A      1.749511  
	 167A      1.751492   168A      1.775055   169A      1.803554  
	 170A      1.815090   171A      1.815093   172A      1.852299  
	 173A      1.923155   174A      1.923155   175A      1.952143  
	 176A      1.987219   177A      1.987219   178A      1.994167  
	 179A      2.021761   180A      2.021762   181A      2.040534  
	 182A      2.044779   183A      2.044779   184A      2.092236  
	 185A      2.092237   186A      2.152534   187A      2.165981  
	 188A      2.165982   189A      2.168510   190A      2.197386  
	 191A      2.242229   192A      2.242231   193A      2.308731  
	 194A      2.326016   195A      2.326016   196A      2.342263  
	 197A      2.387865   198A      2.387867   199A      2.535573  
	 200A      2.535573   201A      2.550187   202A      2.628195  
	 203A      2.713132   204A      2.713132   205A      2.732640  
	 206A      2.732641   207A      2.746923   208A      2.947492  
	 209A      2.949013   210A      2.949014   211A      3.044756  
	 212A      3.053153   213A      3.053154   214A      3.129375  
	 215A      3.163220   216A      3.232277   217A      3.326486  
	 218A      3.326488   219A      3.374807   220A      3.381179  
	 221A      3.381179   222A      3.465716   223A      3.465716  
	 224A      3.544051   225A      3.568040   226A      3.583090  
	 227A      3.583091   228A      3.644919   229A      3.644920  
	 230A      3.706515   231A      3.818990   232A      3.818991  
	 233A      3.882835   234A      3.924469   235A      3.924470  
	 236A      3.942596   237A      3.956040   238A      3.956040  
	 239A      4.006613   240A      4.037195   241A      4.056047  
	 242A      4.056047   243A      4.086086   244A      4.100581  
	 245A      4.111291   246A      4.111291   247A      4.130759  
	 248A      4.179359   249A      4.179359   250A      4.236440  
	 251A      4.245701   252A      4.245702   253A      4.278787  
	 254A      4.278791   255A      4.385100   256A      4.385102  
	 257A      4.421641   258A      4.471129   259A      4.480980  
	 260A      4.480980   261A      4.533399   262A      4.533399  
	 263A      4.539837   264A      4.583094   265A      4.583094  
	 266A      4.666834   267A      4.736399   268A      4.736401  
	 269A      4.752330   270A      4.752330   271A      4.757297  
	 272A      4.757298   273A      4.787290   274A      4.855354  
	 275A      4.861227   276A      4.861229   277A      4.889678  
	 278A      4.943325   279A      4.948738   280A      4.948739  
	 281A      5.006872   282A      5.015159   283A      5.015160  
	 284A      5.172753   285A      5.172753   286A      5.174840  
	 287A      5.219250   288A      5.219251   289A      5.253282  
	 290A      5.257606   291A      5.361629   292A      5.460246  
	 293A      5.460248   294A      5.522923   295A      5.522924  
	 296A      5.529410   297A      5.529411   298A      5.540780  
	 299A      5.593212   300A      5.652421   301A      5.671035  
	 302A      5.761730   303A      5.761730   304A      5.983098  
	 305A      6.060806   306A      6.060807   307A      6.086928  
	 308A      6.201276   309A      6.201277   310A      6.274007  
	 311A      6.340673   312A      6.632254   313A      6.632255  
	 314A      6.713806   315A      6.713806   316A      7.204858  
	 317A      7.808299   318A      7.808300   319A      7.924209  
	 320A      8.168752   321A      8.228550   322A      8.228552  
	 323A     10.569187   324A     16.667328   325A     17.029792  
	 326A     28.121920   327A     28.121921   328A     29.036032  
	 329A     52.895252   330A    161.074514  

	Final Occupation by Irrep:
	          A 
	DOCC [    13 ]

  Energy converged.

  @RHF Final Energy:  -499.14899885640699

   => Energetics <=

    Nuclear Repulsion Energy =             51.4482549800776923
    One-Electron Energy =                -790.3627137701668062
    Two-Electron Energy =                 239.7654599336834167
    DFT Exchange-Correlation Energy =       0.0000000000000000
    Empirical Dispersion Energy =           0.0000000000000000
    Total Energy =                       -499.1489988564057398



Properties will be evaluated at   0.000000,   0.000000,   0.000000 Bohr
  ==> Properties <==


Properties computed using the SCF density density matrix
  Nuclear Dipole Moment: (a.u.)
     X:  -108.3429      Y:    -0.0000      Z:     0.0000

  Electronic Dipole Moment: (a.u.)
     X:   107.5061      Y:     0.0000      Z:     0.0000

  Dipole Moment: (a.u.)
     X:    -0.8369      Y:     0.0000      Z:     0.0000     Total:     0.8369

  Dipole Moment: (Debye)
     X:    -2.1271      Y:     0.0000      Z:     0.0000     Total:     2.1271


  Saving occupied orbitals to File 180.

  Saving SAPT 2-MONOMER_A file.

*** tstop() called on node33.bme.utexas.edu at Mon Jun 23 10:52:29 2014
Module time:
	user time   =     100.65 seconds =       1.68 minutes
	system time =       1.61 seconds =       0.03 minutes
	total time  =         28 seconds =       0.47 minutes
Total time:
	user time   =     316.72 seconds =       5.28 minutes
	system time =       5.39 seconds =       0.09 minutes
	total time  =         88 seconds =       1.47 minutes

  //>>>>>>>>>>>>>>>>>>>>>>>>>>>>>>>>>>>//
  //            Monomer B HF           //
  //<<<<<<<<<<<<<<<<<<<<<<<<<<<<<<<<<<<//


  No DF_BASIS_SCF auxiliary basis selected, defaulting to aug-cc-pvtz-jkfit


*** tstart() called on node33.bme.utexas.edu
*** at Mon Jun 23 10:52:29 2014


         ---------------------------------------------------------
                                   SCF
            by Justin Turney, Rob Parrish, and Andy Simmonett
                              RHF Reference
                        4 Threads,   7000 MiB Core
         ---------------------------------------------------------

  ==> Geometry <==

    Molecular point group: c1
    Full point group: C1

    Geometry (in Angstrom), charge = 0, multiplicity = 1:

       Center              X                  Y                   Z       
    ------------   -----------------  -----------------  -----------------
          CL(Gh)     -1.549299585407    -0.000005829521     0.000000000000
           C(Gh)     -3.329352585407     0.000009170479     0.000000000000
           H(Gh)     -3.672794585407     1.027410170479     0.000000000000
           H(Gh)     -3.672807585407    -0.513687829521     0.889753000000
           H(Gh)     -3.672807585407    -0.513687829521    -0.889753000000
          CL          2.660838665593     0.000000559479     0.000000000000
           C          0.880905665593     0.000002559479     0.000000000000
           H          0.534731665593     1.026611559479     0.000000000000
           H          0.534730665593    -0.513301440521     0.889069000000
           H          0.534730665593    -0.513301440521    -0.889069000000

  Running in c1 symmetry.

  Nuclear repulsion =   51.440331583136825

  Charge       = 0
  Multiplicity = 1
  Electrons    = 26
  Nalpha       = 13
  Nbeta        = 13

  ==> Algorithm <==

  SCF Algorithm Type is DF.
  DIIS enabled.
  MOM disabled.
  Fractional occupation disabled.
  Guess Type is CORE.
  Energy threshold   = 1.00e-08
  Density threshold  = 1.00e-08
  Integral threshold = 0.00e+00

  ==> Primary Basis <==

  Basis Set: AUG-CC-PVTZ
    Number of shells: 114
    Number of basis function: 330
    Number of Cartesian functions: 378
    Spherical Harmonics?: true
    Max angular momentum: 3

  ==> Pre-Iterations <==

   -------------------------------------------------------
    Irrep   Nso     Nmo     Nalpha   Nbeta   Ndocc  Nsocc
   -------------------------------------------------------
     A        330     330       0       0       0       0
   -------------------------------------------------------
    Total     330     330      13      13      13       0
   -------------------------------------------------------

 OEINTS: Wrapper to libmints.
   by Justin Turney

   Calculation information:
      Number of atoms:                  10
      Number of AO shells:             114
      Number of SO shells:             114
      Number of primitives:            254
      Number of atomic orbitals:       378
      Number of basis functions:       330

      Number of irreps:                  1
      Number of functions per irrep: [ 330 ]

      Overlap, kinetic, potential, dipole, and quadrupole integrals
        stored in file 35.

  ==> Integral Setup <==

  ==> DFJK: Density-Fitted J/K Matrices <==

    J tasked:                  Yes
    K tasked:                  Yes
    wK tasked:                  No
    OpenMP threads:              4
    Integrals threads:           4
    Memory (MB):              5006
    Algorithm:                Core
    Integral Cache:           LOAD
    Schwarz Cutoff:          0E+00
    Fitting Condition:       1E-12

   => Auxiliary Basis Set <=

  Basis Set: aug-cc-pvtz-jkfit
    Number of shells: 228
    Number of basis function: 776
    Number of Cartesian functions: 952
    Spherical Harmonics?: true
    Max angular momentum: 4

  Minimum eigenvalue in the overlap matrix is 3.2399228391E-05.
  Using Symmetric Orthogonalization.
  SCF Guess: Core (One-Electron) Hamiltonian.

  Guess energy:  -378.29980610459631

  ==> Iterations <==

                        Total Energy        Delta E     RMS |[F,P]|

   @RHF iter   1:  -446.70856249097909   -4.46709e+02   2.44055e-02 
   @RHF iter   2:  -364.61730104785318    8.20913e+01   2.57634e-02 DIIS
   @RHF iter   3:  -488.49794122821794   -1.23881e+02   1.19721e-02 DIIS
   @RHF iter   4:  -497.98140923002842   -9.48347e+00   5.54055e-03 DIIS
   @RHF iter   5:  -498.48296550561776   -5.01556e-01   3.47875e-03 DIIS
   @RHF iter   6:  -499.03521772057235   -5.52252e-01   1.25295e-03 DIIS
   @RHF iter   7:  -499.14663091430958   -1.11413e-01   1.78917e-04 DIIS
   @RHF iter   8:  -499.14858728148050   -1.95637e-03   4.87504e-05 DIIS
   @RHF iter   9:  -499.14887077878342   -2.83497e-04   1.42876e-05 DIIS
   @RHF iter  10:  -499.14890856415667   -3.77854e-05   3.49512e-06 DIIS
   @RHF iter  11:  -499.14891077989222   -2.21574e-06   6.91732e-07 DIIS
   @RHF iter  12:  -499.14891085060646   -7.07142e-08   7.24153e-08 DIIS
   @RHF iter  13:  -499.14891085119297   -5.86510e-10   1.37388e-08 DIIS
   @RHF iter  14:  -499.14891085121673   -2.37605e-11   3.42082e-09 DIIS

  ==> Post-Iterations <==

	Orbital Energies (a.u.)
	-----------------------

	Doubly Occupied:                                                      

	   1A   -104.826620     2A    -11.289696     3A    -10.550853  
	   4A     -8.017764     5A     -8.015896     6A     -8.015896  
	   7A     -1.128856     8A     -0.915855     9A     -0.618614  
	  10A     -0.618614    11A     -0.546690    12A     -0.435782  
	  13A     -0.435782  

	Virtual:                                                              

	  14A      0.018162    15A      0.039353    16A      0.039353  
	  17A      0.042976    18A      0.061018    19A      0.061018  
	  20A      0.068218    21A      0.092971    22A      0.104691  
	  23A      0.106518    24A      0.106518    25A      0.139230  
	  26A      0.139230    27A      0.141535    28A      0.142560  
	  29A      0.142560    30A      0.152574    31A      0.170156  
	  32A      0.170157    33A      0.176648    34A      0.209391  
	  35A      0.209391    36A      0.233107    37A      0.235321  
	  38A      0.235322    39A      0.267046    40A      0.278602  
	  41A      0.292228    42A      0.293690    43A      0.293690  
	  44A      0.318604    45A      0.318605    46A      0.322583  
	  47A      0.327446    48A      0.327446    49A      0.333298  
	  50A      0.342074    51A      0.342075    52A      0.359599  
	  53A      0.365633    54A      0.371969    55A      0.380749  
	  56A      0.380750    57A      0.393923    58A      0.412093  
	  59A      0.413911    60A      0.413911    61A      0.439293  
	  62A      0.439293    63A      0.446410    64A      0.450245  
	  65A      0.450245    66A      0.479641    67A      0.479642  
	  68A      0.479692    69A      0.509041    70A      0.509041  
	  71A      0.518166    72A      0.518167    73A      0.544343  
	  74A      0.544344    75A      0.569855    76A      0.591453  
	  77A      0.620694    78A      0.620694    79A      0.621498  
	  80A      0.662667    81A      0.662667    82A      0.686732  
	  83A      0.686732    84A      0.718293    85A      0.732846  
	  86A      0.732847    87A      0.755466    88A      0.757316  
	  89A      0.757317    90A      0.784980    91A      0.801029  
	  92A      0.828996    93A      0.828997    94A      0.868651  
	  95A      0.879243    96A      0.879243    97A      0.892905  
	  98A      0.906538    99A      0.906539   100A      0.923641  
	 101A      0.937803   102A      0.942381   103A      0.942381  
	 104A      0.953111   105A      0.997123   106A      0.997124  
	 107A      1.014304   108A      1.028898   109A      1.038322  
	 110A      1.038323   111A      1.045038   112A      1.045038  
	 113A      1.064057   114A      1.064057   115A      1.067176  
	 116A      1.086961   117A      1.089401   118A      1.089402  
	 119A      1.110002   120A      1.130492   121A      1.140864  
	 122A      1.140864   123A      1.167551   124A      1.167552  
	 125A      1.167559   126A      1.177486   127A      1.177487  
	 128A      1.204747   129A      1.232782   130A      1.232783  
	 131A      1.233573   132A      1.260251   133A      1.260251  
	 134A      1.268396   135A      1.324214   136A      1.333633  
	 137A      1.333634   138A      1.346859   139A      1.346860  
	 140A      1.348796   141A      1.381636   142A      1.381637  
	 143A      1.389149   144A      1.389150   145A      1.447601  
	 146A      1.447602   147A      1.459934   148A      1.462762  
	 149A      1.521087   150A      1.521089   151A      1.524282  
	 152A      1.561093   153A      1.580632   154A      1.580632  
	 155A      1.595240   156A      1.595240   157A      1.595425  
	 158A      1.607682   159A      1.646661   160A      1.665185  
	 161A      1.665185   162A      1.719580   163A      1.719582  
	 164A      1.729143   165A      1.781627   166A      1.782401  
	 167A      1.793925   168A      1.793925   169A      1.800338  
	 170A      1.800339   171A      1.809868   172A      1.858553  
	 173A      1.882433   174A      1.883689   175A      1.883690  
	 176A      1.932568   177A      1.932570   178A      1.977999  
	 179A      1.992687   180A      2.014225   181A      2.014226  
	 182A      2.049603   183A      2.049603   184A      2.079270  
	 185A      2.079270   186A      2.122773   187A      2.155843  
	 188A      2.203233   189A      2.203234   190A      2.206240  
	 191A      2.218894   192A      2.218895   193A      2.301939  
	 194A      2.301939   195A      2.327188   196A      2.389389  
	 197A      2.389389   198A      2.439338   199A      2.560287  
	 200A      2.574964   201A      2.574966   202A      2.593414  
	 203A      2.651285   204A      2.651286   205A      2.669256  
	 206A      2.700483   207A      2.700483   208A      2.720736  
	 209A      2.720736   210A      2.885533   211A      3.065283  
	 212A      3.073199   213A      3.073199   214A      3.108036  
	 215A      3.113627   216A      3.159505   217A      3.181070  
	 218A      3.181070   219A      3.268437   220A      3.288223  
	 221A      3.288224   222A      3.368299   223A      3.425163  
	 224A      3.425163   225A      3.562099   226A      3.624851  
	 227A      3.624852   228A      3.725466   229A      3.725467  
	 230A      3.727107   231A      3.804031   232A      3.835207  
	 233A      3.835208   234A      3.934478   235A      3.934478  
	 236A      3.949169   237A      4.025825   238A      4.025826  
	 239A      4.038893   240A      4.041555   241A      4.077613  
	 242A      4.077613   243A      4.098652   244A      4.100566  
	 245A      4.100568   246A      4.128414   247A      4.144993  
	 248A      4.144994   249A      4.207089   250A      4.231691  
	 251A      4.231692   252A      4.291144   253A      4.312995  
	 254A      4.313000   255A      4.392138   256A      4.392141  
	 257A      4.395130   258A      4.450561   259A      4.450561  
	 260A      4.456427   261A      4.528553   262A      4.528553  
	 263A      4.599503   264A      4.668185   265A      4.668185  
	 266A      4.675512   267A      4.684028   268A      4.684031  
	 269A      4.775678   270A      4.793725   271A      4.793725  
	 272A      4.812791   273A      4.812791   274A      4.877484  
	 275A      4.884655   276A      4.884655   277A      4.909128  
	 278A      4.914903   279A      4.914904   280A      4.947299  
	 281A      4.985752   282A      5.098229   283A      5.098235  
	 284A      5.161545   285A      5.173937   286A      5.173938  
	 287A      5.219637   288A      5.219637   289A      5.247865  
	 290A      5.280383   291A      5.377866   292A      5.377867  
	 293A      5.445298   294A      5.474585   295A      5.488559  
	 296A      5.488559   297A      5.556182   298A      5.556183  
	 299A      5.592738   300A      5.624993   301A      5.655392  
	 302A      5.747146   303A      5.747147   304A      5.982418  
	 305A      6.089448   306A      6.089448   307A      6.158132  
	 308A      6.158133   309A      6.163074   310A      6.252651  
	 311A      6.452431   312A      6.637814   313A      6.637814  
	 314A      6.651239   315A      6.651240   316A      7.185380  
	 317A      7.778438   318A      7.778438   319A      7.873683  
	 320A      8.026280   321A      8.168494   322A      8.168496  
	 323A     10.304572   324A     16.776419   325A     17.797243  
	 326A     28.129826   327A     28.129828   328A     29.190011  
	 329A     51.482789   330A    161.084681  

	Final Occupation by Irrep:
	          A 
	DOCC [    13 ]

  Energy converged.

  @RHF Final Energy:  -499.14891085121673

   => Energetics <=

    Nuclear Repulsion Energy =             51.4403315831368246
    One-Electron Energy =                -790.3446499084218431
    Two-Electron Energy =                 239.7554074740675674
    DFT Exchange-Correlation Energy =       0.0000000000000000
    Empirical Dispersion Energy =           0.0000000000000000
    Total Energy =                       -499.1489108512174084



Properties will be evaluated at   0.000000,   0.000000,   0.000000 Bohr
  ==> Properties <==


Properties computed using the SCF density density matrix
  Nuclear Dipole Moment: (a.u.)
     X:    98.4999      Y:     0.0001      Z:     0.0000

  Electronic Dipole Moment: (a.u.)
     X:   -99.3361      Y:    -0.0001      Z:    -0.0000

  Dipole Moment: (a.u.)
     X:    -0.8363      Y:     0.0000      Z:    -0.0000     Total:     0.8363

  Dipole Moment: (Debye)
     X:    -2.1256      Y:     0.0000      Z:    -0.0000     Total:     2.1256


  Saving occupied orbitals to File 180.

  Saving SAPT 2-MONOMER_B file.

*** tstop() called on node33.bme.utexas.edu at Mon Jun 23 10:53:00 2014
Module time:
	user time   =     114.89 seconds =       1.91 minutes
	system time =       1.65 seconds =       0.03 minutes
	total time  =         31 seconds =       0.52 minutes
Total time:
	user time   =     431.64 seconds =       7.19 minutes
	system time =       7.04 seconds =       0.12 minutes
	total time  =        119 seconds =       1.98 minutes
  No DF_BASIS_SAPT auxiliary basis selected, defaulting to aug-cc-pvtz-ri

  //>>>>>>>>>>>>>>>>>>>>>>>>>>>>>>>>>>>//
  //               SAPT2+              //
  //<<<<<<<<<<<<<<<<<<<<<<<<<<<<<<<<<<<//


*** tstart() called on node33.bme.utexas.edu
*** at Mon Jun 23 10:53:00 2014

        SAPT2+  
    Ed Hohenstein
     6 June 2009

      Orbital Information
  --------------------------
    NSO        =       330
    NMO        =       330
    NRI        =       782
    NOCC A     =        13
    NOCC B     =        13
    FOCC A     =         6
    FOCC B     =         6
    NVIR A     =       317
    NVIR B     =       317

    Estimated memory usage: 1036.2 MB

    Elst10,r            =    -0.020149588075 H
    Exch10 (S^2)        =     0.060023376632 H
    Exch10              =     0.061329176986 H
    Ind20,r (A<-B)      =    -0.010649507605 H
    Ind20,r (B<-A)      =    -0.018439126359 H
    Ind20,r             =    -0.029088633964 H
    Exch-Ind20,r (A<-B) =     0.009125630906 H
    Exch-Ind20,r (B<-A) =     0.016114865028 H
    Exch-Ind20,r        =     0.025240495934 H
    Disp20              =    -0.019524466387 H
    Exch-Disp20         =     0.003536799679 H
    Elst12,r            =    -0.001450724770 H
    Exch11              =     0.001886830398 H
    Exch12              =     0.000272884868 H
    Ind22               =    -0.001977691089 H
    Disp21              =     0.002161492792 H
    Disp22 (SDQ)        =     0.000929334802 H

    (i =   1 of   7)        374 seconds
    (i =   2 of   7)        794 seconds
    (i =   3 of   7)       1224 seconds
    (i =   4 of   7)       1666 seconds
    (i =   5 of   7)       2026 seconds
    (i =   6 of   7)       2400 seconds
    (i =   7 of   7)       2820 seconds

    Disp220 (T)         =    -0.001404677570 H

    (i =   1 of   7)        439 seconds
    (i =   2 of   7)        869 seconds
    (i =   3 of   7)       1297 seconds
    (i =   4 of   7)       1687 seconds
    (i =   5 of   7)       2097 seconds
    (i =   6 of   7)       2517 seconds
    (i =   7 of   7)       2944 seconds

    Disp202 (T)         =    -0.001256310074 H

    Disp22 (T)          =    -0.002660987644 H

    SAPT Results  
  -----------------------------------------------------------------------
    Electrostatics         -21.60031285 mH     -13.55440151 kcal mol^-1
      Elst10,r             -20.14958808 mH     -12.64405794 kcal mol^-1
      Elst12,r              -1.45072477 mH      -0.91034358 kcal mol^-1

    Exchange                63.48889225 mH      39.83988303 kcal mol^-1
      Exch10                61.32917699 mH      38.48464119 kcal mol^-1
      Exch10(S^2)           60.02337663 mH      37.66523906 kcal mol^-1
      Exch11(S^2)            1.88683040 mH       1.18400400 kcal mol^-1
      Exch12(S^2)            0.27288487 mH       0.17123785 kcal mol^-1

    Induction               -7.58471834 mH      -4.75948281 kcal mol^-1
      Ind20,r              -29.08863396 mH     -18.25339415 kcal mol^-1
      Ind22                 -1.97769109 mH      -1.24101995 kcal mol^-1
      Exch-Ind20,r          25.24049593 mH      15.83865098 kcal mol^-1
      Exch-Ind22             1.71606215 mH       1.07684530 kcal mol^-1
      delta HF,r (2)        -3.47495138 mH      -2.18056500 kcal mol^-1

    Dispersion             -15.55782676 mH      -9.76268409 kcal mol^-1
      Disp20               -19.52446639 mH     -12.25178814 kcal mol^-1
      Disp21                 2.16149279 mH       1.35635726 kcal mol^-1
      Disp22 (SDQ)           0.92933480 mH       0.58316642 kcal mol^-1
      Disp22 (T)            -2.66098764 mH      -1.66979503 kcal mol^-1
      Exch-Disp20            3.53679968 mH       2.21937540 kcal mol^-1

    Total HF                33.85649950 mH      21.24527507 kcal mol^-1
    Total SAPT0             17.86883279 mH      11.21286233 kcal mol^-1
    Total SAPT2             18.31619436 mH      11.49358596 kcal mol^-1
    Total SAPT2+            18.74603431 mH      11.76331462 kcal mol^-1

*** tstop() called on node33.bme.utexas.edu at Mon Jun 23 13:00:44 2014
Module time:
	user time   =   27011.83 seconds =     450.20 minutes
	system time =     227.64 seconds =       3.79 minutes
	total time  =       7664 seconds =     127.73 minutes
Total time:
	user time   =   27443.48 seconds =     457.39 minutes
	system time =     234.69 seconds =       3.91 minutes
	total time  =       7783 seconds =     129.72 minutes

*** PSI4 exiting successfully. Buy a developer a beer!
    -----------------------------------------------------------------------
          PSI4: An Open-Source Ab Initio Electronic Structure Package
                              PSI 4.0.0-beta4 Driver

    J. M. Turney, A. C. Simmonett, R. M. Parrish, E. G. Hohenstein,
    F. A. Evangelista, J. T. Fermann, B. J. Mintz, L. A. Burns, J. J. Wilke,
    M. L. Abrams, N. J. Russ, M. L. Leininger, C. L. Janssen, E. T. Seidl,
    W. D. Allen, H. F. Schaefer, R. A. King, E. F. Valeev, C. D. Sherrill,
    and T. D. Crawford, WIREs Comput. Mol. Sci., (2011) (doi: 10.1002/wcms.93)

                         Additional Contributions by
    A. E. DePrince, M. Saitow, U. Bozkaya, A. Yu. Sokolov
    -----------------------------------------------------------------------

    Process ID:   8089
    PSI4DATADIR: /home/xzhu216/psi4/psi4-install/share/psi

    Using LocalCommunicator (Number of processes = 1)

    Memory level set to 256.000 MB

  ==> Input File <==

--------------------------------------------------------------------------
#psi4
#
memory 7 gb

molecule MeCl_MeCl {
0 1
   Cl    -1.010165000     0.000009000     0.000000000
    C    -2.790218000     0.000024000     0.000000000
    H    -3.133660000     1.027425000     0.000000000
    H    -3.133673000    -0.513673000     0.889753000
    H    -3.133673000    -0.513673000    -0.889753000
--
0 1
   Cl     3.564495464     0.000015597     0.000000000
    C     1.784562464     0.000017597     0.000000000
    H     1.438388464     1.026626597     0.000000000
    H     1.438387464    -0.513286403     0.889069000
    H     1.438387464    -0.513286403    -0.889069000
units angstrom
no_reorient  #important for SAPT in psi4, default
symmetry c1  #important for SAPT in psi4, default
}

set {
basis aug-cc-pVTZ
scf_type DF
freeze_core True
}
energy('sapt2+')
--------------------------------------------------------------------------

  Memory set to   7.000 GiB by Python script.

  //>>>>>>>>>>>>>>>>>>>>>>>>>>>>>>>>>>>//
  //              Dimer HF             //
  //<<<<<<<<<<<<<<<<<<<<<<<<<<<<<<<<<<<//


  No DF_BASIS_SCF auxiliary basis selected, defaulting to aug-cc-pvtz-jkfit


*** tstart() called on node33.bme.utexas.edu
*** at Mon Jun 23 10:51:07 2014


         ---------------------------------------------------------
                                   SCF
            by Justin Turney, Rob Parrish, and Andy Simmonett
                              RHF Reference
                        4 Threads,   7000 MiB Core
         ---------------------------------------------------------

  ==> Geometry <==

    Molecular point group: c1
    Full point group: C1

    Geometry (in Angstrom), charge = 0, multiplicity = 1:

       Center              X                  Y                   Z       
    ------------   -----------------  -----------------  -----------------
          CL         -1.731560691907    -0.000005933521     0.000000000000
           C         -3.511613691907     0.000009066479     0.000000000000
           H         -3.855055691907     1.027410066479     0.000000000000
           H         -3.855068691907    -0.513687933521     0.889753000000
           H         -3.855068691907    -0.513687933521    -0.889753000000
          CL          2.843099772093     0.000000663479     0.000000000000
           C          1.063166772093     0.000002663479     0.000000000000
           H          0.716992772093     1.026611663479     0.000000000000
           H          0.716991772093    -0.513301336521     0.889069000000
           H          0.716991772093    -0.513301336521    -0.889069000000

  Running in c1 symmetry.

  Nuclear repulsion =  187.517027242000154

  Charge       = 0
  Multiplicity = 1
  Electrons    = 52
  Nalpha       = 26
  Nbeta        = 26

  ==> Algorithm <==

  SCF Algorithm Type is DF.
  DIIS enabled.
  MOM disabled.
  Fractional occupation disabled.
  Guess Type is CORE.
  Energy threshold   = 1.00e-08
  Density threshold  = 1.00e-08
  Integral threshold = 0.00e+00

  ==> Primary Basis <==

  Basis Set: AUG-CC-PVTZ
    Number of shells: 114
    Number of basis function: 330
    Number of Cartesian functions: 378
    Spherical Harmonics?: true
    Max angular momentum: 3

  ==> Pre-Iterations <==

   -------------------------------------------------------
    Irrep   Nso     Nmo     Nalpha   Nbeta   Ndocc  Nsocc
   -------------------------------------------------------
     A        330     330       0       0       0       0
   -------------------------------------------------------
    Total     330     330      26      26      26       0
   -------------------------------------------------------

 OEINTS: Wrapper to libmints.
   by Justin Turney

   Calculation information:
      Number of atoms:                  10
      Number of AO shells:             114
      Number of SO shells:             114
      Number of primitives:            254
      Number of atomic orbitals:       378
      Number of basis functions:       330

      Number of irreps:                  1
      Number of functions per irrep: [ 330 ]

      Overlap, kinetic, potential, dipole, and quadrupole integrals
        stored in file 35.

  ==> Integral Setup <==

  ==> DFJK: Density-Fitted J/K Matrices <==

    J tasked:                  Yes
    K tasked:                  Yes
    wK tasked:                  No
    OpenMP threads:              4
    Integrals threads:           4
    Memory (MB):              5006
    Algorithm:                Core
    Integral Cache:           SAVE
    Schwarz Cutoff:          0E+00
    Fitting Condition:       1E-12

   => Auxiliary Basis Set <=

  Basis Set: aug-cc-pvtz-jkfit
    Number of shells: 228
    Number of basis function: 776
    Number of Cartesian functions: 952
    Spherical Harmonics?: true
    Max angular momentum: 4

  Minimum eigenvalue in the overlap matrix is 4.5269381384E-05.
  Using Symmetric Orthogonalization.
  SCF Guess: Core (One-Electron) Hamiltonian.

  Guess energy:  -757.31895461542786

  ==> Iterations <==

                        Total Energy        Delta E     RMS |[F,P]|

   @RHF iter   1:  -888.53270569599169   -8.88533e+02   3.48723e-02 
   @RHF iter   2:  -797.18419156784591    9.13485e+01   2.80816e-02 DIIS
   @RHF iter   3:  -944.82742870555387   -1.47643e+02   2.98580e-02 DIIS
   @RHF iter   4:  -975.97150068910184   -3.11441e+01   1.57139e-02 DIIS
   @RHF iter   5:  -929.42801030941871    4.65435e+01   2.27446e-02 DIIS
   @RHF iter   6:  -990.73290164804996   -6.13049e+01   1.16310e-02 DIIS
   @RHF iter   7:  -993.67639268027176   -2.94349e+00   7.25395e-03 DIIS
   @RHF iter   8:  -997.95320197501599   -4.27681e+00   2.60638e-03 DIIS
   @RHF iter   9:  -998.21189547057327   -2.58693e-01   9.81635e-04 DIIS
   @RHF iter  10:  -998.27878124784627   -6.68858e-02   3.25214e-04 DIIS
   @RHF iter  11:  -998.28727070884440   -8.48946e-03   1.06941e-04 DIIS
   @RHF iter  12:  -998.28868090310823   -1.41019e-03   2.57599e-05 DIIS
   @RHF iter  13:  -998.28879069496668   -1.09792e-04   9.44471e-06 DIIS
   @RHF iter  14:  -998.28880528893103   -1.45940e-05   3.16528e-06 DIIS
   @RHF iter  15:  -998.28880678677717   -1.49785e-06   8.10065e-07 DIIS
   @RHF iter  16:  -998.28880688040670   -9.36295e-08   1.39287e-07 DIIS
   @RHF iter  17:  -998.28880688326228   -2.85559e-09   2.98986e-08 DIIS
   @RHF iter  18:  -998.28880688337301   -1.10731e-10   7.64454e-09 DIIS

  ==> Post-Iterations <==

	Orbital Energies (a.u.)
	-----------------------

	Doubly Occupied:                                                      

	   1A   -104.836621     2A   -104.815564     3A    -11.297663  
	   4A    -11.276441     5A    -10.561692     6A    -10.540003  
	   7A     -8.028562     8A     -8.026624     9A     -8.026624  
	  10A     -8.006906    11A     -8.005088    12A     -8.005088  
	  13A     -1.142187    14A     -1.118110    15A     -0.933161  
	  16A     -0.900583    17A     -0.628232    18A     -0.628231  
	  19A     -0.608342    20A     -0.608342    21A     -0.573101  
	  22A     -0.520299    23A     -0.450209    24A     -0.450209  
	  25A     -0.423535    26A     -0.423534  

	Virtual:                                                              

	  27A      0.022515    28A      0.040726    29A      0.040726  
	  30A      0.044833    31A      0.061421    32A      0.061421  
	  33A      0.075570    34A      0.097492    35A      0.115606  
	  36A      0.115606    37A      0.124329    38A      0.143416  
	  39A      0.143416    40A      0.147504    41A      0.147504  
	  42A      0.150719    43A      0.160703    44A      0.180315  
	  45A      0.180316    46A      0.191489    47A      0.207867  
	  48A      0.207868    49A      0.216408    50A      0.216408  
	  51A      0.241723    52A      0.249468    53A      0.271915  
	  54A      0.284586    55A      0.284586    56A      0.305287  
	  57A      0.305288    58A      0.311411    59A      0.323349  
	  60A      0.330617    61A      0.330617    62A      0.332149  
	  63A      0.348716    64A      0.349985    65A      0.349985  
	  66A      0.358835    67A      0.383994    68A      0.388035  
	  69A      0.388035    70A      0.396816    71A      0.396816  
	  72A      0.405131    73A      0.413790    74A      0.430582  
	  75A      0.440161    76A      0.440161    77A      0.451789  
	  78A      0.451789    79A      0.464192    80A      0.464192  
	  81A      0.481206    82A      0.488875    83A      0.488875  
	  84A      0.506179    85A      0.506179    86A      0.519165  
	  87A      0.519165    88A      0.567326    89A      0.567326  
	  90A      0.577561    91A      0.579817    92A      0.582928  
	  93A      0.582929    94A      0.656359    95A      0.677822  
	  96A      0.677823    97A      0.753980    98A      0.762183  
	  99A      0.762184   100A      0.762914   101A      0.790025  
	 102A      0.799214   103A      0.799214   104A      0.819906  
	 105A      0.828900   106A      0.828901   107A      0.859681  
	 108A      0.859681   109A      0.860925   110A      0.883774  
	 111A      0.886012   112A      0.886012   113A      0.898221  
	 114A      0.898221   115A      0.907323   116A      0.907324  
	 117A      0.915781   118A      0.949941   119A      0.956495  
	 120A      0.963987   121A      0.963988   122A      0.964621  
	 123A      0.975792   124A      0.975792   125A      0.980693  
	 126A      0.992608   127A      1.014602   128A      1.014603  
	 129A      1.026481   130A      1.026481   131A      1.045979  
	 132A      1.075765   133A      1.075766   134A      1.088469  
	 135A      1.112231   136A      1.112232   137A      1.113926  
	 138A      1.113927   139A      1.122996   140A      1.124735  
	 141A      1.124736   142A      1.149904   143A      1.153092  
	 144A      1.153092   145A      1.186144   146A      1.194163  
	 147A      1.194164   148A      1.209063   149A      1.209064  
	 150A      1.243845   151A      1.254989   152A      1.265420  
	 153A      1.290259   154A      1.290259   155A      1.302015  
	 156A      1.302018   157A      1.358438   158A      1.360430  
	 159A      1.378669   160A      1.378670   161A      1.409444  
	 162A      1.455480   163A      1.455481   164A      1.525405  
	 165A      1.525410   166A      1.530937   167A      1.575988  
	 168A      1.595718   169A      1.595718   170A      1.602782  
	 171A      1.602783   172A      1.621781   173A      1.628749  
	 174A      1.644696   175A      1.649731   176A      1.675068  
	 177A      1.678820   178A      1.678821   179A      1.696521  
	 180A      1.696522   181A      1.707330   182A      1.757154  
	 183A      1.768458   184A      1.768458   185A      1.792361  
	 186A      1.815186   187A      1.815187   188A      1.875981  
	 189A      1.875982   190A      1.902528   191A      1.902528  
	 192A      1.922322   193A      1.944353   194A      1.983922  
	 195A      1.983924   196A      2.000786   197A      2.000791  
	 198A      2.006753   199A      2.023967   200A      2.087128  
	 201A      2.087129   202A      2.133721   203A      2.133722  
	 204A      2.222973   205A      2.222973   206A      2.240108  
	 207A      2.240108   208A      2.251785   209A      2.295063  
	 210A      2.312750   211A      2.563619   212A      2.596664  
	 213A      2.638879   214A      2.638879   215A      2.681630  
	 216A      2.681630   217A      2.720496   218A      2.720496  
	 219A      2.784590   220A      2.784590   221A      2.812382  
	 222A      2.938644   223A      2.949993   224A      2.949994  
	 225A      3.027319   226A      3.038163   227A      3.038164  
	 228A      3.048929   229A      3.083911   230A      3.116382  
	 231A      3.123586   232A      3.160154   233A      3.166407  
	 234A      3.166407   235A      3.175153   236A      3.227615  
	 237A      3.227617   238A      3.270957   239A      3.296144  
	 240A      3.296145   241A      3.327630   242A      3.327632  
	 243A      3.333462   244A      3.403711   245A      3.403712  
	 246A      3.426819   247A      3.426822   248A      3.463947  
	 249A      3.555962   250A      3.562098   251A      3.562098  
	 252A      3.573920   253A      3.613527   254A      3.613527  
	 255A      3.615316   256A      3.627465   257A      3.627466  
	 258A      3.742612   259A      3.742612   260A      3.808511  
	 261A      3.808512   262A      3.882063   263A      3.883331  
	 264A      3.883332   265A      3.915335   266A      3.915335  
	 267A      3.952595   268A      3.952595   269A      4.024074  
	 270A      4.055845   271A      4.095524   272A      4.098251  
	 273A      4.098251   274A      4.116135   275A      4.116135  
	 276A      4.199309   277A      4.203645   278A      4.203646  
	 279A      4.229987   280A      4.273444   281A      4.273445  
	 282A      4.347771   283A      4.464891   284A      4.464892  
	 285A      4.515066   286A      4.568925   287A      4.568926  
	 288A      4.576182   289A      4.741823   290A      4.741823  
	 291A      4.800771   292A      4.800772   293A      4.813520  
	 294A      4.871477   295A      4.886989   296A      4.890035  
	 297A      4.918347   298A      4.976187   299A      4.976189  
	 300A      5.043424   301A      5.043725   302A      5.043726  
	 303A      5.192674   304A      5.192675   305A      5.215167  
	 306A      5.215167   307A      5.231267   308A      5.275362  
	 309A      5.516431   310A      5.516432   311A      5.550180  
	 312A      5.550180   313A      5.582352   314A      5.620039  
	 315A      5.643951   316A      5.660286   317A      5.966448  
	 318A      5.991452   319A      6.051091   320A      6.051092  
	 321A      6.087511   322A      6.087511   323A      6.615476  
	 324A      6.615477   325A      6.641719   326A      6.641719  
	 327A      7.881432   328A      7.912983   329A     16.951435  
	 330A     17.615333  

	Final Occupation by Irrep:
	          A 
	DOCC [    26 ]

  Energy converged.

  @RHF Final Energy:  -998.28880688337301

   => Energetics <=

    Nuclear Repulsion Energy =            187.5170272420001538
    One-Electron Energy =               -1749.9417675596182562
    Two-Electron Energy =                 564.1359334342434977
    DFT Exchange-Correlation Energy =       0.0000000000000000
    Empirical Dispersion Energy =           0.0000000000000000
    Total Energy =                       -998.2888068833747184



Properties will be evaluated at   0.000000,   0.000000,   0.000000 Bohr
  ==> Properties <==


Properties computed using the SCF density density matrix
  Nuclear Dipole Moment: (a.u.)
     X:    -9.8431      Y:     0.0000      Z:     0.0000

  Electronic Dipole Moment: (a.u.)
     X:     8.0468      Y:    -0.0000      Z:     0.0000

  Dipole Moment: (a.u.)
     X:    -1.7962      Y:     0.0000      Z:     0.0000     Total:     1.7962

  Dipole Moment: (Debye)
     X:    -4.5656      Y:     0.0000      Z:     0.0000     Total:     4.5656


  Saving occupied orbitals to File 180.

  Saving SAPT 2-DIMER file.

*** tstop() called on node33.bme.utexas.edu at Mon Jun 23 10:52:03 2014
Module time:
	user time   =     197.28 seconds =       3.29 minutes
	system time =       2.95 seconds =       0.05 minutes
	total time  =         56 seconds =       0.93 minutes
Total time:
	user time   =     197.28 seconds =       3.29 minutes
	system time =       2.95 seconds =       0.05 minutes
	total time  =         56 seconds =       0.93 minutes

  //>>>>>>>>>>>>>>>>>>>>>>>>>>>>>>>>>>>//
  //            Monomer A HF           //
  //<<<<<<<<<<<<<<<<<<<<<<<<<<<<<<<<<<<//


  No DF_BASIS_SCF auxiliary basis selected, defaulting to aug-cc-pvtz-jkfit


*** tstart() called on node33.bme.utexas.edu
*** at Mon Jun 23 10:52:03 2014


         ---------------------------------------------------------
                                   SCF
            by Justin Turney, Rob Parrish, and Andy Simmonett
                              RHF Reference
                        4 Threads,   7000 MiB Core
         ---------------------------------------------------------

  ==> Geometry <==

    Molecular point group: c1
    Full point group: C1

    Geometry (in Angstrom), charge = 0, multiplicity = 1:

       Center              X                  Y                   Z       
    ------------   -----------------  -----------------  -----------------
          CL         -1.731560691907    -0.000005933521     0.000000000000
           C         -3.511613691907     0.000009066479     0.000000000000
           H         -3.855055691907     1.027410066479     0.000000000000
           H         -3.855068691907    -0.513687933521     0.889753000000
           H         -3.855068691907    -0.513687933521    -0.889753000000
          CL(Gh)      2.843099772093     0.000000663479     0.000000000000
           C(Gh)      1.063166772093     0.000002663479     0.000000000000
           H(Gh)      0.716992772093     1.026611663479     0.000000000000
           H(Gh)      0.716991772093    -0.513301336521     0.889069000000
           H(Gh)      0.716991772093    -0.513301336521    -0.889069000000

  Running in c1 symmetry.

  Nuclear repulsion =   51.448254980077678

  Charge       = 0
  Multiplicity = 1
  Electrons    = 26
  Nalpha       = 13
  Nbeta        = 13

  ==> Algorithm <==

  SCF Algorithm Type is DF.
  DIIS enabled.
  MOM disabled.
  Fractional occupation disabled.
  Guess Type is CORE.
  Energy threshold   = 1.00e-08
  Density threshold  = 1.00e-08
  Integral threshold = 0.00e+00

  ==> Primary Basis <==

  Basis Set: AUG-CC-PVTZ
    Number of shells: 114
    Number of basis function: 330
    Number of Cartesian functions: 378
    Spherical Harmonics?: true
    Max angular momentum: 3

  ==> Pre-Iterations <==

   -------------------------------------------------------
    Irrep   Nso     Nmo     Nalpha   Nbeta   Ndocc  Nsocc
   -------------------------------------------------------
     A        330     330       0       0       0       0
   -------------------------------------------------------
    Total     330     330      13      13      13       0
   -------------------------------------------------------

 OEINTS: Wrapper to libmints.
   by Justin Turney

   Calculation information:
      Number of atoms:                  10
      Number of AO shells:             114
      Number of SO shells:             114
      Number of primitives:            254
      Number of atomic orbitals:       378
      Number of basis functions:       330

      Number of irreps:                  1
      Number of functions per irrep: [ 330 ]

      Overlap, kinetic, potential, dipole, and quadrupole integrals
        stored in file 35.

  ==> Integral Setup <==

  ==> DFJK: Density-Fitted J/K Matrices <==

    J tasked:                  Yes
    K tasked:                  Yes
    wK tasked:                  No
    OpenMP threads:              4
    Integrals threads:           4
    Memory (MB):              5006
    Algorithm:                Core
    Integral Cache:           LOAD
    Schwarz Cutoff:          0E+00
    Fitting Condition:       1E-12

   => Auxiliary Basis Set <=

  Basis Set: aug-cc-pvtz-jkfit
    Number of shells: 228
    Number of basis function: 776
    Number of Cartesian functions: 952
    Spherical Harmonics?: true
    Max angular momentum: 4

  Minimum eigenvalue in the overlap matrix is 4.5269381384E-05.
  Using Symmetric Orthogonalization.
  SCF Guess: Core (One-Electron) Hamiltonian.

  Guess energy:  -378.35764288166854

  ==> Iterations <==

                        Total Energy        Delta E     RMS |[F,P]|

   @RHF iter   1:  -446.44062547159149   -4.46441e+02   2.44699e-02 
   @RHF iter   2:  -364.62637159346104    8.18143e+01   2.58094e-02 DIIS
   @RHF iter   3:  -488.49557631079938   -1.23869e+02   1.18874e-02 DIIS
   @RHF iter   4:  -497.96625976366317   -9.47068e+00   5.52170e-03 DIIS
   @RHF iter   5:  -498.50268617527036   -5.36426e-01   3.43806e-03 DIIS
   @RHF iter   6:  -499.03730037092782   -5.34614e-01   1.24201e-03 DIIS
   @RHF iter   7:  -499.14682436275405   -1.09524e-01   1.74302e-04 DIIS
   @RHF iter   8:  -499.14866203879785   -1.83768e-03   4.67239e-05 DIIS
   @RHF iter   9:  -499.14892082830715   -2.58790e-04   1.36994e-05 DIIS
   @RHF iter  10:  -499.14895531700051   -3.44887e-05   3.37421e-06 DIIS
   @RHF iter  11:  -499.14895740890358   -2.09190e-06   6.84584e-07 DIIS
   @RHF iter  12:  -499.14895747791468   -6.90111e-08   7.02408e-08 DIIS
   @RHF iter  13:  -499.14895747847766   -5.62977e-10   1.36007e-08 DIIS
   @RHF iter  14:  -499.14895747850005   -2.23963e-11   3.40221e-09 DIIS

  ==> Post-Iterations <==

	Orbital Energies (a.u.)
	-----------------------

	Doubly Occupied:                                                      

	   1A   -104.826398     2A    -11.289716     3A    -10.550642  
	   4A     -8.017533     5A     -8.015698     6A     -8.015698  
	   7A     -1.128844     8A     -0.915710     9A     -0.618972  
	  10A     -0.618972    11A     -0.546269    12A     -0.435679  
	  13A     -0.435679  

	Virtual:                                                              

	  14A      0.026783    15A      0.036232    16A      0.044347  
	  17A      0.044347    18A      0.060197    19A      0.060197  
	  20A      0.067831    21A      0.096506    22A      0.114970  
	  23A      0.118626    24A      0.118626    25A      0.126576  
	  26A      0.126576    27A      0.131022    28A      0.144309  
	  29A      0.144309    30A      0.157579    31A      0.184490  
	  32A      0.184490    33A      0.190915    34A      0.213969  
	  35A      0.213970    36A      0.226926    37A      0.236879  
	  38A      0.236879    39A      0.244148    40A      0.268090  
	  41A      0.294131    42A      0.294131    43A      0.298169  
	  44A      0.321964    45A      0.321965    46A      0.323415  
	  47A      0.323415    48A      0.331012    49A      0.340025  
	  50A      0.345366    51A      0.345367    52A      0.371956  
	  53A      0.373552    54A      0.387925    55A      0.391896  
	  56A      0.391897    57A      0.403793    58A      0.419043  
	  59A      0.424818    60A      0.424818    61A      0.448391  
	  62A      0.448391    63A      0.452209    64A      0.468338  
	  65A      0.468339    66A      0.489127    67A      0.489127  
	  68A      0.489587    69A      0.493948    70A      0.493948  
	  71A      0.515657    72A      0.515657    73A      0.563721  
	  74A      0.572932    75A      0.588442    76A      0.588442  
	  77A      0.597669    78A      0.597669    79A      0.607878  
	  80A      0.614552    81A      0.614553    82A      0.638430  
	  83A      0.668454    84A      0.668454    85A      0.683228  
	  86A      0.683228    87A      0.736071    88A      0.771717  
	  89A      0.773614    90A      0.773614    91A      0.810035  
	  92A      0.810035    93A      0.846526    94A      0.870063  
	  95A      0.889680    96A      0.889680    97A      0.912877  
	  98A      0.922498    99A      0.922498   100A      0.956725  
	 101A      0.961638   102A      0.977800   103A      0.990036  
	 104A      0.990036   105A      1.010196   106A      1.013866  
	 107A      1.021593   108A      1.021594   109A      1.031546  
	 110A      1.031546   111A      1.044520   112A      1.044520  
	 113A      1.045382   114A      1.083668   115A      1.083668  
	 116A      1.088878   117A      1.118447   118A      1.118448  
	 119A      1.122531   120A      1.129314   121A      1.129314  
	 122A      1.149544   123A      1.158241   124A      1.158242  
	 125A      1.179037   126A      1.179037   127A      1.199831  
	 128A      1.217872   129A      1.231134   130A      1.231135  
	 131A      1.244098   132A      1.259542   133A      1.259543  
	 134A      1.292131   135A      1.302767   136A      1.302767  
	 137A      1.305357   138A      1.344574   139A      1.344577  
	 140A      1.347816   141A      1.376164   142A      1.379206  
	 143A      1.379206   144A      1.408299   145A      1.408300  
	 146A      1.414012   147A      1.438848   148A      1.438848  
	 149A      1.458756   150A      1.502926   151A      1.510889  
	 152A      1.510890   153A      1.544965   154A      1.544968  
	 155A      1.562866   156A      1.562867   157A      1.605593  
	 158A      1.612531   159A      1.612531   160A      1.632233  
	 161A      1.638846   162A      1.638848   163A      1.649692  
	 164A      1.685171   165A      1.710725   166A      1.713533  
	 167A      1.713533   168A      1.741195   169A      1.775589  
	 170A      1.775591   171A      1.796090   172A      1.829273  
	 173A      1.901717   174A      1.901756   175A      1.901756  
	 176A      1.964557   177A      1.975658   178A      1.975659  
	 179A      1.979978   180A      2.002675   181A      2.002676  
	 182A      2.030546   183A      2.030549   184A      2.079984  
	 185A      2.079984   186A      2.093159   187A      2.093160  
	 188A      2.145742   189A      2.184815   190A      2.198840  
	 191A      2.198841   192A      2.207360   193A      2.254913  
	 194A      2.288393   195A      2.290435   196A      2.290436  
	 197A      2.383987   198A      2.383987   199A      2.531969  
	 200A      2.531969   201A      2.558765   202A      2.623480  
	 203A      2.696803   204A      2.696803   205A      2.721917  
	 206A      2.724181   207A      2.724181   208A      2.811196  
	 209A      2.811196   210A      2.934532   211A      3.010757  
	 212A      3.034042   213A      3.034044   214A      3.115163  
	 215A      3.136304   216A      3.166967   217A      3.209697  
	 218A      3.279297   219A      3.279301   220A      3.347602  
	 221A      3.347604   222A      3.395414   223A      3.395415  
	 224A      3.515924   225A      3.564412   226A      3.573029  
	 227A      3.573030   228A      3.614890   229A      3.614890  
	 230A      3.658784   231A      3.817536   232A      3.817536  
	 233A      3.856099   234A      3.920436   235A      3.920436  
	 236A      3.941792   237A      3.951369   238A      3.951369  
	 239A      3.999694   240A      4.021795   241A      4.021795  
	 242A      4.034852   243A      4.085782   244A      4.092192  
	 245A      4.094605   246A      4.094607   247A      4.111130  
	 248A      4.152289   249A      4.152289   250A      4.229282  
	 251A      4.230092   252A      4.230093   253A      4.239799  
	 254A      4.239802   255A      4.355384   256A      4.355384  
	 257A      4.410906   258A      4.419606   259A      4.473892  
	 260A      4.473892   261A      4.515897   262A      4.524199  
	 263A      4.524200   264A      4.569318   265A      4.569318  
	 266A      4.604771   267A      4.653322   268A      4.653324  
	 269A      4.748212   270A      4.748212   271A      4.749704  
	 272A      4.749704   273A      4.778516   274A      4.831373  
	 275A      4.840028   276A      4.840028   277A      4.881683  
	 278A      4.893847   279A      4.943565   280A      4.943566  
	 281A      4.985187   282A      4.995827   283A      4.995827  
	 284A      5.119167   285A      5.136737   286A      5.136738  
	 287A      5.200284   288A      5.200285   289A      5.221005  
	 290A      5.243752   291A      5.256069   292A      5.398624  
	 293A      5.398625   294A      5.493054   295A      5.512987  
	 296A      5.512987   297A      5.525554   298A      5.525555  
	 299A      5.572449   300A      5.609420   301A      5.652174  
	 302A      5.750613   303A      5.750613   304A      5.974116  
	 305A      6.059004   306A      6.059005   307A      6.077362  
	 308A      6.197530   309A      6.197530   310A      6.264926  
	 311A      6.266926   312A      6.625981   313A      6.625982  
	 314A      6.688344   315A      6.688344   316A      7.202277  
	 317A      7.794694   318A      7.794695   319A      7.882893  
	 320A      7.975947   321A      8.217713   322A      8.217714  
	 323A     10.518222   324A     16.615799   325A     16.972306  
	 326A     28.079894   327A     28.079894   328A     29.017975  
	 329A     52.520291   330A    161.069541  

	Final Occupation by Irrep:
	          A 
	DOCC [    13 ]

  Energy converged.

  @RHF Final Energy:  -499.14895747850005

   => Energetics <=

    Nuclear Repulsion Energy =             51.4482549800776781
    One-Electron Energy =                -790.3628049163901323
    Two-Electron Energy =                 239.7655924578122040
    DFT Exchange-Correlation Energy =       0.0000000000000000
    Empirical Dispersion Energy =           0.0000000000000000
    Total Energy =                       -499.1489574785002787



Properties will be evaluated at   0.000000,   0.000000,   0.000000 Bohr
  ==> Properties <==


Properties computed using the SCF density density matrix
  Nuclear Dipole Moment: (a.u.)
     X:  -117.2980      Y:    -0.0000      Z:     0.0000

  Electronic Dipole Moment: (a.u.)
     X:   116.4608      Y:     0.0000      Z:    -0.0000

  Dipole Moment: (a.u.)
     X:    -0.8372      Y:     0.0000      Z:    -0.0000     Total:     0.8372

  Dipole Moment: (Debye)
     X:    -2.1279      Y:     0.0000      Z:    -0.0000     Total:     2.1279


  Saving occupied orbitals to File 180.

  Saving SAPT 2-MONOMER_A file.

*** tstop() called on node33.bme.utexas.edu at Mon Jun 23 10:52:32 2014
Module time:
	user time   =     101.60 seconds =       1.69 minutes
	system time =       1.74 seconds =       0.03 minutes
	total time  =         29 seconds =       0.48 minutes
Total time:
	user time   =     298.90 seconds =       4.98 minutes
	system time =       4.69 seconds =       0.08 minutes
	total time  =         85 seconds =       1.42 minutes

  //>>>>>>>>>>>>>>>>>>>>>>>>>>>>>>>>>>>//
  //            Monomer B HF           //
  //<<<<<<<<<<<<<<<<<<<<<<<<<<<<<<<<<<<//


  No DF_BASIS_SCF auxiliary basis selected, defaulting to aug-cc-pvtz-jkfit


*** tstart() called on node33.bme.utexas.edu
*** at Mon Jun 23 10:52:32 2014


         ---------------------------------------------------------
                                   SCF
            by Justin Turney, Rob Parrish, and Andy Simmonett
                              RHF Reference
                        4 Threads,   7000 MiB Core
[...]
         H            2.702474879064    -0.513298105954     0.889070000000     1.007825032230
         H            2.702474879064    -0.513298105954    -0.889070000000     1.007825032230

  Running in c1 symmetry.

  Rotational constants: A =      2.64312  B =      0.00887  C =      0.00887 [cm^-1]
  Rotational constants: A =  79238.73139  B =    265.84903  C =    265.84903 [MHz]
  Nuclear repulsion =   51.440432930049816

  Charge       = 0
  Multiplicity = 1
  Electrons    = 26
  Nalpha       = 13
  Nbeta        = 13

  ==> Algorithm <==

  SCF Algorithm Type is DF.
  DIIS enabled.
  MOM disabled.
  Fractional occupation disabled.
  Guess Type is SAD.
  Energy threshold   = 1.00e-08
  Density threshold  = 1.00e-08
  Integral threshold = 0.00e+00

  ==> Primary Basis <==

  Basis Set: AUG-CC-PVTZ
    Blend: AUG-CC-PVTZ
    Number of shells: 114
    Number of basis function: 330
    Number of Cartesian functions: 378
    Spherical Harmonics?: true
    Max angular momentum: 3

   => Loading Basis Set <=

    Name: (AUG-CC-PVTZ AUX)
    Role: JKFIT
    Keyword: DF_BASIS_SCF
    atoms 1, 6      entry CL         line   816 file /home/liuchw/anaconda3/envs/psi4env/share/psi4/basis/aug-cc-pvtz-jkfit.gbs 
    atoms 2, 7      entry C          line   162 file /home/liuchw/anaconda3/envs/psi4env/share/psi4/basis/aug-cc-pvtz-jkfit.gbs 
    atoms 3-5, 8-10 entry H          line    70 file /home/liuchw/anaconda3/envs/psi4env/share/psi4/basis/aug-cc-pvtz-jkfit.gbs 

  ==> Pre-Iterations <==

   -------------------------------------------------------
    Irrep   Nso     Nmo     Nalpha   Nbeta   Ndocc  Nsocc
   -------------------------------------------------------
     A        330     330       0       0       0       0
   -------------------------------------------------------
    Total     330     330      13      13      13       0
   -------------------------------------------------------

  ==> Integral Setup <==

  ==> DiskDFJK: Density-Fitted J/K Matrices <==

    J tasked:                  Yes
    K tasked:                  Yes
    wK tasked:                  No
    OpenMP threads:              8
    Integrals threads:           8
    Memory [MiB]:            35762
    Algorithm:                Core
    Integral Cache:           LOAD
    Schwarz Cutoff:          1E-12
    Fitting Condition:       1E-10

   => Auxiliary Basis Set <=

  Basis Set: (AUG-CC-PVTZ AUX)
    Blend: AUG-CC-PVTZ-JKFIT
    Number of shells: 228
    Number of basis function: 776
    Number of Cartesian functions: 952
    Spherical Harmonics?: true
    Max angular momentum: 4

  Minimum eigenvalue in the overlap matrix is 6.9601532649E-05.
  Using Symmetric Orthogonalization.

  SCF Guess: Superposition of Atomic Densities via on-the-fly atomic UHF.

  ==> Iterations <==

                           Total Energy        Delta E     RMS |[F,P]|

   @DF-RHF iter SAD:  -498.71057930177113   -4.98711e+02   0.00000e+00 
   @DF-RHF iter   1:  -499.11138678278201   -4.00807e-01   7.38454e-04 DIIS
   @DF-RHF iter   2:  -499.14421179996611   -3.28250e-02   2.59261e-04 DIIS
   @DF-RHF iter   3:  -499.14822443674893   -4.01264e-03   7.79038e-05 DIIS
   @DF-RHF iter   4:  -499.14880874305322   -5.84306e-04   2.21015e-05 DIIS
   @DF-RHF iter   5:  -499.14885202380077   -4.32807e-05   3.23189e-06 DIIS
   @DF-RHF iter   6:  -499.14885337896601   -1.35517e-06   6.34476e-07 DIIS
   @DF-RHF iter   7:  -499.14885342744736   -4.84814e-08   2.06166e-07 DIIS
   @DF-RHF iter   8:  -499.14885343311977   -5.67240e-09   5.57384e-08 DIIS
   @DF-RHF iter   9:  -499.14885343372720   -6.07429e-10   9.98077e-09 DIIS
  Energy and wave function converged.


  ==> Post-Iterations <==

    Orbital Energies [Eh]
    ---------------------

    Doubly Occupied:                                                      

       1A   -104.826516     2A    -11.289709     3A    -10.550845  
       4A     -8.017756     5A     -8.015883     6A     -8.015883  
       7A     -1.128879     8A     -0.915878     9A     -0.618639  
      10A     -0.618636    11A     -0.546699    12A     -0.435797  
      13A     -0.435796  

    Virtual:                                                              

      14A      0.017935    15A      0.031469    16A      0.041191  
      17A      0.041191    18A      0.050399    19A      0.050399  
      20A      0.055463    21A      0.075014    22A      0.099229  
      23A      0.106754    24A      0.111203    25A      0.111203  
      26A      0.123500    27A      0.123501    28A      0.127100  
      29A      0.127100    30A      0.138831    31A      0.147013  
      32A      0.147014    33A      0.150440    34A      0.194048  
      35A      0.205194    36A      0.209374    37A      0.209375  
      38A      0.233299    39A      0.233299    40A      0.265697  
      41A      0.275613    42A      0.275614    43A      0.282523  
      44A      0.300876    45A      0.300876    46A      0.309518  
      47A      0.311355    48A      0.311355    49A      0.328056  
      50A      0.334208    51A      0.334208    52A      0.343806  
      53A      0.352028    54A      0.353928    55A      0.354874  
      56A      0.354875    57A      0.357474    58A      0.382393  
      59A      0.382393    60A      0.394265    61A      0.411825  
      62A      0.420448    63A      0.420448    64A      0.430723  
      65A      0.441720    66A      0.441721    67A      0.447758  
      68A      0.454835    69A      0.454836    70A      0.459483  
      71A      0.459483    72A      0.492964    73A      0.494299  
      74A      0.494299    75A      0.510624    76A      0.510624  
      77A      0.517770    78A      0.551233    79A      0.551233  
      80A      0.582556    81A      0.589990    82A      0.589990  
      83A      0.656303    84A      0.656303    85A      0.664586  
      86A      0.664587    87A      0.667319    88A      0.667319  
      89A      0.670313    90A      0.731342    91A      0.763985  
      92A      0.782065    93A      0.782065    94A      0.788715  
      95A      0.821478    96A      0.864622    97A      0.864623  
      98A      0.870687    99A      0.893920   100A      0.893920  
     101A      0.934015   102A      0.934015   103A      0.943230  
     104A      0.952955   105A      0.959714   106A      0.959715  
     107A      0.960867   108A      0.960868   109A      0.997275  
     110A      1.022856   111A      1.024836   112A      1.029372  
     113A      1.029373   114A      1.038681   115A      1.038681  
     116A      1.058150   117A      1.064965   118A      1.064967  
     119A      1.079846   120A      1.085892   121A      1.096348  
     122A      1.096349   123A      1.101258   124A      1.101259  
     125A      1.105673   126A      1.131277   127A      1.131278  
     128A      1.141168   129A      1.155355   130A      1.169482  
     131A      1.169482   132A      1.176621   133A      1.187510  
     134A      1.187510   135A      1.224027   136A      1.224027  
     137A      1.231421   138A      1.261857   139A      1.276969  
     140A      1.276971   141A      1.288356   142A      1.309932  
     143A      1.309932   144A      1.373490   145A      1.373979  
     146A      1.384142   147A      1.384142   148A      1.393221  
     149A      1.407737   150A      1.407738   151A      1.410879  
     152A      1.410881   153A      1.487831   154A      1.487832  
     155A      1.497056   156A      1.531978   157A      1.543088  
     158A      1.543089   159A      1.570879   160A      1.570879  
     161A      1.580888   162A      1.583287   163A      1.583289  
     164A      1.599163   165A      1.629321   166A      1.665931  
     167A      1.674267   168A      1.674267   169A      1.706258  
     170A      1.706258   171A      1.735553   172A      1.760887  
     173A      1.776095   174A      1.823982   175A      1.823985  
     176A      1.896723   177A      1.896726   178A      1.915084  
     179A      1.935403   180A      1.935409   181A      1.940608  
     182A      1.959040   183A      1.959040   184A      1.967597  
     185A      2.048826   186A      2.048829   187A      2.052428  
     188A      2.052431   189A      2.085109   190A      2.109705  
     191A      2.109708   192A      2.115497   193A      2.147569  
     194A      2.193523   195A      2.193525   196A      2.199948  
     197A      2.312217   198A      2.312218   199A      2.486574  
     200A      2.497114   201A      2.497115   202A      2.499498  
     203A      2.569156   204A      2.628316   205A      2.628316  
     206A      2.684668   207A      2.684669   208A      2.691661  
     209A      2.691661   210A      2.729134   211A      2.928743  
     212A      2.928743   213A      2.947452   214A      2.976891  
     215A      3.049447   216A      3.107756   217A      3.136670  
     218A      3.136670   219A      3.140013   220A      3.185470  
     221A      3.246628   222A      3.246629   223A      3.348081  
     224A      3.348084   225A      3.555348   226A      3.555349  
     227A      3.561887   228A      3.572618   229A      3.595515  
     230A      3.595516   231A      3.715159   232A      3.795131  
     233A      3.795134   234A      3.915196   235A      3.915200  
     236A      3.918373   237A      3.918381   238A      3.931261  
     239A      3.968220   240A      3.968995   241A      3.968997  
     242A      3.999232   243A      4.035486   244A      4.072588  
     245A      4.079375   246A      4.079377   247A      4.086000  
     248A      4.086332   249A      4.086334   250A      4.143200  
     251A      4.165482   252A      4.165486   253A      4.167856  
     254A      4.196255   255A      4.196257   256A      4.225357  
     257A      4.225361   258A      4.398152   259A      4.443935  
     260A      4.444946   261A      4.444948   262A      4.464691  
     263A      4.464694   264A      4.505786   265A      4.532530  
     266A      4.532536   267A      4.583605   268A      4.583609  
     269A      4.682676   270A      4.732098   271A      4.732099  
     272A      4.744539   273A      4.744546   274A      4.762247  
     275A      4.777911   276A      4.816324   277A      4.816330  
     278A      4.858107   279A      4.875455   280A      4.875456  
     281A      4.876230   282A      4.960541   283A      4.980777  
     284A      4.980780   285A      5.091435   286A      5.091440  
     287A      5.166195   288A      5.185617   289A      5.185634  
     290A      5.218652   291A      5.241783   292A      5.339289  
     293A      5.339292   294A      5.378412   295A      5.472165  
     296A      5.478625   297A      5.478626   298A      5.523518  
     299A      5.523530   300A      5.565910   301A      5.644281  
     302A      5.723157   303A      5.723157   304A      5.949777  
     305A      6.050055   306A      6.057460   307A      6.057467  
     308A      6.159321   309A      6.159346   310A      6.187594  
     311A      6.257282   312A      6.597055   313A      6.597060  
     314A      6.632957   315A      6.632996   316A      7.174915  
     317A      7.537417   318A      7.753338   319A      7.753353  
     320A      7.860924   321A      8.153621   322A      8.153680  
     323A     10.270211   324A     16.145475   325A     16.923721  
     326A     28.037208   327A     28.037209   328A     28.934196  
     329A     51.237079   330A    161.010838  

    Final Occupation by Irrep:
              A 
    DOCC [    13 ]

  @DF-RHF Final Energy:  -499.14885343372720

   => Energetics <=

    Nuclear Repulsion Energy =             51.4404329300498162
    One-Electron Energy =                -790.3447411458648730
    Two-Electron Energy =                 239.7554547820878383
    Total Energy =                       -499.1488534337271972

Computation Completed


Properties will be evaluated at   0.000000,   0.000000,   0.000000 [a0]

Properties computed using the SCF density matrix

  Nuclear Dipole Moment: [e a0]
     X:   205.0071      Y:     0.0002      Z:     0.0000

  Electronic Dipole Moment: [e a0]
     X:  -205.8435      Y:    -0.0002      Z:    -0.0000

  Dipole Moment: [e a0]
     X:    -0.8364      Y:     0.0000      Z:    -0.0000     Total:     0.8364

  Dipole Moment: [D]
     X:    -2.1260      Y:     0.0000      Z:    -0.0000     Total:     2.1260


*** tstop() called on node73.bme.utexas.edu at Thu Apr 23 16:59:07 2020
Module time:
	user time   =      24.95 seconds =       0.42 minutes
	system time =       1.10 seconds =       0.02 minutes
	total time  =          4 seconds =       0.07 minutes
Total time:
	user time   =      96.48 seconds =       1.61 minutes
	system time =       4.12 seconds =       0.07 minutes
	total time  =         14 seconds =       0.23 minutes
  Constructing Basis Sets for SAPT...

   => Loading Basis Set <=

    Name: (AUG-CC-PVTZ AUX)
    Role: RIFIT
    Keyword: DF_BASIS_SAPT
    atoms 1, 6      entry CL         line   742 file /home/liuchw/anaconda3/envs/psi4env/share/psi4/basis/aug-cc-pvtz-ri.gbs 
    atoms 2, 7      entry C          line   148 file /home/liuchw/anaconda3/envs/psi4env/share/psi4/basis/aug-cc-pvtz-ri.gbs 
    atoms 3-5, 8-10 entry H          line    30 file /home/liuchw/anaconda3/envs/psi4env/share/psi4/basis/aug-cc-pvtz-ri.gbs 


  //>>>>>>>>>>>>>>>>>>>>>>>>>>>>>>>>>>>//
  //               SAPT2+              //
  //<<<<<<<<<<<<<<<<<<<<<<<<<<<<<<<<<<<//


*** tstart() called on node73.bme.utexas.edu
*** at Thu Apr 23 16:59:07 2020

        SAPT2+  
    Ed Hohenstein
     6 June 2009

      Orbital Information
  --------------------------
    NSO        =       330
    NMO        =       330
    NRI        =       782
    NOCC A     =        13
    NOCC B     =        13
    FOCC A     =         6
    FOCC B     =         6
    NVIR A     =       317
    NVIR B     =       317

    Estimated memory usage: 1036.2 MB

    Natural Orbital Cutoff:   1.000E-06
    Disp(T3) Truncation:            Yes
    CCD (vv|vv) Truncation:         Yes
    MBPT T2 Truncation:             Yes

    Monomer A: 182 virtual orbitals dropped
    Monomer B: 182 virtual orbitals dropped

    Elst10,r            =    -0.000281311325 [Eh]
    Exch10 (S^2)        =     0.000000006433 [Eh]
    Exch10              =     0.000000006433 [Eh]
    Ind20,r (A<-B)      =    -0.000003345553 [Eh]
    Ind20,r (B<-A)      =    -0.000002192366 [Eh]
    Ind20,r             =    -0.000005537919 [Eh]
    Exch-Ind20,r (A<-B) =     0.000000000891 [Eh]
    Exch-Ind20,r (B<-A) =     0.000000000372 [Eh]
    Exch-Ind20,r        =     0.000000001263 [Eh]
    Disp20              =    -0.000046000148 [Eh]
    Disp20 (NO)         =    -0.000045141252 [Eh]
    Exch-Disp20         =     0.000000001851 [Eh]
    Elst12,r            =     0.000058468812 [Eh]
    Exch11              =     0.000000000118 [Eh]
    Exch12              =     0.000000001792 [Eh]
    Ind22               =     0.000000779835 [Eh]
    Disp21              =     0.000007394320 [Eh]
    Disp22 (SDQ)        =     0.000002595595 [Eh]

    (i =   1 of   7)          3 seconds
    (i =   2 of   7)          6 seconds
    (i =   3 of   7)          9 seconds
    (i =   4 of   7)         12 seconds
    (i =   5 of   7)         15 seconds
    (i =   6 of   7)         18 seconds
    (i =   7 of   7)         22 seconds

    Disp220 (T)         =    -0.000004210005 [Eh]

    (i =   1 of   7)          3 seconds
    (i =   2 of   7)          6 seconds
    (i =   3 of   7)          9 seconds
    (i =   4 of   7)         12 seconds
    (i =   5 of   7)         15 seconds
    (i =   6 of   7)         19 seconds
    (i =   7 of   7)         22 seconds

    Disp202 (T)         =    -0.000004039393 [Eh]

    Disp22 (T)          =    -0.000008249399 [Eh]

    Est. Disp220 (T)    =    -0.000004290108 [Eh]
    Est. Disp202 (T)    =    -0.000004116250 [Eh]

    Est. Disp22 (T)     =    -0.000008406359 [Eh]

    SAPT Results 
  --------------------------------------------------------------------------------------------------------
    Electrostatics                 -0.22284251 [mEh]      -0.13983579 [kcal/mol]      -0.58507294 [kJ/mol]
      Elst10,r                     -0.28131132 [mEh]      -0.17652552 [kcal/mol]      -0.73858278 [kJ/mol]
      Elst12,r                      0.05846881 [mEh]       0.03668973 [kcal/mol]       0.15350984 [kJ/mol]

    Exchange                        0.00000834 [mEh]       0.00000524 [kcal/mol]       0.00002190 [kJ/mol]
      Exch10                        0.00000643 [mEh]       0.00000404 [kcal/mol]       0.00001689 [kJ/mol]
      Exch10(S^2)                   0.00000643 [mEh]       0.00000404 [kcal/mol]       0.00001689 [kJ/mol]
      Exch11(S^2)                   0.00000012 [mEh]       0.00000007 [kcal/mol]       0.00000031 [kJ/mol]
      Exch12(S^2)                   0.00000179 [mEh]       0.00000112 [kcal/mol]       0.00000470 [kJ/mol]

    Induction                      -0.00484272 [mEh]      -0.00303885 [kcal/mol]      -0.01271457 [kJ/mol]
      Ind20,r                      -0.00553792 [mEh]      -0.00347510 [kcal/mol]      -0.01453980 [kJ/mol]
      Ind22                         0.00077983 [mEh]       0.00048935 [kcal/mol]       0.00204746 [kJ/mol]
      Exch-Ind20,r                  0.00000126 [mEh]       0.00000079 [kcal/mol]       0.00000332 [kJ/mol]
      Exch-Ind22                   -0.00000018 [mEh]      -0.00000011 [kcal/mol]      -0.00000047 [kJ/mol]
      delta HF,r (2)               -0.00008572 [mEh]      -0.00005379 [kcal/mol]      -0.00022507 [kJ/mol]

    Dispersion                     -0.04441474 [mEh]      -0.02787067 [kcal/mol]      -0.11661089 [kJ/mol]
      Disp20                       -0.04600015 [mEh]      -0.02886553 [kcal/mol]      -0.12077337 [kJ/mol]
      Disp21                        0.00739432 [mEh]       0.00464001 [kcal/mol]       0.01941378 [kJ/mol]
      Disp22 (SDQ)                  0.00259559 [mEh]       0.00162876 [kcal/mol]       0.00681473 [kJ/mol]
      Disp22 (T)                   -0.00824940 [mEh]      -0.00517658 [kcal/mol]      -0.02165879 [kJ/mol]
      Est. Disp22 (T)              -0.00840636 [mEh]      -0.00527507 [kcal/mol]      -0.02207089 [kJ/mol]
      Exch-Disp20                   0.00000185 [mEh]       0.00000116 [kcal/mol]       0.00000486 [kJ/mol]

  Total HF                         -0.28692727 [mEh]      -0.18004958 [kcal/mol]      -0.75332745 [kJ/mol]
  Total SAPT0                      -0.33292557 [mEh]      -0.20891395 [kcal/mol]      -0.87409596 [kJ/mol]
  Total SAPT2                      -0.27367519 [mEh]      -0.17173377 [kcal/mol]      -0.71853411 [kJ/mol]
  Total SAPT2+                     -0.27209163 [mEh]      -0.17074008 [kcal/mol]      -0.71437649 [kJ/mol]

  Special recipe for scaled SAPT0 (see Manual):
    Electrostatics sSAPT0          -0.28131132 [mEh]      -0.17652552 [kcal/mol]      -0.73858278 [kJ/mol]
    Exchange sSAPT0                 0.00000643 [mEh]       0.00000404 [kcal/mol]       0.00001689 [kJ/mol]
    Induction sSAPT0               -0.00562238 [mEh]      -0.00352810 [kcal/mol]      -0.01476156 [kJ/mol]
    Dispersion sSAPT0              -0.04599830 [mEh]      -0.02886437 [kcal/mol]      -0.12076851 [kJ/mol]
  Total sSAPT0                     -0.33292557 [mEh]      -0.20891395 [kcal/mol]      -0.87409596 [kJ/mol]
  --------------------------------------------------------------------------------------------------------

*** tstop() called on node73.bme.utexas.edu at Thu Apr 23 17:00:55 2020
Module time:
	user time   =     771.68 seconds =      12.86 minutes
	system time =      31.87 seconds =       0.53 minutes
	total time  =        108 seconds =       1.80 minutes
Total time:
	user time   =     869.00 seconds =      14.48 minutes
	system time =      36.09 seconds =       0.60 minutes
	total time  =        122 seconds =       2.03 minutes

    Psi4 stopped on: Thursday, 23 April 2020 05:00PM
    Psi4 wall time for execution: 0:02:02.12

*** Psi4 exiting successfully. Buy a developer a beer!
