
    -----------------------------------------------------------------------
          Psi4: An Open-Source Ab Initio Electronic Structure Package
                               Psi4 1.4a2.dev224 

                         Git: Rev {master} e453b16 


    R. M. Parrish, L. A. Burns, D. G. A. Smith, A. C. Simmonett,
    A. E. DePrince III, E. G. Hohenstein, U. Bozkaya, A. Yu. Sokolov,
    R. Di Remigio, R. M. Richard, J. F. Gonthier, A. M. James,
    H. R. McAlexander, A. Kumar, M. Saitow, X. Wang, B. P. Pritchard,
    P. Verma, H. F. Schaefer III, K. Patkowski, R. A. King, E. F. Valeev,
    F. A. Evangelista, J. M. Turney, T. D. Crawford, and C. D. Sherrill,
    J. Chem. Theory Comput. 13(7) pp 3185--3197 (2017).
    (doi: 10.1021/acs.jctc.7b00174)


                         Additional Contributions by
    P. Kraus, H. Kruse, M. H. Lechner, M. C. Schieber, R. A. Shaw,
    A. Alenaizan, R. Galvelis, Z. L. Glick, S. Lehtola, and J. P. Misiewicz

    -----------------------------------------------------------------------


    Psi4 started on: Thursday, 23 April 2020 04:29PM

    Process ID: 94978
    Host:       node73.bme.utexas.edu
    PSIDATADIR: /home/liuchw/anaconda3/envs/psi4env/share/psi4
    Memory:     500.0 MiB
    Threads:    8
    
  ==> Input File <==

--------------------------------------------------------------------------
#Generated by lconvert.py for sapt job

memory 50 GB

molecule  {
0 1
 Br      -0.469370    1.468740   -0.609270
  C      -0.738760   -0.344380   -0.002180
  H       0.222200   -0.733380    0.310190
  H      -1.439710   -0.314630    0.822340
  H      -1.141520   -0.912800   -0.830830
--
0 1
  O       3.616580   -0.483680    0.356400
  H       4.510810   -0.200510    0.555490
  H       3.183690    0.317360    0.046740
units angstrom
no_reorient
symmetry c1
}

set {
scf_type DF
basis aug-cc-pvtz
freeze_core True
guess SAD
}
energy('sapt2+')
--------------------------------------------------------------------------

  Memory set to  46.566 GiB by Python driver.

Scratch directory: /scratch/liuchw/

  //>>>>>>>>>>>>>>>>>>>>>>>>>>>>>>>>>>>//
  //              Dimer HF             //
  //<<<<<<<<<<<<<<<<<<<<<<<<<<<<<<<<<<<//


*** tstart() called on node73.bme.utexas.edu
*** at Thu Apr 23 16:29:15 2020

   => Loading Basis Set <=

    Name: AUG-CC-PVTZ
    Role: ORBITAL
    Keyword: BASIS
    atoms 1        entry BR         line  4208 file /home/liuchw/anaconda3/envs/psi4env/share/psi4/basis/aug-cc-pvtz.gbs 
    atoms 2        entry C          line   239 file /home/liuchw/anaconda3/envs/psi4env/share/psi4/basis/aug-cc-pvtz.gbs 
    atoms 3-5, 7-8 entry H          line    40 file /home/liuchw/anaconda3/envs/psi4env/share/psi4/basis/aug-cc-pvtz.gbs 
    atoms 6        entry O          line   331 file /home/liuchw/anaconda3/envs/psi4env/share/psi4/basis/aug-cc-pvtz.gbs 


         ---------------------------------------------------------
                                   SCF
               by Justin Turney, Rob Parrish, Andy Simmonett
                          and Daniel G. A. Smith
                              RHF Reference
                        8 Threads,  47683 MiB Core
         ---------------------------------------------------------

  ==> Geometry <==

    Molecular point group: c1
    Full point group: C1

    Geometry (in Angstrom), charge = 0, multiplicity = 1:

       Center              X                  Y                   Z               Mass       
    ------------   -----------------  -----------------  -----------------  -----------------
         BR          -0.624052632253     0.556002350227    -0.238602170798    78.918337600000
         C           -0.893442632253    -1.257117649773     0.368487829202    12.000000000000
         H            0.067517367747    -1.646117649773     0.680857829202     1.007825032230
         H           -1.594392632253    -1.227367649773     1.193007829202     1.007825032230
         H           -1.296202632253    -1.825537649773    -0.460162170798     1.007825032230
         O            3.461897367747    -1.396417649773     0.727067829202    15.994914619570
         H            4.356127367747    -1.113247649773     0.926157829202     1.007825032230
         H            3.029007367747    -0.595377649773     0.417407829202     1.007825032230

  Running in c1 symmetry.

  Rotational constants: A =      0.34441  B =      0.05287  C =      0.04625 [cm^-1]
  Rotational constants: A =  10325.12553  B =   1585.07397  C =   1386.53979 [MHz]
  Nuclear repulsion =  149.820013377462402

  Charge       = 0
  Multiplicity = 1
  Electrons    = 54
  Nalpha       = 27
  Nbeta        = 27

  ==> Algorithm <==

  SCF Algorithm Type is DF.
  DIIS enabled.
  MOM disabled.
  Fractional occupation disabled.
  Guess Type is SAD.
  Energy threshold   = 1.00e-08
  Density threshold  = 1.00e-08
  Integral threshold = 0.00e+00

  ==> Primary Basis <==

  Basis Set: AUG-CC-PVTZ
    Blend: AUG-CC-PVTZ
    Number of shells: 92
    Number of basis function: 266
    Number of Cartesian functions: 304
    Spherical Harmonics?: true
    Max angular momentum: 3

   => Loading Basis Set <=

    Name: (AUG-CC-PVTZ AUX)
    Role: JKFIT
    Keyword: DF_BASIS_SCF
    atoms 1        entry BR         line  1492 file /home/liuchw/anaconda3/envs/psi4env/share/psi4/basis/aug-cc-pvtz-jkfit.gbs 
    atoms 2        entry C          line   162 file /home/liuchw/anaconda3/envs/psi4env/share/psi4/basis/aug-cc-pvtz-jkfit.gbs 
    atoms 3-5, 7-8 entry H          line    70 file /home/liuchw/anaconda3/envs/psi4env/share/psi4/basis/aug-cc-pvtz-jkfit.gbs 
    atoms 6        entry O          line   286 file /home/liuchw/anaconda3/envs/psi4env/share/psi4/basis/aug-cc-pvtz-jkfit.gbs 

  ==> Pre-Iterations <==

   -------------------------------------------------------
    Irrep   Nso     Nmo     Nalpha   Nbeta   Ndocc  Nsocc
   -------------------------------------------------------
     A        266     266       0       0       0       0
   -------------------------------------------------------
    Total     266     266      27      27      27       0
   -------------------------------------------------------

  ==> Integral Setup <==

  ==> DiskDFJK: Density-Fitted J/K Matrices <==

    J tasked:                  Yes
    K tasked:                  Yes
    wK tasked:                  No
    OpenMP threads:              8
    Integrals threads:           8
    Memory [MiB]:            35762
    Algorithm:                Core
    Integral Cache:           SAVE
    Schwarz Cutoff:          1E-12
    Fitting Condition:       1E-10

   => Auxiliary Basis Set <=

  Basis Set: (AUG-CC-PVTZ AUX)
    Blend: AUG-CC-PVTZ-JKFIT
    Number of shells: 188
    Number of basis function: 686
    Number of Cartesian functions: 866
    Spherical Harmonics?: true
    Max angular momentum: 4

  Minimum eigenvalue in the overlap matrix is 6.3550654608E-05.
  Using Symmetric Orthogonalization.

  SCF Guess: Superposition of Atomic Densities via on-the-fly atomic UHF.

  ==> Iterations <==

                           Total Energy        Delta E     RMS |[F,P]|

   @DF-RHF iter SAD: -2685.47313943966083   -2.68547e+03   0.00000e+00 
   @DF-RHF iter   1: -2687.89596281073636   -2.42282e+00   3.98700e-03 DIIS
   @DF-RHF iter   2: -2688.09334726976294   -1.97384e-01   2.00767e-03 DIIS
   @DF-RHF iter   3: -2688.15355447621823   -6.02072e-02   1.91515e-04 DIIS
   @DF-RHF iter   4: -2688.15486213582835   -1.30766e-03   7.97361e-05 DIIS
   @DF-RHF iter   5: -2688.15511445967013   -2.52324e-04   1.20140e-05 DIIS
   @DF-RHF iter   6: -2688.15512582721976   -1.13675e-05   2.97205e-06 DIIS
   @DF-RHF iter   7: -2688.15512657624276   -7.49023e-07   9.21663e-07 DIIS
   @DF-RHF iter   8: -2688.15512664091284   -6.46701e-08   3.28034e-07 DIIS
   @DF-RHF iter   9: -2688.15512664992275   -9.00991e-09   1.04624e-07 DIIS
   @DF-RHF iter  10: -2688.15512665082588   -9.03128e-10   1.77923e-08 DIIS
   @DF-RHF iter  11: -2688.15512665085953   -3.36513e-11   4.36315e-09 DIIS
  Energy and wave function converged.


  ==> Post-Iterations <==

    Orbital Energies [Eh]
    ---------------------

    Doubly Occupied:                                                      

       1A   -490.014895     2A    -65.154894     3A    -58.510162  
       4A    -58.508825     5A    -58.508818     6A    -20.568584  
       7A    -11.286407     8A     -9.827846     9A     -7.439340  
      10A     -7.432801    11A     -7.432747    12A     -3.182884  
      13A     -3.179507    14A     -3.179439    15A     -3.171071  
      16A     -3.171067    17A     -1.353242    18A     -1.064266  
      19A     -0.897041    20A     -0.715908    21A     -0.612792  
      22A     -0.612212    23A     -0.586898    24A     -0.511256  
      25A     -0.507372    26A     -0.403933    27A     -0.403231  

    Virtual:                                                              

      28A      0.028208    29A      0.036800    30A      0.047262  
      31A      0.051475    32A      0.065220    33A      0.077734  
      34A      0.103134    35A      0.114624    36A      0.125033  
      37A      0.126366    38A      0.137876    39A      0.139076  
      40A      0.151740    41A      0.170700    42A      0.177391  
      43A      0.188546    44A      0.197526    45A      0.206775  
      46A      0.217400    47A      0.238440    48A      0.262412  
      49A      0.263053    50A      0.273542    51A      0.279732  
      52A      0.290783    53A      0.296454    54A      0.319525  
      55A      0.330757    56A      0.337559    57A      0.341240  
      58A      0.346429    59A      0.357886    60A      0.372862  
      61A      0.383933    62A      0.392939    63A      0.398319  
      64A      0.403275    65A      0.419071    66A      0.429888  
      67A      0.435711    68A      0.448606    69A      0.454784  
      70A      0.467332    71A      0.473983    72A      0.491625  
      73A      0.512112    74A      0.527310    75A      0.563141  
      76A      0.583003    77A      0.593000    78A      0.625523  
      79A      0.636916    80A      0.663751    81A      0.679058  
      82A      0.709700    83A      0.724875    84A      0.734124  
      85A      0.745496    86A      0.758566    87A      0.776925  
      88A      0.791504    89A      0.817553    90A      0.825163  
      91A      0.833485    92A      0.845653    93A      0.852044  
      94A      0.870243    95A      0.888459    96A      0.894677  
      97A      0.899376    98A      0.906136    99A      0.924508  
     100A      0.936385   101A      0.945084   102A      0.954155  
     103A      0.962386   104A      0.964996   105A      0.967244  
     106A      0.981988   107A      0.992339   108A      0.995236  
     109A      1.010745   110A      1.016719   111A      1.036075  
     112A      1.052965   113A      1.074132   114A      1.075163  
     115A      1.095998   116A      1.099899   117A      1.104428  
     118A      1.128550   119A      1.139202   120A      1.144359  
     121A      1.153464   122A      1.191249   123A      1.192520  
     124A      1.226217   125A      1.240489   126A      1.252173  
     127A      1.266183   128A      1.277541   129A      1.298805  
     130A      1.334132   131A      1.339197   132A      1.418892  
     133A      1.447865   134A      1.477457   135A      1.481676  
     136A      1.531287   137A      1.563756   138A      1.582533  
     139A      1.592439   140A      1.595450   141A      1.612154  
     142A      1.630924   143A      1.648872   144A      1.664248  
     145A      1.674501   146A      1.719803   147A      1.722439  
     148A      1.731614   149A      1.831151   150A      1.853862  
     151A      1.907926   152A      1.937597   153A      1.959849  
     154A      1.998628   155A      2.010346   156A      2.048235  
     157A      2.084144   158A      2.133609   159A      2.166934  
     160A      2.176343   161A      2.250995   162A      2.269368  
     163A      2.275561   164A      2.298379   165A      2.318692  
     166A      2.343810   167A      2.353739   168A      2.361470  
     169A      2.376915   170A      2.400565   171A      2.426758  
     172A      2.436766   173A      2.446656   174A      2.456679  
     175A      2.480495   176A      2.519511   177A      2.531031  
     178A      2.545902   179A      2.552027   180A      2.611885  
     181A      2.628585   182A      2.664681   183A      2.719986  
     184A      2.730398   185A      2.810499   186A      2.871237  
     187A      2.895837   188A      2.936910   189A      3.041225  
     190A      3.316934   191A      3.323574   192A      3.482964  
     193A      3.498873   194A      3.531313   195A      3.563613  
     196A      3.586099   197A      3.593484   198A      3.682150  
     199A      3.731097   200A      3.766136   201A      3.789346  
     202A      3.919434   203A      3.932790   204A      3.937749  
     205A      4.025772   206A      4.041724   207A      4.059537  
     208A      4.075853   209A      4.086209   210A      4.102669  
     211A      4.126258   212A      4.152494   213A      4.199545  
     214A      4.223315   215A      4.277625   216A      4.310475  
     217A      4.387766   218A      4.403729   219A      4.427766  
     220A      4.445587   221A      4.457060   222A      4.492357  
     223A      4.538436   224A      4.745401   225A      4.752797  
     226A      4.770067   227A      4.850060   228A      4.858944  
     229A      4.864029   230A      4.935036   231A      4.943484  
     232A      5.062564   233A      5.151320   234A      5.155333  
     235A      5.162167   236A      5.167394   237A      5.271173  
     238A      5.298490   239A      5.345785   240A      5.483812  
     241A      5.490974   242A      5.527279   243A      5.606318  
     244A      5.699028   245A      5.707355   246A      6.017091  
     247A      6.035826   248A      6.134624   249A      6.201421  
     250A      6.545249   251A      6.585054   252A      6.600611  
     253A      6.724890   254A      6.917758   255A      7.139471  
     256A      7.268536   257A      7.314570   258A      7.322489  
     259A      7.360614   260A      7.371342   261A      7.551823  
     262A      7.908554   263A      7.938841   264A      8.818488  
     265A     15.840531   266A     17.114526  

    Final Occupation by Irrep:
              A 
    DOCC [    27 ]

  @DF-RHF Final Energy: -2688.15512665085953

   => Energetics <=

    Nuclear Repulsion Energy =            149.8200133774624021
    One-Electron Energy =               -4039.4754054068721416
    Two-Electron Energy =                1201.5002653785497841
    Total Energy =                      -2688.1551266508595290

Computation Completed


Properties will be evaluated at   0.000000,   0.000000,   0.000000 [a0]

Properties computed using the SCF density matrix

  Nuclear Dipole Moment: [e a0]
     X:     9.5521      Y:   -10.6989      Z:     4.5990

  Electronic Dipole Moment: [e a0]
     X:    -9.3849      Y:    10.5919      Z:    -4.3989

  Dipole Moment: [e a0]
     X:     0.1671      Y:    -0.1070      Z:     0.2000     Total:     0.2818

  Dipole Moment: [D]
     X:     0.4248      Y:    -0.2720      Z:     0.5085     Total:     0.7162


*** tstop() called on node73.bme.utexas.edu at Thu Apr 23 16:29:21 2020
Module time:
	user time   =      37.71 seconds =       0.63 minutes
	system time =       1.68 seconds =       0.03 minutes
	total time  =          6 seconds =       0.10 minutes
Total time:
	user time   =      37.71 seconds =       0.63 minutes
	system time =       1.68 seconds =       0.03 minutes
	total time  =          6 seconds =       0.10 minutes

  //>>>>>>>>>>>>>>>>>>>>>>>>>>>>>>>>>>>//
  //            Monomer A HF           //
  //<<<<<<<<<<<<<<<<<<<<<<<<<<<<<<<<<<<//


*** tstart() called on node73.bme.utexas.edu
*** at Thu Apr 23 16:29:21 2020

   => Loading Basis Set <=

    Name: AUG-CC-PVTZ
    Role: ORBITAL
    Keyword: BASIS
    atoms 1        entry BR         line  4208 file /home/liuchw/anaconda3/envs/psi4env/share/psi4/basis/aug-cc-pvtz.gbs 
    atoms 2        entry C          line   239 file /home/liuchw/anaconda3/envs/psi4env/share/psi4/basis/aug-cc-pvtz.gbs 
    atoms 3-5, 7-8 entry H          line    40 file /home/liuchw/anaconda3/envs/psi4env/share/psi4/basis/aug-cc-pvtz.gbs 
    atoms 6        entry O          line   331 file /home/liuchw/anaconda3/envs/psi4env/share/psi4/basis/aug-cc-pvtz.gbs 


         ---------------------------------------------------------
                                   SCF
               by Justin Turney, Rob Parrish, Andy Simmonett
                          and Daniel G. A. Smith
                              RHF Reference
                        8 Threads,  47683 MiB Core
         ---------------------------------------------------------

  ==> Geometry <==

    Molecular point group: c1
    Full point group: C1

    Geometry (in Angstrom), charge = 0, multiplicity = 1:

       Center              X                  Y                   Z               Mass       
    ------------   -----------------  -----------------  -----------------  -----------------
         BR          -0.624052632253     0.556002350227    -0.238602170798    78.918337600000
         C           -0.893442632253    -1.257117649773     0.368487829202    12.000000000000
         H            0.067517367747    -1.646117649773     0.680857829202     1.007825032230
         H           -1.594392632253    -1.227367649773     1.193007829202     1.007825032230
         H           -1.296202632253    -1.825537649773    -0.460162170798     1.007825032230
      Gh(O)           3.461897367747    -1.396417649773     0.727067829202    15.994914619570
      Gh(H)           4.356127367747    -1.113247649773     0.926157829202     1.007825032230
      Gh(H)           3.029007367747    -0.595377649773     0.417407829202     1.007825032230

  Running in c1 symmetry.

  Rotational constants: A =      0.34441  B =      0.05287  C =      0.04625 [cm^-1]
  Rotational constants: A =  10325.12553  B =   1585.07397  C =   1386.53979 [MHz]
  Nuclear repulsion =   89.602357152695703

  Charge       = 0
  Multiplicity = 1
  Electrons    = 44
  Nalpha       = 22
  Nbeta        = 22

  ==> Algorithm <==

  SCF Algorithm Type is DF.
  DIIS enabled.
  MOM disabled.
  Fractional occupation disabled.
  Guess Type is SAD.
  Energy threshold   = 1.00e-08
  Density threshold  = 1.00e-08
  Integral threshold = 0.00e+00

  ==> Primary Basis <==

  Basis Set: AUG-CC-PVTZ
    Blend: AUG-CC-PVTZ
    Number of shells: 92
    Number of basis function: 266
    Number of Cartesian functions: 304
    Spherical Harmonics?: true
    Max angular momentum: 3

   => Loading Basis Set <=

    Name: (AUG-CC-PVTZ AUX)
    Role: JKFIT
    Keyword: DF_BASIS_SCF
    atoms 1        entry BR         line  1492 file /home/liuchw/anaconda3/envs/psi4env/share/psi4/basis/aug-cc-pvtz-jkfit.gbs 
    atoms 2        entry C          line   162 file /home/liuchw/anaconda3/envs/psi4env/share/psi4/basis/aug-cc-pvtz-jkfit.gbs 
    atoms 3-5, 7-8 entry H          line    70 file /home/liuchw/anaconda3/envs/psi4env/share/psi4/basis/aug-cc-pvtz-jkfit.gbs 
    atoms 6        entry O          line   286 file /home/liuchw/anaconda3/envs/psi4env/share/psi4/basis/aug-cc-pvtz-jkfit.gbs 

  ==> Pre-Iterations <==

   -------------------------------------------------------
    Irrep   Nso     Nmo     Nalpha   Nbeta   Ndocc  Nsocc
   -------------------------------------------------------
     A        266     266       0       0       0       0
   -------------------------------------------------------
    Total     266     266      22      22      22       0
   -------------------------------------------------------

  ==> Integral Setup <==

  ==> DiskDFJK: Density-Fitted J/K Matrices <==

    J tasked:                  Yes
    K tasked:                  Yes
    wK tasked:                  No
    OpenMP threads:              8
    Integrals threads:           8
    Memory [MiB]:            35762
    Algorithm:                Core
    Integral Cache:           LOAD
    Schwarz Cutoff:          1E-12
    Fitting Condition:       1E-10

   => Auxiliary Basis Set <=

  Basis Set: (AUG-CC-PVTZ AUX)
    Blend: AUG-CC-PVTZ-JKFIT
    Number of shells: 188
    Number of basis function: 686
    Number of Cartesian functions: 866
    Spherical Harmonics?: true
    Max angular momentum: 4

  Minimum eigenvalue in the overlap matrix is 6.3550654608E-05.
  Using Symmetric Orthogonalization.

  SCF Guess: Superposition of Atomic Densities via on-the-fly atomic UHF.

  ==> Iterations <==

                           Total Energy        Delta E     RMS |[F,P]|

   @DF-RHF iter SAD: -2609.98948250183412   -2.60999e+03   0.00000e+00 
   @DF-RHF iter   1: -2611.91655164249596   -1.92707e+00   3.58410e-03 DIIS
   @DF-RHF iter   2: -2612.06219690035596   -1.45645e-01   1.62085e-03 DIIS
   @DF-RHF iter   3: -2612.09225418365077   -3.00573e-02   9.40985e-05 DIIS
   @DF-RHF iter   4: -2612.09289275790798   -6.38574e-04   2.79390e-05 DIIS
   @DF-RHF iter   5: -2612.09294749921173   -5.47413e-05   8.72203e-06 DIIS
   @DF-RHF iter   6: -2612.09295170505857   -4.20585e-06   2.13820e-06 DIIS
   @DF-RHF iter   7: -2612.09295199224289   -2.87184e-07   4.84441e-07 DIIS
   @DF-RHF iter   8: -2612.09295202028898   -2.80461e-08   1.49536e-07 DIIS
   @DF-RHF iter   9: -2612.09295202336034   -3.07136e-09   2.35902e-08 DIIS
   @DF-RHF iter  10: -2612.09295202343083   -7.04858e-11   2.50722e-09 DIIS
  Energy and wave function converged.


  ==> Post-Iterations <==

    Orbital Energies [Eh]
    ---------------------

    Doubly Occupied:                                                      

       1A   -490.013082     2A    -65.153060     3A    -58.508344  
       4A    -58.506974     5A    -58.506974     6A    -11.287652  
       7A     -9.825998     8A     -7.437555     9A     -7.430871  
      10A     -7.430871    11A     -3.181132    12A     -3.177665  
      13A     -3.177663    14A     -3.169112    15A     -3.169108  
      16A     -1.063648    17A     -0.897074    18A     -0.614256  
      19A     -0.613226    20A     -0.506754    21A     -0.401652  
      22A     -0.401541  

    Virtual:                                                              

      23A      0.024553    24A      0.036494    25A      0.045556  
      26A      0.050855    27A      0.062483    28A      0.079355  
      29A      0.100876    30A      0.112112    31A      0.115637  
      32A      0.123233    33A      0.134353    34A      0.137942  
      35A      0.140013    36A      0.152737    37A      0.162723  
      38A      0.171863    39A      0.190495    40A      0.204375  
      41A      0.218064    42A      0.245423    43A      0.262590  
      44A      0.271423    45A      0.279341    46A      0.284296  
      47A      0.293548    48A      0.304238    49A      0.320062  
      50A      0.330504    51A      0.334621    52A      0.340033  
      53A      0.349222    54A      0.358489    55A      0.374205  
      56A      0.376440    57A      0.386149    58A      0.398014  
      59A      0.399980    60A      0.400297    61A      0.417387  
      62A      0.434238    63A      0.443378    64A      0.448139  
      65A      0.453130    66A      0.476997    67A      0.479610  
      68A      0.505389    69A      0.515209    70A      0.559837  
      71A      0.583472    72A      0.596152    73A      0.627751  
      74A      0.639825    75A      0.657676    76A      0.675550  
      77A      0.687349    78A      0.714290    79A      0.759109  
      80A      0.780541    81A      0.783628    82A      0.800934  
      83A      0.808213    84A      0.812235    85A      0.821306  
      86A      0.826468    87A      0.834162    88A      0.842518  
      89A      0.863401    90A      0.869257    91A      0.880494  
      92A      0.888494    93A      0.903745    94A      0.913995  
      95A      0.922647    96A      0.937408    97A      0.951151  
      98A      0.959293    99A      0.966082   100A      0.970700  
     101A      0.993226   102A      0.994354   103A      0.999830  
     104A      1.018443   105A      1.028938   106A      1.039033  
     107A      1.061787   108A      1.070809   109A      1.078443  
     110A      1.084594   111A      1.102775   112A      1.111200  
     113A      1.129603   114A      1.138106   115A      1.143328  
     116A      1.155964   117A      1.196626   118A      1.213237  
     119A      1.238237   120A      1.252064   121A      1.258696  
     122A      1.276051   123A      1.295668   124A      1.305842  
     125A      1.338399   126A      1.421818   127A      1.444525  
     128A      1.450082   129A      1.474024   130A      1.491961  
     131A      1.505767   132A      1.566675   133A      1.589167  
     134A      1.596056   135A      1.625427   136A      1.639276  
     137A      1.655766   138A      1.675737   139A      1.703854  
     140A      1.715463   141A      1.723858   142A      1.727670  
     143A      1.729492   144A      1.767338   145A      1.836284  
     146A      1.855034   147A      1.906515   148A      1.931546  
     149A      1.958193   150A      2.008335   151A      2.046760  
     152A      2.085990   153A      2.098620   154A      2.164551  
     155A      2.172474   156A      2.255242   157A      2.275208  
     158A      2.294257   159A      2.345690   160A      2.346412  
     161A      2.359622   162A      2.376748   163A      2.390828  
     164A      2.405415   165A      2.433472   166A      2.455752  
     167A      2.487504   168A      2.526228   169A      2.535541  
     170A      2.543280   171A      2.545864   172A      2.549391  
     173A      2.575325   174A      2.597842   175A      2.615110  
     176A      2.641763   177A      2.651391   178A      2.703244  
     179A      2.899368   180A      2.932106   181A      3.038210  
     182A      3.160789   183A      3.183794   184A      3.202524  
     185A      3.309814   186A      3.317787   187A      3.322684  
     188A      3.351681   189A      3.482537   190A      3.499109  
     191A      3.532012   192A      3.538696   193A      3.562673  
     194A      3.585527   195A      3.595458   196A      3.681741  
     197A      3.729941   198A      3.767716   199A      3.919099  
     200A      3.931423   201A      3.938733   202A      4.025609  
     203A      4.057885   204A      4.078542   205A      4.089731  
     206A      4.124883   207A      4.149813   208A      4.221559  
     209A      4.374090   210A      4.435177   211A      4.445984  
     212A      4.459995   213A      4.479440   214A      4.492977  
     215A      4.607873   216A      4.678242   217A      4.701849  
     218A      4.749933   219A      4.771833   220A      4.845955  
     221A      4.860414   222A      4.875169   223A      4.889551  
     224A      4.905197   225A      4.934105   226A      4.946765  
     227A      5.066709   228A      5.151136   229A      5.159276  
     230A      5.216723   231A      5.296206   232A      5.482152  
     233A      5.488244   234A      5.554357   235A      5.598380  
     236A      5.618673   237A      5.650035   238A      5.699914  
     239A      5.845073   240A      6.015548   241A      6.034001  
     242A      6.106662   243A      6.136472   244A      6.390032  
     245A      6.583637   246A      6.593509   247A      6.634297  
     248A      7.072551   249A      7.670422   250A      7.819153  
     251A      8.044160   252A      8.160923   253A      8.283006  
     254A      8.738339   255A      8.835884   256A      9.651807  
     257A      9.835545   258A      9.994215   259A     10.226139  
     260A     11.236154   261A     11.606822   262A     12.101466  
     263A     13.527419   264A     13.801203   265A     17.112234  
     266A     64.661406  

    Final Occupation by Irrep:
              A 
    DOCC [    22 ]

  @DF-RHF Final Energy: -2612.09295202343083

   => Energetics <=

    Nuclear Repulsion Energy =             89.6023571526957028
    One-Electron Energy =               -3814.4421941071886977
    Two-Electron Energy =                1112.7468849310619134
    Total Energy =                      -2612.0929520234312804

Computation Completed


Properties will be evaluated at   0.000000,   0.000000,   0.000000 [a0]

Properties computed using the SCF density matrix

  Nuclear Dipole Moment: [e a0]
     X:   -56.7401      Y:    13.6407      Z:    -8.9317

  Electronic Dipole Moment: [e a0]
     X:    56.6218      Y:   -14.4308      Z:     9.1958

  Dipole Moment: [e a0]
     X:    -0.1183      Y:    -0.7901      Z:     0.2641     Total:     0.8414

  Dipole Moment: [D]
     X:    -0.3007      Y:    -2.0082      Z:     0.6713     Total:     2.1387


*** tstop() called on node73.bme.utexas.edu at Thu Apr 23 16:29:25 2020
Module time:
	user time   =      22.24 seconds =       0.37 minutes
	system time =       0.93 seconds =       0.02 minutes
	total time  =          4 seconds =       0.07 minutes
Total time:
	user time   =      60.01 seconds =       1.00 minutes
	system time =       2.61 seconds =       0.04 minutes
	total time  =         10 seconds =       0.17 minutes

  //>>>>>>>>>>>>>>>>>>>>>>>>>>>>>>>>>>>//
  //            Monomer B HF           //
  //<<<<<<<<<<<<<<<<<<<<<<<<<<<<<<<<<<<//


*** tstart() called on node73.bme.utexas.edu
*** at Thu Apr 23 16:29:25 2020

   => Loading Basis Set <=

    Name: AUG-CC-PVTZ
    Role: ORBITAL
    Keyword: BASIS
    atoms 1        entry BR         line  4208 file /home/liuchw/anaconda3/envs/psi4env/share/psi4/basis/aug-cc-pvtz.gbs 
    atoms 2        entry C          line   239 file /home/liuchw/anaconda3/envs/psi4env/share/psi4/basis/aug-cc-pvtz.gbs 
    atoms 3-5, 7-8 entry H          line    40 file /home/liuchw/anaconda3/envs/psi4env/share/psi4/basis/aug-cc-pvtz.gbs 
    atoms 6        entry O          line   331 file /home/liuchw/anaconda3/envs/psi4env/share/psi4/basis/aug-cc-pvtz.gbs 


         ---------------------------------------------------------
                                   SCF
               by Justin Turney, Rob Parrish, Andy Simmonett
                          and Daniel G. A. Smith
                              RHF Reference
                        8 Threads,  47683 MiB Core
         ---------------------------------------------------------

  ==> Geometry <==

    Molecular point group: c1
    Full point group: C1

    Geometry (in Angstrom), charge = 0, multiplicity = 1:

       Center              X                  Y                   Z               Mass       
    ------------   -----------------  -----------------  -----------------  -----------------
      Gh(BR)         -0.624052632253     0.556002350227    -0.238602170798    78.918337600000
      Gh(C)          -0.893442632253    -1.257117649773     0.368487829202    12.000000000000
      Gh(H)           0.067517367747    -1.646117649773     0.680857829202     1.007825032230
      Gh(H)          -1.594392632253    -1.227367649773     1.193007829202     1.007825032230
      Gh(H)          -1.296202632253    -1.825537649773    -0.460162170798     1.007825032230
         O            3.461897367747    -1.396417649773     0.727067829202    15.994914619570
         H            4.356127367747    -1.113247649773     0.926157829202     1.007825032230
         H            3.029007367747    -0.595377649773     0.417407829202     1.007825032230

  Running in c1 symmetry.

  Rotational constants: A =      0.34441  B =      0.05287  C =      0.04625 [cm^-1]
  Rotational constants: A =  10325.12553  B =   1585.07397  C =   1386.53979 [MHz]
  Nuclear repulsion =    9.166560721130553

  Charge       = 0
  Multiplicity = 1
  Electrons    = 10
  Nalpha       = 5
  Nbeta        = 5

  ==> Algorithm <==

  SCF Algorithm Type is DF.
  DIIS enabled.
  MOM disabled.
  Fractional occupation disabled.
  Guess Type is SAD.
  Energy threshold   = 1.00e-08
  Density threshold  = 1.00e-08
  Integral threshold = 0.00e+00

  ==> Primary Basis <==

  Basis Set: AUG-CC-PVTZ
    Blend: AUG-CC-PVTZ
    Number of shells: 92
    Number of basis function: 266
    Number of Cartesian functions: 304
    Spherical Harmonics?: true
    Max angular momentum: 3

   => Loading Basis Set <=

    Name: (AUG-CC-PVTZ AUX)
    Role: JKFIT
    Keyword: DF_BASIS_SCF
    atoms 1        entry BR         line  1492 file /home/liuchw/anaconda3/envs/psi4env/share/psi4/basis/aug-cc-pvtz-jkfit.gbs 
    atoms 2        entry C          line   162 file /home/liuchw/anaconda3/envs/psi4env/share/psi4/basis/aug-cc-pvtz-jkfit.gbs 
    atoms 3-5, 7-8 entry H          line    70 file /home/liuchw/anaconda3/envs/psi4env/share/psi4/basis/aug-cc-pvtz-jkfit.gbs 
    atoms 6        entry O          line   286 file /home/liuchw/anaconda3/envs/psi4env/share/psi4/basis/aug-cc-pvtz-jkfit.gbs 

  ==> Pre-Iterations <==

   -------------------------------------------------------
    Irrep   Nso     Nmo     Nalpha   Nbeta   Ndocc  Nsocc
   -------------------------------------------------------
     A        266     266       0       0       0       0
   -------------------------------------------------------
    Total     266     266       5       5       5       0
   -------------------------------------------------------

  ==> Integral Setup <==

  ==> DiskDFJK: Density-Fitted J/K Matrices <==

    J tasked:                  Yes
    K tasked:                  Yes
    wK tasked:                  No
    OpenMP threads:              8
    Integrals threads:           8
    Memory [MiB]:            35762
    Algorithm:                Core
    Integral Cache:           LOAD
    Schwarz Cutoff:          1E-12
    Fitting Condition:       1E-10

   => Auxiliary Basis Set <=

  Basis Set: (AUG-CC-PVTZ AUX)
    Blend: AUG-CC-PVTZ-JKFIT
    Number of shells: 188
    Number of basis function: 686
    Number of Cartesian functions: 866
    Spherical Harmonics?: true
    Max angular momentum: 4

  Minimum eigenvalue in the overlap matrix is 6.3550654608E-05.
  Using Symmetric Orthogonalization.

  SCF Guess: Superposition of Atomic Densities via on-the-fly atomic UHF.

  ==> Iterations <==

                           Total Energy        Delta E     RMS |[F,P]|

   @DF-RHF iter SAD:   -75.47512047982741   -7.54751e+01   0.00000e+00 
   @DF-RHF iter   1:   -75.97591588222302   -5.00795e-01   1.76098e-03 DIIS
   @DF-RHF iter   2:   -76.02839796661756   -5.24821e-02   1.20202e-03 DIIS
   @DF-RHF iter   3:   -76.05993401940674   -3.15361e-02   8.16515e-05 DIIS
   @DF-RHF iter   4:   -76.06032362946235   -3.89610e-04   1.95790e-05 DIIS
   @DF-RHF iter   5:   -76.06034807125762   -2.44418e-05   4.44951e-06 DIIS
   @DF-RHF iter   6:   -76.06035007267873   -2.00142e-06   9.73787e-07 DIIS
   @DF-RHF iter   7:   -76.06035017807490   -1.05396e-07   1.75140e-07 DIIS
   @DF-RHF iter   8:   -76.06035018107058   -2.99568e-09   2.93765e-08 DIIS
   @DF-RHF iter   9:   -76.06035018113636   -6.57820e-11   7.20244e-09 DIIS
  Energy and wave function converged.


  ==> Post-Iterations <==

    Orbital Energies [Eh]
    ---------------------

    Doubly Occupied:                                                      

       1A    -20.568005     2A     -1.352447     3A     -0.715021  
       4A     -0.585511     5A     -0.510280  

    Virtual:                                                              

       6A      0.021511     7A      0.035516     8A      0.046118  
       9A      0.048025    10A      0.063393    11A      0.072408  
      12A      0.096843    13A      0.098131    14A      0.106807  
      15A      0.114653    16A      0.125750    17A      0.136956  
      18A      0.150501    19A      0.158783    20A      0.171649  
      21A      0.189826    22A      0.198868    23A      0.232304  
      24A      0.246420    25A      0.260950    26A      0.266592  
      27A      0.281283    28A      0.289810    29A      0.294813  
      30A      0.301992    31A      0.306607    32A      0.309540  
      33A      0.311780    34A      0.332536    35A      0.342996  
      36A      0.346923    37A      0.348981    38A      0.357626  
      39A      0.377373    40A      0.390059    41A      0.398418  
      42A      0.406513    43A      0.411256    44A      0.430093  
      45A      0.441366    46A      0.455405    47A      0.479443  
      48A      0.484552    49A      0.494775    50A      0.510395  
      51A      0.528870    52A      0.539419    53A      0.545129  
      54A      0.569960    55A      0.598964    56A      0.604756  
      57A      0.627871    58A      0.650242    59A      0.668680  
      60A      0.685056    61A      0.700756    62A      0.730523  
      63A      0.741533    64A      0.751002    65A      0.764002  
      66A      0.846564    67A      0.855249    68A      0.907763  
      69A      0.914903    70A      0.927014    71A      0.939155  
      72A      0.943646    73A      0.954828    74A      0.966333  
      75A      0.982940    76A      0.988564    77A      0.998147  
      78A      1.012112    79A      1.012787    80A      1.027813  
      81A      1.033561    82A      1.048760    83A      1.052209  
      84A      1.058551    85A      1.071042    86A      1.076419  
      87A      1.079500    88A      1.087232    89A      1.096218  
      90A      1.109369    91A      1.114954    92A      1.125870  
      93A      1.149617    94A      1.156236    95A      1.165479  
      96A      1.175565    97A      1.192005    98A      1.197635  
      99A      1.201345   100A      1.216074   101A      1.223232  
     102A      1.236288   103A      1.242745   104A      1.278814  
     105A      1.297692   106A      1.307098   107A      1.314185  
     108A      1.336526   109A      1.353022   110A      1.363852  
     111A      1.375452   112A      1.398390   113A      1.408421  
     114A      1.416360   115A      1.438783   116A      1.514777  
     117A      1.543855   118A      1.563333   119A      1.596849  
     120A      1.629972   121A      1.728786   122A      1.739734  
     123A      1.768308   124A      1.824299   125A      1.831158  
     126A      1.837268   127A      1.867681   128A      1.874897  
     129A      1.908245   130A      1.914760   131A      1.941068  
     132A      1.985890   133A      2.000996   134A      2.063128  
     135A      2.086408   136A      2.122539   137A      2.144950  
     138A      2.244691   139A      2.249041   140A      2.277310  
     141A      2.295988   142A      2.329274   143A      2.390006  
     144A      2.414282   145A      2.422451   146A      2.432993  
     147A      2.442216   148A      2.459444   149A      2.513813  
     150A      2.548341   151A      2.695288   152A      2.697402  
     153A      2.721619   154A      2.758673   155A      2.799185  
     156A      2.826810   157A      2.877524   158A      2.895211  
     159A      2.971121   160A      3.015070   161A      3.151426  
     162A      3.177384   163A      3.248734   164A      3.249518  
     165A      3.278464   166A      3.300541   167A      3.334344  
     168A      3.367899   169A      3.434063   170A      3.451828  
     171A      3.489130   172A      3.489582   173A      3.668083  
     174A      3.691310   175A      3.717450   176A      3.791001  
     177A      3.947735   178A      4.031428   179A      4.058735  
     180A      4.086764   181A      4.094150   182A      4.112412  
     183A      4.127729   184A      4.138172   185A      4.200585  
     186A      4.274958   187A      4.306941   188A      4.386375  
     189A      4.397957   190A      4.403259   191A      4.409835  
     192A      4.414401   193A      4.438004   194A      4.474983  
     195A      4.482472   196A      4.505019   197A      4.542913  
     198A      4.620515   199A      4.627522   200A      4.742813  
     201A      4.750153   202A      4.805885   203A      4.856768  
     204A      4.866756   205A      4.889968   206A      4.901824  
     207A      4.909496   208A      5.152890   209A      5.163583  
     210A      5.228501   211A      5.235670   212A      5.273722  
     213A      5.295444   214A      5.321850   215A      5.344370  
     216A      5.380523   217A      5.490633   218A      5.491528  
     219A      5.528195   220A      5.621967   221A      5.640322  
     222A      5.698075   223A      5.707120   224A      6.054157  
     225A      6.141998   226A      6.157030   227A      6.201994  
     228A      6.313112   229A      6.545112   230A      6.578535  
     231A      6.630695   232A      6.726369   233A      6.918732  
     234A      7.140116   235A      7.193692   236A      7.269563  
     237A      7.315343   238A      7.323449   239A      7.361686  
     240A      7.372422   241A      7.474198   242A      7.552226  
     243A      7.744244   244A      7.748959   245A      7.909548  
     246A      7.940205   247A      8.149513   248A      8.153351  
     249A      8.819178   250A     10.315833   251A     10.631046  
     252A     13.612607   253A     13.661152   254A     14.360526  
     255A     15.842531   256A     26.179440   257A     26.206376  
     258A     26.336874   259A     26.337187   260A     26.590654  
     261A     46.218809   262A     51.655646   263A    138.652181  
     264A    138.727910   265A    139.831767   266A    710.875541  

    Final Occupation by Irrep:
              A 
    DOCC [     5 ]

  @DF-RHF Final Energy:   -76.06035018113636

   => Energetics <=

    Nuclear Repulsion Energy =              9.1665607211305531
    One-Electron Energy =                -122.9912905422340685
    Two-Electron Energy =                  37.7643796399671530
    Total Energy =                        -76.0603501811363572

Computation Completed


Properties will be evaluated at   0.000000,   0.000000,   0.000000 [a0]

Properties computed using the SCF density matrix

  Nuclear Dipole Moment: [e a0]
     X:    66.2922      Y:   -24.3396      Z:    13.5306

  Electronic Dipole Moment: [e a0]
     X:   -65.9858      Y:    25.0587      Z:   -13.6037

  Dipole Moment: [e a0]
     X:     0.3064      Y:     0.7190      Z:    -0.0731     Total:     0.7850

  Dipole Moment: [D]
     X:     0.7788      Y:     1.8276      Z:    -0.1858     Total:     1.9953


*** tstop() called on node73.bme.utexas.edu at Thu Apr 23 16:29:28 2020
Module time:
	user time   =      15.49 seconds =       0.26 minutes
	system time =       0.65 seconds =       0.01 minutes
	total time  =          3 seconds =       0.05 minutes
Total time:
	user time   =      75.56 seconds =       1.26 minutes
	system time =       3.26 seconds =       0.05 minutes
	total time  =         13 seconds =       0.22 minutes
  Constructing Basis Sets for SAPT...

   => Loading Basis Set <=

    Name: (AUG-CC-PVTZ AUX)
    Role: RIFIT
    Keyword: DF_BASIS_SAPT
    atoms 1        entry BR         line  1248 file /home/liuchw/anaconda3/envs/psi4env/share/psi4/basis/aug-cc-pvtz-ri.gbs 
    atoms 2        entry C          line   148 file /home/liuchw/anaconda3/envs/psi4env/share/psi4/basis/aug-cc-pvtz-ri.gbs 
    atoms 3-5, 7-8 entry H          line    30 file /home/liuchw/anaconda3/envs/psi4env/share/psi4/basis/aug-cc-pvtz-ri.gbs 
    atoms 6        entry O          line   264 file /home/liuchw/anaconda3/envs/psi4env/share/psi4/basis/aug-cc-pvtz-ri.gbs 


  //>>>>>>>>>>>>>>>>>>>>>>>>>>>>>>>>>>>//
  //               SAPT2+              //
  //<<<<<<<<<<<<<<<<<<<<<<<<<<<<<<<<<<<//


*** tstart() called on node73.bme.utexas.edu
*** at Thu Apr 23 16:29:28 2020

        SAPT2+  
    Ed Hohenstein
     6 June 2009

      Orbital Information
  --------------------------
    NSO        =       266
    NMO        =       266
    NRI        =       633
    NOCC A     =        22
    NOCC B     =         5
    FOCC A     =        10
    FOCC B     =         1
    NVIR A     =       244
    NVIR B     =       261

    Estimated memory usage: 1136.3 MB

    Natural Orbital Cutoff:   1.000E-06
    Disp(T3) Truncation:            Yes
    CCD (vv|vv) Truncation:         Yes
    MBPT T2 Truncation:             Yes

    Monomer A: 104 virtual orbitals dropped
    Monomer B: 183 virtual orbitals dropped

    Elst10,r            =    -0.001813292062 [Eh]
    Exch10 (S^2)        =     0.000121265104 [Eh]
    Exch10              =     0.000121270537 [Eh]
    Ind20,r (A<-B)      =    -0.000117694836 [Eh]
    Ind20,r (B<-A)      =    -0.000026609809 [Eh]
    Ind20,r             =    -0.000144304645 [Eh]
    Exch-Ind20,r (A<-B) =     0.000016776391 [Eh]
    Exch-Ind20,r (B<-A) =     0.000003450622 [Eh]
    Exch-Ind20,r        =     0.000020227013 [Eh]
    Disp20              =    -0.000636921770 [Eh]
    Disp20 (NO)         =    -0.000592337882 [Eh]
    Exch-Disp20         =     0.000014436497 [Eh]
    Elst12,r            =     0.000240726262 [Eh]
    Exch11              =     0.000001974453 [Eh]
    Exch12              =     0.000021112006 [Eh]
    Ind22               =     0.000000320951 [Eh]
    Disp21              =     0.000056278826 [Eh]
    Disp22 (SDQ)        =     0.000012815610 [Eh]

    (i =   1 of   4)          4 seconds
    (i =   2 of   4)          8 seconds
    (i =   3 of   4)         12 seconds
    (i =   4 of   4)         16 seconds

    Disp220 (T)         =    -0.000043652129 [Eh]

    (i =   1 of  12)          0 seconds
    (i =   2 of  12)          1 seconds
    (i =   3 of  12)          1 seconds
    (i =   4 of  12)          2 seconds
    (i =   5 of  12)          2 seconds
    (i =   6 of  12)          3 seconds
    (i =   7 of  12)          3 seconds
    (i =   8 of  12)          4 seconds
    (i =   9 of  12)          4 seconds
    (i =  10 of  12)          5 seconds
    (i =  11 of  12)          5 seconds
    (i =  12 of  12)          6 seconds

    Disp202 (T)         =    -0.000059662352 [Eh]

    Disp22 (T)          =    -0.000103314481 [Eh]

    Est. Disp220 (T)    =    -0.000046937723 [Eh]
    Est. Disp202 (T)    =    -0.000064152998 [Eh]

    Est. Disp22 (T)     =    -0.000111090720 [Eh]

    SAPT Results 
  --------------------------------------------------------------------------------------------------------
    Electrostatics                 -1.57256580 [mEh]      -0.98679994 [kcal/mol]      -4.12877094 [kJ/mol]
      Elst10,r                     -1.81329206 [mEh]      -1.13785795 [kcal/mol]      -4.76079765 [kJ/mol]
      Elst12,r                      0.24072626 [mEh]       0.15105801 [kcal/mol]       0.63202671 [kJ/mol]

    Exchange                        0.14435700 [mEh]       0.09058538 [kcal/mol]       0.37900924 [kJ/mol]
      Exch10                        0.12127054 [mEh]       0.07609841 [kcal/mol]       0.31839575 [kJ/mol]
      Exch10(S^2)                   0.12126510 [mEh]       0.07609500 [kcal/mol]       0.31838149 [kJ/mol]
      Exch11(S^2)                   0.00197445 [mEh]       0.00123899 [kcal/mol]       0.00518393 [kJ/mol]
      Exch12(S^2)                   0.02111201 [mEh]       0.01324798 [kcal/mol]       0.05542956 [kJ/mol]

    Induction                      -0.13214880 [mEh]      -0.08292463 [kcal/mol]      -0.34695664 [kJ/mol]
      Ind20,r                      -0.14430464 [mEh]      -0.09055253 [kcal/mol]      -0.37887179 [kJ/mol]
      Ind22                         0.00032095 [mEh]       0.00020140 [kcal/mol]       0.00084266 [kJ/mol]
      Exch-Ind20,r                  0.02022701 [mEh]       0.01269264 [kcal/mol]       0.05310602 [kJ/mol]
      Exch-Ind22                   -0.00004499 [mEh]      -0.00002823 [kcal/mol]      -0.00011811 [kJ/mol]
      delta HF,r (2)               -0.00834714 [mEh]      -0.00523791 [kcal/mol]      -0.02191540 [kJ/mol]

    Dispersion                     -0.66448156 [mEh]      -0.41696847 [kcal/mol]      -1.74459609 [kJ/mol]
      Disp20                       -0.63692177 [mEh]      -0.39967444 [kcal/mol]      -1.67223788 [kJ/mol]
      Disp21                        0.05627883 [mEh]       0.03531550 [kcal/mol]       0.14776004 [kJ/mol]
      Disp22 (SDQ)                  0.01281561 [mEh]       0.00804192 [kcal/mol]       0.03364738 [kJ/mol]
      Disp22 (T)                   -0.10331448 [mEh]      -0.06483082 [kcal/mol]      -0.27125213 [kJ/mol]
      Est. Disp22 (T)              -0.11109072 [mEh]      -0.06971048 [kcal/mol]      -0.29166865 [kJ/mol]
      Exch-Disp20                   0.01443650 [mEh]       0.00905904 [kcal/mol]       0.03790302 [kJ/mol]

  Total HF                         -1.82444629 [mEh]      -1.14485733 [kcal/mol]      -4.79008308 [kJ/mol]
  Total SAPT0                      -2.44693157 [mEh]      -1.53547274 [kcal/mol]      -6.42441794 [kJ/mol]
  Total SAPT2                      -2.18284288 [mEh]      -1.36975459 [kcal/mol]      -5.73105320 [kJ/mol]
  Total SAPT2+                     -2.22483917 [mEh]      -1.39610765 [kcal/mol]      -5.84131443 [kJ/mol]

  Special recipe for scaled SAPT0 (see Manual):
    Electrostatics sSAPT0          -1.81329206 [mEh]      -1.13785795 [kcal/mol]      -4.76079765 [kJ/mol]
    Exchange sSAPT0                 0.12127054 [mEh]       0.07609841 [kcal/mol]       0.31839575 [kJ/mol]
    Induction sSAPT0               -0.13242205 [mEh]      -0.08309609 [kcal/mol]      -0.34767404 [kJ/mol]
    Dispersion sSAPT0              -0.62248333 [mEh]      -0.39061419 [kcal/mol]      -1.63432977 [kJ/mol]
  Total sSAPT0                     -2.44692691 [mEh]      -1.53546982 [kcal/mol]      -6.42440571 [kJ/mol]
  --------------------------------------------------------------------------------------------------------

*** tstop() called on node73.bme.utexas.edu at Thu Apr 23 16:30:30 2020
Module time:
	user time   =     456.58 seconds =       7.61 minutes
	system time =      20.34 seconds =       0.34 minutes
	total time  =         62 seconds =       1.03 minutes
Total time:
	user time   =     532.83 seconds =       8.88 minutes
	system time =      23.63 seconds =       0.39 minutes
	total time  =         75 seconds =       1.25 minutes

    Psi4 stopped on: Thursday, 23 April 2020 04:30PM
    Psi4 wall time for execution: 0:01:14.91

*** Psi4 exiting successfully. Buy a developer a beer!
