    -----------------------------------------------------------------------
          PSI4: An Open-Source Ab Initio Electronic Structure Package
                              PSI 4.0.0-beta4 Driver

    J. M. Turney, A. C. Simmonett, R. M. Parrish, E. G. Hohenstein,
    F. A. Evangelista, J. T. Fermann, B. J. Mintz, L. A. Burns, J. J. Wilke,
    M. L. Abrams, N. J. Russ, M. L. Leininger, C. L. Janssen, E. T. Seidl,
    W. D. Allen, H. F. Schaefer, R. A. King, E. F. Valeev, C. D. Sherrill,
    and T. D. Crawford, WIREs Comput. Mol. Sci., (2011) (doi: 10.1002/wcms.93)

                         Additional Contributions by
    A. E. DePrince, M. Saitow, U. Bozkaya, A. Yu. Sokolov
    -----------------------------------------------------------------------

    Process ID:  19653
    PSI4DATADIR: /home/xzhu216/psi4/psi4-install/share/psi

    Using LocalCommunicator (Number of processes = 1)

    Memory level set to 256.000 MB

  ==> Input File <==

--------------------------------------------------------------------------
#psi4
#
memory 7 gb

molecule MeBr_MeBr {
0 1
   Br    -1.019580000     0.000008000     0.000000000
    C    -2.946115000     0.000024000     0.000000000
    H    -3.282258000     1.029171000    -0.000001000
    H    -3.282271000    -0.514545000     0.891264000
    H    -3.282271000    -0.514545000    -0.891265000
--
0 1
   Br     4.685372844     0.000017211    -0.000004102
    C     2.759051844     0.000018211     0.000000898
    H     2.420867844     1.028786211     0.000001898
    H     2.420869844    -0.514366789     0.890940898
    H     2.420865844    -0.514365789    -0.890938102
units angstrom
no_reorient  #important for SAPT in psi4, default
symmetry c1  #important for SAPT in psi4, default
}

set {
basis aug-cc-pVTZ
scf_type DF
freeze_core True
}
energy('sapt2+')
--------------------------------------------------------------------------

  Memory set to   7.000 GiB by Python script.

  //>>>>>>>>>>>>>>>>>>>>>>>>>>>>>>>>>>>//
  //              Dimer HF             //
  //<<<<<<<<<<<<<<<<<<<<<<<<<<<<<<<<<<<//


  No DF_BASIS_SCF auxiliary basis selected, defaulting to aug-cc-pvtz-jkfit


*** tstart() called on node37.bme.utexas.edu
*** at Mon Jun 23 16:45:47 2014


         ---------------------------------------------------------
                                   SCF
            by Justin Turney, Rob Parrish, and Andy Simmonett
                              RHF Reference
                        4 Threads,   7000 MiB Core
         ---------------------------------------------------------

  ==> Geometry <==

    Molecular point group: c1
    Full point group: C1

    Geometry (in Angstrom), charge = 0, multiplicity = 1:

       Center              X                  Y                   Z       
    ------------   -----------------  -----------------  -----------------
          BR         -2.533544298660    -0.000006007760     0.000001651192
           C         -4.460079298660     0.000009992240     0.000001651192
           H         -4.796222298660     1.029156992240     0.000000651192
           H         -4.796235298660    -0.514559007760     0.891265651192
           H         -4.796235298660    -0.514559007760    -0.891263348808
          BR          3.171408545340     0.000003203240    -0.000002450808
           C          1.245087545340     0.000004203240     0.000002549192
           H          0.906903545340     1.028772203240     0.000003549192
           H          0.906905545340    -0.514380796760     0.890942549192
           H          0.906901545340    -0.514379796760    -0.890936450808

  Running in c1 symmetry.

  Nuclear repulsion =  366.873627672654834

  Charge       = 0
  Multiplicity = 1
  Electrons    = 88
  Nalpha       = 44
  Nbeta        = 44

  ==> Algorithm <==

  SCF Algorithm Type is DF.
  DIIS enabled.
  MOM disabled.
  Fractional occupation disabled.
  Guess Type is CORE.
  Energy threshold   = 1.00e-08
  Density threshold  = 1.00e-08
  Integral threshold = 0.00e+00

  ==> Primary Basis <==

  Basis Set: AUG-CC-PVTZ
    Number of shells: 120
    Number of basis function: 348
    Number of Cartesian functions: 398
    Spherical Harmonics?: true
    Max angular momentum: 3

  ==> Pre-Iterations <==

   -------------------------------------------------------
    Irrep   Nso     Nmo     Nalpha   Nbeta   Ndocc  Nsocc
   -------------------------------------------------------
     A        348     348       0       0       0       0
   -------------------------------------------------------
    Total     348     348      44      44      44       0
   -------------------------------------------------------

 OEINTS: Wrapper to libmints.
   by Justin Turney

   Calculation information:
      Number of atoms:                  10
      Number of AO shells:             120
      Number of SO shells:             120
      Number of primitives:            372
      Number of atomic orbitals:       398
      Number of basis functions:       348

      Number of irreps:                  1
      Number of functions per irrep: [ 348 ]

      Overlap, kinetic, potential, dipole, and quadrupole integrals
        stored in file 35.

  ==> Integral Setup <==

  ==> DFJK: Density-Fitted J/K Matrices <==

    J tasked:                  Yes
    K tasked:                  Yes
    wK tasked:                  No
    OpenMP threads:              4
    Integrals threads:           4
    Memory (MB):              5006
    Algorithm:                Core
    Integral Cache:           SAVE
    Schwarz Cutoff:          0E+00
    Fitting Condition:       1E-12

   => Auxiliary Basis Set <=

  Basis Set: aug-cc-pvtz-jkfit
    Number of shells: 260
    Number of basis function: 980
    Number of Cartesian functions: 1250
    Spherical Harmonics?: true
    Max angular momentum: 4

  Minimum eigenvalue in the overlap matrix is 4.5255659850E-05.
  Using Symmetric Orthogonalization.
  SCF Guess: Core (One-Electron) Hamiltonian.

  Guess energy: -3832.85677466439665

  ==> Iterations <==

                        Total Energy        Delta E     RMS |[F,P]|

   @RHF iter   1: -5112.22350520394502   -5.11222e+03   2.59435e-02 
   @RHF iter   2: -4739.09145711273959    3.73132e+02   5.71234e-02 DIIS
   @RHF iter   3: -5073.29349689554329   -3.34202e+02   2.70543e-02 DIIS
   @RHF iter   4: -5101.86776843579264   -2.85743e+01   3.02538e-02 DIIS
   @RHF iter   5: -5211.97391889053506   -1.10106e+02   9.42042e-03 DIIS
   @RHF iter   6: -5161.34833888821322    5.06256e+01   1.80400e-02 DIIS
   @RHF iter   7: -5179.95706958752999   -1.86087e+01   1.53556e-02 DIIS
   @RHF iter   8: -5182.34375487718171   -2.38669e+00   1.42466e-02 DIIS
   @RHF iter   9: -5217.36797141883017   -3.50242e+01   7.61983e-03 DIIS
   @RHF iter  10: -5219.08170462353155   -1.71373e+00   5.54446e-03 DIIS
   @RHF iter  11: -5223.93802732736094   -4.85632e+00   1.95924e-03 DIIS
   @RHF iter  12: -5224.13238649575305   -1.94359e-01   1.12715e-03 DIIS
   @RHF iter  13: -5224.17178019706898   -3.93937e-02   4.00957e-04 DIIS
   @RHF iter  14: -5224.18357327074409   -1.17931e-02   1.47303e-04 DIIS
   @RHF iter  15: -5224.18585020838418   -2.27694e-03   3.57465e-05 DIIS
   @RHF iter  16: -5224.18599304675899   -1.42838e-04   5.87824e-06 DIIS
   @RHF iter  17: -5224.18599861398161   -5.56722e-06   1.91556e-06 DIIS
   @RHF iter  18: -5224.18599908338911   -4.69407e-07   5.69278e-07 DIIS
   @RHF iter  19: -5224.18599914341667   -6.00276e-08   2.35405e-07 DIIS
   @RHF iter  20: -5224.18599915378945   -1.03728e-08   4.36187e-08 DIIS
   @RHF iter  21: -5224.18599915422874   -4.39286e-10   1.02513e-08 DIIS
   @RHF iter  22: -5224.18599915424238   -1.36424e-11   3.14627e-09 DIIS

  ==> Post-Iterations <==

	Orbital Energies (a.u.)
	-----------------------

	Doubly Occupied:                                                      

	   1A   -490.022374     2A   -490.008104     3A    -65.162393  
	   4A    -65.148095     5A    -58.517671     6A    -58.516321  
	   7A    -58.516321     8A    -58.503374     9A    -58.502016  
	  10A    -58.502016    11A    -11.294388    12A    -11.280132  
	  13A     -9.835314    14A     -9.821047    15A     -7.446857  
	  16A     -7.440235    17A     -7.440235    18A     -7.432585  
	  19A     -7.425947    20A     -7.425947    21A     -3.190396  
	  22A     -3.186966    23A     -3.186966    24A     -3.178501  
	  25A     -3.178501    26A     -3.176154    27A     -3.172704  
	  28A     -3.172704    29A     -3.164204    30A     -3.164204  
	  31A     -1.072691    32A     -1.058427    33A     -0.905530  
	  34A     -0.890822    35A     -0.620026    36A     -0.620025  
	  37A     -0.605909    38A     -0.605909    39A     -0.519520  
	  40A     -0.500666    41A     -0.410862    42A     -0.410862  
	  43A     -0.396280    44A     -0.396280  

	Virtual:                                                              

	  45A      0.023383    46A      0.040438    47A      0.041241  
	  48A      0.041241    49A      0.058473    50A      0.058473  
	  51A      0.062363    52A      0.081117    53A      0.115905  
	  54A      0.117470    55A      0.117470    56A      0.122953  
	  57A      0.122953    58A      0.133436    59A      0.135968  
	  60A      0.135968    61A      0.144164    62A      0.153321  
	  63A      0.153321    64A      0.174227    65A      0.192488  
	  66A      0.192919    67A      0.192919    68A      0.204448  
	  69A      0.206872    70A      0.206872    71A      0.239733  
	  72A      0.254555    73A      0.254555    74A      0.276388  
	  75A      0.284888    76A      0.284889    77A      0.316129  
	  78A      0.321212    79A      0.321212    80A      0.332552  
	  81A      0.332552    82A      0.333514    83A      0.336955  
	  84A      0.337473    85A      0.337474    86A      0.340323  
	  87A      0.342786    88A      0.342786    89A      0.350177  
	  90A      0.367207    91A      0.391953    92A      0.399779  
	  93A      0.399779    94A      0.410574    95A      0.414208  
	  96A      0.414208    97A      0.442427    98A      0.442428  
	  99A      0.449168   100A      0.449168   101A      0.450049  
	 102A      0.457854   103A      0.457855   104A      0.469433  
	 105A      0.500058   106A      0.500058   107A      0.506496  
	 108A      0.512714   109A      0.512715   110A      0.514612  
	 111A      0.538593   112A      0.538594   113A      0.577063  
	 114A      0.577064   115A      0.625342   116A      0.625342  
	 117A      0.637409   118A      0.678223   119A      0.678223  
	 120A      0.697678   121A      0.744204   122A      0.762061  
	 123A      0.762062   124A      0.788433   125A      0.788434  
	 126A      0.794218   127A      0.802774   128A      0.802775  
	 129A      0.810370   130A      0.817892   131A      0.817892  
	 132A      0.843827   133A      0.843827   134A      0.861242  
	 135A      0.875535   136A      0.884906   137A      0.895779  
	 138A      0.895780   139A      0.904136   140A      0.904137  
	 141A      0.915241   142A      0.921074   143A      0.939278  
	 144A      0.948015   145A      0.950115   146A      0.953109  
	 147A      0.953285   148A      0.953285   149A      0.972406  
	 150A      0.984486   151A      0.987475   152A      0.987476  
	 153A      0.990063   154A      0.990064   155A      1.030340  
	 156A      1.030341   157A      1.047416   158A      1.049378  
	 159A      1.049378   160A      1.080635   161A      1.080635  
	 162A      1.083714   163A      1.098003   164A      1.098004  
	 165A      1.124050   166A      1.126387   167A      1.126387  
	 168A      1.130682   169A      1.144008   170A      1.144009  
	 171A      1.160239   172A      1.163731   173A      1.186953  
	 174A      1.186954   175A      1.223352   176A      1.223352  
	 177A      1.243343   178A      1.243343   179A      1.265873  
	 180A      1.265874   181A      1.299462   182A      1.332062  
	 183A      1.332064   184A      1.338653   185A      1.350712  
	 186A      1.436605   187A      1.436606   188A      1.475742  
	 189A      1.475743   190A      1.483915   191A      1.509175  
	 192A      1.520616   193A      1.579264   194A      1.579264  
	 195A      1.585215   196A      1.606954   197A      1.611739  
	 198A      1.622964   199A      1.627168   200A      1.627168  
	 201A      1.639967   202A      1.639967   203A      1.672133  
	 204A      1.672134   205A      1.678448   206A      1.728687  
	 207A      1.728687   208A      1.735082   209A      1.754757  
	 210A      1.754757   211A      1.758239   212A      1.786443  
	 213A      1.903574   214A      1.903574   215A      1.915904  
	 216A      1.915904   217A      1.929285   218A      1.943647  
	 219A      2.002813   220A      2.002813   221A      2.047126  
	 222A      2.047127   223A      2.071490   224A      2.113213  
	 225A      2.163579   226A      2.163579   227A      2.190011  
	 228A      2.190011   229A      2.262582   230A      2.262582  
	 231A      2.270674   232A      2.270674   233A      2.340020  
	 234A      2.343226   235A      2.350828   236A      2.351047  
	 237A      2.351786   238A      2.351786   239A      2.360777  
	 240A      2.360778   241A      2.363139   242A      2.401553  
	 243A      2.436614   244A      2.436616   245A      2.442578  
	 246A      2.442578   247A      2.497498   248A      2.527786  
	 249A      2.539171   250A      2.539171   251A      2.578820  
	 252A      2.578820   253A      2.605348   254A      2.605349  
	 255A      2.645963   256A      2.645965   257A      2.687852  
	 258A      2.735619   259A      2.899097   260A      2.990291  
	 261A      3.020802   262A      3.157170   263A      3.311006  
	 264A      3.311006   265A      3.326087   266A      3.326088  
	 267A      3.479386   268A      3.479386   269A      3.492555  
	 270A      3.492555   271A      3.511079   272A      3.551480  
	 273A      3.564903   274A      3.573772   275A      3.573772  
	 276A      3.582797   277A      3.621421   278A      3.621421  
	 279A      3.725379   280A      3.725380   281A      3.763160  
	 282A      3.763161   283A      3.908583   284A      3.908584  
	 285A      3.925835   286A      3.925836   287A      3.941193  
	 288A      4.018381   289A      4.022537   290A      4.034694  
	 291A      4.057649   292A      4.057649   293A      4.075375  
	 294A      4.075375   295A      4.095762   296A      4.116070  
	 297A      4.116070   298A      4.132545   299A      4.177907  
	 300A      4.177907   301A      4.246434   302A      4.274607  
	 303A      4.440073   304A      4.440073   305A      4.461301  
	 306A      4.461301   307A      4.478840   308A      4.499165  
	 309A      4.747321   310A      4.747321   311A      4.769481  
	 312A      4.769481   313A      4.846920   314A      4.851328  
	 315A      4.864394   316A      4.910999   317A      4.931191  
	 318A      4.931191   319A      4.947280   320A      4.947280  
	 321A      5.109031   322A      5.142753   323A      5.142754  
	 324A      5.160841   325A      5.160842   326A      5.175651  
	 327A      5.333962   328A      5.415915   329A      5.487119  
	 330A      5.487121   331A      5.508865   332A      5.508866  
	 333A      5.599536   334A      5.609503   335A      5.666222  
	 336A      5.673981   337A      6.021466   338A      6.021467  
	 339A      6.046815   340A      6.046815   341A      6.125877  
	 342A      6.147179   343A      6.585004   344A      6.585005  
	 345A      6.606842   346A      6.606843   347A     17.010343  
	 348A     17.386047  

	Final Occupation by Irrep:
	          A 
	DOCC [    44 ]

  Energy converged.

  @RHF Final Energy: -5224.18599915424238

   => Energetics <=

    Nuclear Repulsion Energy =            366.8736276726548340
    One-Electron Energy =               -8004.0662923071986370
    Two-Electron Energy =                2413.0066654803081292
    DFT Exchange-Correlation Energy =       0.0000000000000000
    Empirical Dispersion Energy =           0.0000000000000000
    Total Energy =                      -5224.1859991542351054



Properties will be evaluated at   0.000000,   0.000000,   0.000000 Bohr
  ==> Properties <==


Properties computed using the SCF density density matrix
  Nuclear Dipole Moment: (a.u.)
     X:   -16.3134      Y:     0.0001      Z:     0.0000

  Electronic Dipole Moment: (a.u.)
     X:    14.5494      Y:    -0.0001      Z:    -0.0000

  Dipole Moment: (a.u.)
     X:    -1.7640      Y:     0.0000      Z:     0.0000     Total:     1.7640

  Dipole Moment: (Debye)
     X:    -4.4836      Y:     0.0000      Z:     0.0000     Total:     4.4836


  Saving occupied orbitals to File 180.

  Saving SAPT 2-DIMER file.

*** tstop() called on node37.bme.utexas.edu at Mon Jun 23 16:46:22 2014
Module time:
	user time   =     119.50 seconds =       1.99 minutes
	system time =       1.34 seconds =       0.02 minutes
	total time  =         35 seconds =       0.58 minutes
Total time:
	user time   =     119.50 seconds =       1.99 minutes
	system time =       1.34 seconds =       0.02 minutes
	total time  =         35 seconds =       0.58 minutes

  //>>>>>>>>>>>>>>>>>>>>>>>>>>>>>>>>>>>//
  //            Monomer A HF           //
  //<<<<<<<<<<<<<<<<<<<<<<<<<<<<<<<<<<<//


  No DF_BASIS_SCF auxiliary basis selected, defaulting to aug-cc-pvtz-jkfit


*** tstart() called on node37.bme.utexas.edu
*** at Mon Jun 23 16:46:22 2014


         ---------------------------------------------------------
                                   SCF
            by Justin Turney, Rob Parrish, and Andy Simmonett
                              RHF Reference
                        4 Threads,   7000 MiB Core
         ---------------------------------------------------------

  ==> Geometry <==

    Molecular point group: c1
    Full point group: C1

    Geometry (in Angstrom), charge = 0, multiplicity = 1:

       Center              X                  Y                   Z       
    ------------   -----------------  -----------------  -----------------
          BR         -2.533544298660    -0.000006007760     0.000001651192
           C         -4.460079298660     0.000009992240     0.000001651192
           H         -4.796222298660     1.029156992240     0.000000651192
           H         -4.796235298660    -0.514559007760     0.891265651192
           H         -4.796235298660    -0.514559007760    -0.891263348808
          BR(Gh)      3.171408545340     0.000003203240    -0.000002450808
           C(Gh)      1.245087545340     0.000004203240     0.000002549192
           H(Gh)      0.906903545340     1.028772203240     0.000003549192
           H(Gh)      0.906905545340    -0.514380796760     0.890942549192
           H(Gh)      0.906901545340    -0.514379796760    -0.890936450808

  Running in c1 symmetry.

  Nuclear repulsion =   89.724022494639996

  Charge       = 0
  Multiplicity = 1
  Electrons    = 44
  Nalpha       = 22
  Nbeta        = 22

  ==> Algorithm <==

  SCF Algorithm Type is DF.
  DIIS enabled.
  MOM disabled.
  Fractional occupation disabled.
  Guess Type is CORE.
  Energy threshold   = 1.00e-08
  Density threshold  = 1.00e-08
  Integral threshold = 0.00e+00

  ==> Primary Basis <==

  Basis Set: AUG-CC-PVTZ
    Number of shells: 120
    Number of basis function: 348
    Number of Cartesian functions: 398
    Spherical Harmonics?: true
    Max angular momentum: 3

  ==> Pre-Iterations <==

   -------------------------------------------------------
    Irrep   Nso     Nmo     Nalpha   Nbeta   Ndocc  Nsocc
   -------------------------------------------------------
     A        348     348       0       0       0       0
   -------------------------------------------------------
    Total     348     348      22      22      22       0
   -------------------------------------------------------

 OEINTS: Wrapper to libmints.
   by Justin Turney

   Calculation information:
      Number of atoms:                  10
      Number of AO shells:             120
      Number of SO shells:             120
      Number of primitives:            372
      Number of atomic orbitals:       398
      Number of basis functions:       348

      Number of irreps:                  1
      Number of functions per irrep: [ 348 ]

      Overlap, kinetic, potential, dipole, and quadrupole integrals
        stored in file 35.

  ==> Integral Setup <==

  ==> DFJK: Density-Fitted J/K Matrices <==

    J tasked:                  Yes
    K tasked:                  Yes
    wK tasked:                  No
    OpenMP threads:              4
    Integrals threads:           4
    Memory (MB):              5006
    Algorithm:                Core
    Integral Cache:           LOAD
    Schwarz Cutoff:          0E+00
    Fitting Condition:       1E-12

   => Auxiliary Basis Set <=

  Basis Set: aug-cc-pvtz-jkfit
    Number of shells: 260
    Number of basis function: 980
    Number of Cartesian functions: 1250
    Spherical Harmonics?: true
    Max angular momentum: 4

  Minimum eigenvalue in the overlap matrix is 4.5255659851E-05.
  Using Symmetric Orthogonalization.
  SCF Guess: Core (One-Electron) Hamiltonian.

  Guess energy: -1917.21406966809809

  ==> Iterations <==

                        Total Energy        Delta E     RMS |[F,P]|

   @RHF iter   1: -2558.34031109250918   -2.55834e+03   1.83075e-02 
   @RHF iter   2: -2439.32183601100633    1.19018e+02   4.47659e-02 DIIS
   @RHF iter   3: -2464.00151164561248   -2.46797e+01   3.10573e-02 DIIS
   @RHF iter   4: -2610.35517100543393   -1.46354e+02   6.26053e-03 DIIS
   @RHF iter   5: -2607.83363427098584    2.52154e+00   6.29998e-03 DIIS
   @RHF iter   6: -2611.81502293034964   -3.98139e+00   2.68606e-03 DIIS
   @RHF iter   7: -2611.86863859669847   -5.36157e-02   2.20562e-03 DIIS
   @RHF iter   8: -2611.96431552587910   -9.56769e-02   1.51842e-03 DIIS
   @RHF iter   9: -2612.07641460338482   -1.12099e-01   5.68306e-04 DIIS
   @RHF iter  10: -2612.09163643034708   -1.52218e-02   1.03756e-04 DIIS
   @RHF iter  11: -2612.09283435066072   -1.19792e-03   2.19905e-05 DIIS
   @RHF iter  12: -2612.09293921760082   -1.04867e-04   5.79207e-06 DIIS
   @RHF iter  13: -2612.09294611439782   -6.89680e-06   1.05658e-06 DIIS
   @RHF iter  14: -2612.09294629736678   -1.82969e-07   1.77607e-07 DIIS
   @RHF iter  15: -2612.09294630187742   -4.51064e-09   3.83169e-08 DIIS
   @RHF iter  16: -2612.09294630207705   -1.99634e-10   7.66555e-09 DIIS

  ==> Post-Iterations <==

	Orbital Energies (a.u.)
	-----------------------

	Doubly Occupied:                                                      

	   1A   -490.013597     2A    -65.153571     3A    -58.508863  
	   4A    -58.507486     5A    -58.507486     6A    -11.286991  
	   7A     -9.826462     8A     -7.438028     9A     -7.431337  
	  10A     -7.431337    11A     -3.181603    12A     -3.178133  
	  13A     -3.178133    14A     -3.169570    15A     -3.169570  
	  16A     -1.064424    17A     -0.897148    18A     -0.612929  
	  19A     -0.612929    20A     -0.508415    21A     -0.401759  
	  22A     -0.401759  

	Virtual:                                                              

	  23A      0.026335    24A      0.031408    25A      0.044199  
	  26A      0.044199    27A      0.056560    28A      0.056560  
	  29A      0.057376    30A      0.083014    31A      0.104169  
	  32A      0.106582    33A      0.106582    34A      0.122669  
	  35A      0.122669    36A      0.124612    37A      0.132661  
	  38A      0.132661    39A      0.135575    40A      0.155708  
	  41A      0.155708    42A      0.173243    43A      0.192471  
	  44A      0.199328    45A      0.199328    46A      0.210531  
	  47A      0.227923    48A      0.227924    49A      0.248957  
	  50A      0.267758    51A      0.267758    52A      0.272088  
	  53A      0.299903    54A      0.299904    55A      0.305270  
	  56A      0.311873    57A      0.311873    58A      0.322324  
	  59A      0.332471    60A      0.332471    61A      0.337066  
	  62A      0.337066    63A      0.342188    64A      0.365594  
	  65A      0.366615    66A      0.372238    67A      0.372238  
	  68A      0.372830    69A      0.382969    70A      0.392090  
	  71A      0.392091    72A      0.405960    73A      0.417285  
	  74A      0.417286    75A      0.439226    76A      0.439226  
	  77A      0.446883    78A      0.450926    79A      0.450926  
	  80A      0.478057    81A      0.504374    82A      0.504374  
	  83A      0.505518    84A      0.520519    85A      0.520520  
	  86A      0.525341    87A      0.525342    88A      0.537714  
	  89A      0.558236    90A      0.558236    91A      0.562297  
	  92A      0.587531    93A      0.587531    94A      0.605202  
	  95A      0.605202    96A      0.614325    97A      0.679109  
	  98A      0.679109    99A      0.705252   100A      0.753151  
	 101A      0.755973   102A      0.755974   103A      0.785605  
	 104A      0.807025   105A      0.807025   106A      0.824820  
	 107A      0.824820   108A      0.867597   109A      0.883230  
	 110A      0.892415   111A      0.892416   112A      0.923832  
	 113A      0.932446   114A      0.949151   115A      0.950746  
	 116A      0.958487   117A      0.958487   118A      0.976276  
	 119A      0.995351   120A      0.995352   121A      1.009701  
	 122A      1.009703   123A      1.024979   124A      1.032176  
	 125A      1.032176   126A      1.044046   127A      1.051793  
	 128A      1.051794   129A      1.056757   130A      1.069338  
	 131A      1.069362   132A      1.069362   133A      1.074463  
	 134A      1.083486   135A      1.083487   136A      1.099174  
	 137A      1.099174   138A      1.115245   139A      1.115245  
	 140A      1.125981   141A      1.144276   142A      1.149531  
	 143A      1.166711   144A      1.166711   145A      1.190911  
	 146A      1.190911   147A      1.197476   148A      1.204523  
	 149A      1.204524   150A      1.220390   151A      1.230195  
	 152A      1.233798   153A      1.233798   154A      1.250623  
	 155A      1.250623   156A      1.273178   157A      1.289125  
	 158A      1.289125   159A      1.303776   160A      1.303778  
	 161A      1.315647   162A      1.353512   163A      1.353513  
	 164A      1.358069   165A      1.371888   166A      1.371888  
	 167A      1.390998   168A      1.434214   169A      1.434214  
	 170A      1.479036   171A      1.479038   172A      1.514903  
	 173A      1.544809   174A      1.597956   175A      1.597957  
	 176A      1.599983   177A      1.614078   178A      1.625133  
	 179A      1.655587   180A      1.655588   181A      1.689741  
	 182A      1.721080   183A      1.721081   184A      1.745738  
	 185A      1.762437   186A      1.762438   187A      1.765903  
	 188A      1.880289   189A      1.882521   190A      1.882521  
	 191A      1.911784   192A      1.911784   193A      1.920382  
	 194A      1.931707   195A      1.931708   196A      1.937380  
	 197A      2.020989   198A      2.020990   199A      2.049454  
	 200A      2.089022   201A      2.089022   202A      2.103579  
	 203A      2.127895   204A      2.184281   205A      2.184281  
	 206A      2.252492   207A      2.252493   208A      2.279436  
	 209A      2.279436   210A      2.314631   211A      2.349206  
	 212A      2.362983   213A      2.374050   214A      2.374051  
	 215A      2.401324   216A      2.434118   217A      2.434118  
	 218A      2.456424   219A      2.456426   220A      2.480757  
	 221A      2.577326   222A      2.584577   223A      2.584577  
	 224A      2.630202   225A      2.630203   226A      2.703135  
	 227A      2.714744   228A      2.714744   229A      2.866815  
	 230A      2.917046   231A      2.984757   232A      2.984757  
	 233A      3.061203   234A      3.144632   235A      3.154422  
	 236A      3.256759   237A      3.256760   238A      3.284920  
	 239A      3.318436   240A      3.318436   241A      3.337056  
	 242A      3.337057   243A      3.383431   244A      3.439855  
	 245A      3.439855   246A      3.486625   247A      3.486625  
	 248A      3.496745   249A      3.496745   250A      3.519121  
	 251A      3.558312   252A      3.583933   253A      3.583933  
	 254A      3.734164   255A      3.734164   256A      3.740460  
	 257A      3.832810   258A      3.916209   259A      3.916209  
	 260A      3.958148   261A      4.000748   262A      4.025438  
	 263A      4.058677   264A      4.065194   265A      4.065195  
	 266A      4.093892   267A      4.104088   268A      4.104088  
	 269A      4.128756   270A      4.128756   271A      4.141928  
	 272A      4.141928   273A      4.254342   274A      4.404095  
	 275A      4.419103   276A      4.419103   277A      4.453135  
	 278A      4.453135   279A      4.464376   280A      4.486960  
	 281A      4.498281   282A      4.498282   283A      4.650454  
	 284A      4.650455   285A      4.755282   286A      4.755282  
	 287A      4.794891   288A      4.827167   289A      4.857943  
	 290A      4.871148   291A      4.882776   292A      4.882776  
	 293A      4.905387   294A      4.905387   295A      4.940640  
	 296A      4.940641   297A      5.140930   298A      5.149912  
	 299A      5.149913   300A      5.234669   301A      5.259363  
	 302A      5.304521   303A      5.304521   304A      5.416571  
	 305A      5.441686   306A      5.492450   307A      5.492450  
	 308A      5.494011   309A      5.494012   310A      5.608600  
	 311A      5.635461   312A      5.635462   313A      5.673165  
	 314A      5.736024   315A      6.028533   316A      6.028534  
	 317A      6.070910   318A      6.134887   319A      6.158992  
	 320A      6.158993   321A      6.282152   322A      6.594620  
	 323A      6.594621   324A      6.617813   325A      6.617814  
	 326A      7.175156   327A      7.505848   328A      7.763605  
	 329A      7.763605   330A      8.172750   331A      8.172751  
	 332A     10.379589   333A     10.785367   334A     13.625293  
	 335A     13.625293   336A     14.469820   337A     17.019489  
	 338A     26.182157   339A     26.182157   340A     26.342576  
	 341A     26.342576   342A     26.642896   343A     46.335623  
	 344A     52.171365   345A    138.668493   346A    138.668493  
	 347A    140.002859   348A    711.234714  

	Final Occupation by Irrep:
	          A 
	DOCC [    22 ]

  Energy converged.

  @RHF Final Energy: -2612.09294630207705

   => Energetics <=

    Nuclear Repulsion Energy =             89.7240224946399962
    One-Electron Energy =               -3814.6708778955580783
    Two-Electron Energy =                1112.8539090988501812
    DFT Exchange-Correlation Energy =       0.0000000000000000
    Empirical Dispersion Energy =           0.0000000000000000
    Total Energy =                      -2612.0929463020679577



Properties will be evaluated at   0.000000,   0.000000,   0.000000 Bohr
  ==> Properties <==


Properties computed using the SCF density density matrix
  Nuclear Dipole Moment: (a.u.)
     X:  -245.3303      Y:    -0.0002      Z:     0.0001

  Electronic Dipole Moment: (a.u.)
     X:   244.4952      Y:     0.0002      Z:    -0.0001

  Dipole Moment: (a.u.)
     X:    -0.8352      Y:     0.0000      Z:    -0.0000     Total:     0.8352

  Dipole Moment: (Debye)
     X:    -2.1228      Y:     0.0000      Z:    -0.0000     Total:     2.1228


  Saving occupied orbitals to File 180.

  Saving SAPT 2-MONOMER_A file.

*** tstop() called on node37.bme.utexas.edu at Mon Jun 23 16:46:43 2014
Module time:
	user time   =      58.98 seconds =       0.98 minutes
	system time =       0.66 seconds =       0.01 minutes
	total time  =         21 seconds =       0.35 minutes
Total time:
	user time   =     178.51 seconds =       2.98 minutes
	system time =       2.00 seconds =       0.03 minutes
	total time  =         56 seconds =       0.93 minutes

  //>>>>>>>>>>>>>>>>>>>>>>>>>>>>>>>>>>>//
  //            Monomer B HF           //
  //<<<<<<<<<<<<<<<<<<<<<<<<<<<<<<<<<<<//


  No DF_BASIS_SCF auxiliary basis selected, defaulting to aug-cc-pvtz-jkfit


*** tstart() called on node37.bme.utexas.edu
*** at Mon Jun 23 16:46:43 2014


         ---------------------------------------------------------
                                   SCF
            by Justin Turney, Rob Parrish, and Andy Simmonett
                              RHF Reference
                        4 Threads,   7000 MiB Core
         ---------------------------------------------------------

  ==> Geometry <==

    Molecular point group: c1
    Full point group: C1

    Geometry (in Angstrom), charge = 0, multiplicity = 1:

       Center              X                  Y                   Z       
    ------------   -----------------  -----------------  -----------------
          BR(Gh)     -2.533544298660    -0.000006007760     0.000001651192
           C(Gh)     -4.460079298660     0.000009992240     0.000001651192
           H(Gh)     -4.796222298660     1.029156992240     0.000000651192
           H(Gh)     -4.796235298660    -0.514559007760     0.891265651192
           H(Gh)     -4.796235298660    -0.514559007760    -0.891263348808
          BR          3.171408545340     0.000003203240    -0.000002450808
           C          1.245087545340     0.000004203240     0.000002549192
           H          0.906903545340     1.028772203240     0.000003549192
           H          0.906905545340    -0.514380796760     0.890942549192
           H          0.906901545340    -0.514379796760    -0.890936450808

  Running in c1 symmetry.

  Nuclear repulsion =   89.715032774712540

  Charge       = 0
  Multiplicity = 1
  Electrons    = 44
  Nalpha       = 22
  Nbeta        = 22

  ==> Algorithm <==

  SCF Algorithm Type is DF.
  DIIS enabled.
  MOM disabled.
  Fractional occupation disabled.
  Guess Type is CORE.
  Energy threshold   = 1.00e-08
  Density threshold  = 1.00e-08
  Integral threshold = 0.00e+00

  ==> Primary Basis <==

  Basis Set: AUG-CC-PVTZ
    Number of shells: 120
    Number of basis function: 348
    Number of Cartesian functions: 398
    Spherical Harmonics?: true
    Max angular momentum: 3

  ==> Pre-Iterations <==

   -------------------------------------------------------
    Irrep   Nso     Nmo     Nalpha   Nbeta   Ndocc  Nsocc
   -------------------------------------------------------
     A        348     348       0       0       0       0
   -------------------------------------------------------
    Total     348     348      22      22      22       0
   -------------------------------------------------------

 OEINTS: Wrapper to libmints.
   by Justin Turney

   Calculation information:
      Number of atoms:                  10
      Number of AO shells:             120
      Number of SO shells:             120
      Number of primitives:            372
      Number of atomic orbitals:       398
      Number of basis functions:       348

      Number of irreps:                  1
      Number of functions per irrep: [ 348 ]

      Overlap, kinetic, potential, dipole, and quadrupole integrals
        stored in file 35.

  ==> Integral Setup <==

  ==> DFJK: Density-Fitted J/K Matrices <==

    J tasked:                  Yes
    K tasked:                  Yes
    wK tasked:                  No
    OpenMP threads:              4
    Integrals threads:           4
    Memory (MB):              5006
    Algorithm:                Core
    Integral Cache:           LOAD
    Schwarz Cutoff:          0E+00
    Fitting Condition:       1E-12

   => Auxiliary Basis Set <=

  Basis Set: aug-cc-pvtz-jkfit
    Number of shells: 260
    Number of basis function: 980
    Number of Cartesian functions: 1250
    Spherical Harmonics?: true
    Max angular momentum: 4

  Minimum eigenvalue in the overlap matrix is 4.5255659851E-05.
  Using Symmetric Orthogonalization.
  SCF Guess: Core (One-Electron) Hamiltonian.

  Guess energy: -1916.99967015646780

  ==> Iterations <==

                        Total Energy        Delta E     RMS |[F,P]|

   @RHF iter   1: -2558.61283070805757   -2.55861e+03   1.81754e-02 
   @RHF iter   2: -2439.50934415325264    1.19103e+02   4.45843e-02 DIIS
   @RHF iter   3: -2463.91693956763311   -2.44076e+01   3.09750e-02 DIIS
   @RHF iter   4: -2610.31950533021927   -1.46403e+02   6.34255e-03 DIIS
   @RHF iter   5: -2607.83509018654922    2.48442e+00   6.33436e-03 DIIS
   @RHF iter   6: -2611.79361074613598   -3.95852e+00   2.79605e-03 DIIS
   @RHF iter   7: -2611.84312418124773   -4.95134e-02   2.33181e-03 DIIS
   @RHF iter   8: -2611.94541312478532   -1.02289e-01   1.63104e-03 DIIS
   @RHF iter   9: -2612.07410103939765   -1.28688e-01   6.06352e-04 DIIS
   @RHF iter  10: -2612.09141508115363   -1.73140e-02   1.13571e-04 DIIS
   @RHF iter  11: -2612.09278873132507   -1.37365e-03   2.39266e-05 DIIS
   @RHF iter  12: -2612.09291131748705   -1.22586e-04   6.08828e-06 DIIS
   @RHF iter  13: -2612.09291926480773   -7.94732e-06   1.14133e-06 DIIS
   @RHF iter  14: -2612.09291947647307   -2.11665e-07   2.12558e-07 DIIS
   @RHF iter  15: -2612.09291948271539   -6.24232e-09   4.83398e-08 DIIS
   @RHF iter  16: -2612.09291948302916   -3.13776e-10   8.59958e-09 DIIS

  ==> Post-Iterations <==

	Orbital Energies (a.u.)
	-----------------------

	Doubly Occupied:                                                      

	   1A   -490.013636     2A    -65.153613     3A    -58.508899  
	   4A    -58.507526     5A    -58.507526     6A    -11.287000  
	   7A     -9.826555     8A     -7.438122     9A     -7.431425  
	  10A     -7.431425    11A     -3.181710    12A     -3.178230  
	  13A     -3.178230    14A     -3.169654    15A     -3.169654  
	  16A     -1.064386    17A     -0.897207    18A     -0.612591  
	  19A     -0.612590    20A     -0.508721    21A     -0.401826  
	  22A     -0.401825  

	Virtual:                                                              

	  23A      0.016951    24A      0.037900    25A      0.038859  
	  26A      0.038859    27A      0.056543    28A      0.056740  
	  29A      0.056740    30A      0.079049    31A      0.094475  
	  32A      0.100508    33A      0.100508    34A      0.119199  
	  35A      0.121294    36A      0.121294    37A      0.131637  
	  38A      0.131637    39A      0.140871    40A      0.145105  
	  41A      0.145105    42A      0.169531    43A      0.179610  
	  44A      0.198095    45A      0.198095    46A      0.222256  
	  47A      0.222256    48A      0.225746    49A      0.258397  
	  50A      0.264445    51A      0.271481    52A      0.271481  
	  53A      0.275048    54A      0.299120    55A      0.299120  
	  56A      0.304053    57A      0.304053    58A      0.325718  
	  59A      0.325718    60A      0.333278    61A      0.336764  
	  62A      0.336764    63A      0.341314    64A      0.342009  
	  65A      0.355932    66A      0.358340    67A      0.358341  
	  68A      0.365566    69A      0.366074    70A      0.366074  
	  71A      0.373206    72A      0.400167    73A      0.426638  
	  74A      0.426638    75A      0.438552    76A      0.438552  
	  77A      0.444509    78A      0.456110    79A      0.456110  
	  80A      0.463350    81A      0.463350    82A      0.470295  
	  83A      0.496253    84A      0.497666    85A      0.497666  
	  86A      0.541617    87A      0.541617    88A      0.548312  
	  89A      0.569898    90A      0.569898    91A      0.578280  
	  92A      0.594077    93A      0.594077    94A      0.640479  
	  95A      0.640480    96A      0.642623    97A      0.663338  
	  98A      0.663338    99A      0.679034   100A      0.717295  
	 101A      0.717295   102A      0.754283   103A      0.787453  
	 104A      0.787453   105A      0.796474   106A      0.818547  
	 107A      0.837384   108A      0.837385   109A      0.867577  
	 110A      0.896019   111A      0.896019   112A      0.930951  
	 113A      0.936683   114A      0.940287   115A      0.940287  
	 116A      0.940650   117A      0.953351   118A      0.970846  
	 119A      0.972787   120A      0.972787   121A      0.992660  
	 122A      0.992661   123A      1.011110   124A      1.012183  
	 125A      1.027633   126A      1.029969   127A      1.029969  
	 128A      1.035113   129A      1.035113   130A      1.046969  
	 131A      1.066300   132A      1.066300   133A      1.067175  
	 134A      1.085060   135A      1.085060   136A      1.092802  
	 137A      1.092802   138A      1.101133   139A      1.129526  
	 140A      1.129526   141A      1.132074   142A      1.142041  
	 143A      1.143346   144A      1.143347   145A      1.174544  
	 146A      1.174545   147A      1.194048   148A      1.194048  
	 149A      1.195317   150A      1.210320   151A      1.216721  
	 152A      1.231504   153A      1.231505   154A      1.247160  
	 155A      1.247160   156A      1.265650   157A      1.267787  
	 158A      1.267787   159A      1.321491   160A      1.321491  
	 161A      1.344148   162A      1.355943   163A      1.355943  
	 164A      1.387502   165A      1.387503   166A      1.393586  
	 167A      1.425579   168A      1.425579   169A      1.445891  
	 170A      1.462251   171A      1.462251   172A      1.490180  
	 173A      1.515839   174A      1.555137   175A      1.607530  
	 176A      1.607530   177A      1.615515   178A      1.670801  
	 179A      1.670801   180A      1.674259   181A      1.711055  
	 182A      1.714292   183A      1.714292   184A      1.750344  
	 185A      1.750345   186A      1.751633   187A      1.754526  
	 188A      1.866089   189A      1.866089   190A      1.872705  
	 191A      1.890639   192A      1.902857   193A      1.902858  
	 194A      1.923432   195A      1.923432   196A      1.935678  
	 197A      2.005248   198A      2.031944   199A      2.031944  
	 200A      2.057383   201A      2.057383   202A      2.092671  
	 203A      2.093132   204A      2.170435   205A      2.170435  
	 206A      2.261311   207A      2.261312   208A      2.266718  
	 209A      2.266718   210A      2.335605   211A      2.344804  
	 212A      2.345800   213A      2.346978   214A      2.346978  
	 215A      2.388624   216A      2.430972   217A      2.430972  
	 218A      2.438546   219A      2.438546   220A      2.438860  
	 221A      2.494002   222A      2.537914   223A      2.537915  
	 224A      2.614768   225A      2.614768   226A      2.698938  
	 227A      2.698939   228A      2.702210   229A      2.825030  
	 230A      2.972886   231A      2.972886   232A      2.979071  
	 233A      3.055953   234A      3.143116   235A      3.152654  
	 236A      3.256985   237A      3.256986   238A      3.304108  
	 239A      3.316060   240A      3.316061   241A      3.337356  
	 242A      3.337357   243A      3.438518   244A      3.438518  
	 245A      3.439574   246A      3.498338   247A      3.498339  
	 248A      3.512565   249A      3.512565   250A      3.557931  
	 251A      3.565197   252A      3.616515   253A      3.616516  
	 254A      3.711842   255A      3.743450   256A      3.758513  
	 257A      3.758514   258A      3.918595   259A      3.918595  
	 260A      3.957418   261A      4.026728   262A      4.048495  
	 263A      4.050044   264A      4.067786   265A      4.067786  
	 266A      4.083123   267A      4.083124   268A      4.122655  
	 269A      4.122655   270A      4.145160   271A      4.161964  
	 272A      4.161964   273A      4.239224   274A      4.391069  
	 275A      4.396831   276A      4.396831   277A      4.447081  
	 278A      4.447081   279A      4.472340   280A      4.472340  
	 281A      4.474912   282A      4.498523   283A      4.608374  
	 284A      4.608375   285A      4.744401   286A      4.762753  
	 287A      4.762754   288A      4.810633   289A      4.857251  
	 290A      4.871192   291A      4.871192   292A      4.900325  
	 293A      4.900326   294A      4.910786   295A      4.944014  
	 296A      4.944014   297A      5.154443   298A      5.154444  
	 299A      5.155622   300A      5.222791   301A      5.223830  
	 302A      5.287626   303A      5.287626   304A      5.335174  
	 305A      5.385486   306A      5.483606   307A      5.483606  
	 308A      5.502090   309A      5.502091   310A      5.598091  
	 311A      5.616310   312A      5.616311   313A      5.667036  
	 314A      5.704573   315A      6.039548   316A      6.039549  
	 317A      6.076771   318A      6.136694   319A      6.140509  
	 320A      6.140511   321A      6.277000   322A      6.588353  
	 323A      6.588354   324A      6.598839   325A      6.598840  
	 326A      7.170388   327A      7.483286   328A      7.750169  
	 329A      7.750170   330A      8.151254   331A      8.151258  
	 332A     10.274283   333A     10.884961   334A     13.616250  
	 335A     13.616250   336A     14.360454   337A     17.380137  
	 338A     26.184472   339A     26.184472   340A     26.371851  
	 341A     26.371852   342A     26.707839   343A     46.393539  
	 344A     51.469297   345A    138.662492   346A    138.662492  
	 347A    139.833041   348A    711.364733  

	Final Occupation by Irrep:
	          A 
	DOCC [    22 ]

  Energy converged.

  @RHF Final Energy: -2612.09291948302916

   => Energetics <=

    Nuclear Repulsion Energy =             89.7150327747125402
    One-Electron Energy =               -3814.6512039865542647
    Two-Electron Energy =                1112.8432517288151757
    DFT Exchange-Correlation Energy =       0.0000000000000000
    Empirical Dispersion Energy =           0.0000000000000000
    Total Energy =                      -2612.0929194830264350



Properties will be evaluated at   0.000000,   0.000000,   0.000000 Bohr
  ==> Properties <==


Properties computed using the SCF density density matrix
  Nuclear Dipole Moment: (a.u.)
     X:   229.0169      Y:     0.0003      Z:    -0.0001

  Electronic Dipole Moment: (a.u.)
     X:  -229.8503      Y:    -0.0003      Z:     0.0001

  Dipole Moment: (a.u.)
     X:    -0.8334      Y:     0.0000      Z:     0.0000     Total:     0.8334

  Dipole Moment: (Debye)
     X:    -2.1183      Y:     0.0000      Z:     0.0000     Total:     2.1183


  Saving occupied orbitals to File 180.

  Saving SAPT 2-MONOMER_B file.

*** tstop() called on node37.bme.utexas.edu at Mon Jun 23 16:47:04 2014
Module time:
	user time   =      67.11 seconds =       1.12 minutes
	system time =       0.76 seconds =       0.01 minutes
	total time  =         21 seconds =       0.35 minutes
Total time:
	user time   =     245.65 seconds =       4.09 minutes
	system time =       2.76 seconds =       0.05 minutes
	total time  =         77 seconds =       1.28 minutes
  No DF_BASIS_SAPT auxiliary basis selected, defaulting to aug-cc-pvtz-ri

  //>>>>>>>>>>>>>>>>>>>>>>>>>>>>>>>>>>>//
  //               SAPT2+              //
  //<<<<<<<<<<<<<<<<<<<<<<<<<<<<<<<<<<<//


*** tstart() called on node37.bme.utexas.edu
*** at Mon Jun 23 16:47:04 2014

        SAPT2+  
    Ed Hohenstein
     6 June 2009

      Orbital Information
  --------------------------
    NSO        =       348
    NMO        =       348
    NRI        =       870
    NOCC A     =        22
    NOCC B     =        22
    FOCC A     =        10
    FOCC B     =        10
    NVIR A     =       326
    NVIR B     =       326

    Estimated memory usage: 1974.2 MB

    Elst10,r            =    -0.001195326522 H
    Exch10 (S^2)        =     0.000896642252 H
    Exch10              =     0.000897054490 H
    Ind20,r (A<-B)      =    -0.000164669418 H
    Ind20,r (B<-A)      =    -0.000220613694 H
    Ind20,r             =    -0.000385283112 H
    Exch-Ind20,r (A<-B) =     0.000095641887 H
    Exch-Ind20,r (B<-A) =     0.000199226916 H
    Exch-Ind20,r        =     0.000294868803 H
    Disp20              =    -0.002066008346 H
    Exch-Disp20         =     0.000109628843 H
    Elst12,r            =     0.000130547910 H
    Exch11              =     0.000040890127 H
    Exch12              =     0.000034369838 H
    Ind22               =    -0.000020567653 H
    Disp21              =     0.000282252969 H
    Disp22 (SDQ)        =     0.000100367931 H

    (i =   1 of  12)        480 seconds
    (i =   2 of  12)        945 seconds
    (i =   3 of  12)       1425 seconds
    (i =   4 of  12)       1914 seconds
    (i =   5 of  12)       2401 seconds
    (i =   6 of  12)       2888 seconds
    (i =   7 of  12)       3380 seconds
    (i =   8 of  12)       3784 seconds
    (i =   9 of  12)       4189 seconds
    (i =  10 of  12)       4613 seconds
    (i =  11 of  12)       5033 seconds
    (i =  12 of  12)       5451 seconds

    Disp220 (T)         =    -0.000177724941 H

    (i =   1 of  12)        420 seconds
    (i =   2 of  12)        838 seconds
    (i =   3 of  12)       1253 seconds
    (i =   4 of  12)       1679 seconds
    (i =   5 of  12)       2091 seconds
    (i =   6 of  12)       2515 seconds
    (i =   7 of  12)       2926 seconds
    (i =   8 of  12)       3340 seconds
    (i =   9 of  12)       3764 seconds
    (i =  10 of  12)       4187 seconds
    (i =  11 of  12)       4612 seconds
    (i =  12 of  12)       5002 seconds

    Disp202 (T)         =    -0.000173420442 H

    Disp22 (T)          =    -0.000351145382 H

    SAPT Results  
  -----------------------------------------------------------------------
    Electrostatics          -1.06477861 mH      -0.66815869 kcal mol^-1
      Elst10,r              -1.19532652 mH      -0.75007875 kcal mol^-1
      Elst12,r               0.13054791 mH       0.08192005 kcal mol^-1

    Exchange                 0.97231445 mH       0.61013656 kcal mol^-1
      Exch10                 0.89705449 mH       0.56291021 kcal mol^-1
      Exch10(S^2)            0.89664225 mH       0.56265153 kcal mol^-1
      Exch11(S^2)            0.04089013 mH       0.02565894 kcal mol^-1
      Exch12(S^2)            0.03436984 mH       0.02156740 kcal mol^-1

    Induction                0.16007629 mH       0.10044939 kcal mol^-1
      Ind20,r               -0.38528311 mH      -0.24176881 kcal mol^-1
      Ind22                 -0.02056765 mH      -0.01290640 kcal mol^-1
      Exch-Ind20,r           0.29486880 mH       0.18503298 kcal mol^-1
      Exch-Ind22             0.01574105 mH       0.00987766 kcal mol^-1
      delta HF,r (2)         0.25531720 mH       0.16021397 kcal mol^-1

    Dispersion              -1.92490399 mH      -1.20789554 kcal mol^-1
      Disp20                -2.06600835 mH      -1.29643986 kcal mol^-1
      Disp21                 0.28225297 mH       0.17711642 kcal mol^-1
      Disp22 (SDQ)           0.10036793 mH       0.06298183 kcal mol^-1
      Disp22 (T)            -0.35114538 mH      -0.22034706 kcal mol^-1
      Exch-Disp20            0.10962884 mH       0.06879314 kcal mol^-1

    Total HF                -0.13336914 mH      -0.08369040 kcal mol^-1
    Total SAPT0             -2.08974864 mH      -1.31133712 kcal mol^-1
    Total SAPT2             -1.88876737 mH      -1.18521947 kcal mol^-1
    Total SAPT2+            -1.85729186 mH      -1.16546828 kcal mol^-1

*** tstop() called on node37.bme.utexas.edu at Mon Jun 23 20:05:00 2014
Module time:
	user time   =   39048.10 seconds =     650.80 minutes
	system time =     185.92 seconds =       3.10 minutes
	total time  =      11876 seconds =     197.93 minutes
Total time:
	user time   =   39293.75 seconds =     654.90 minutes
	system time =     188.69 seconds =       3.14 minutes
	total time  =      11953 seconds =     199.22 minutes

*** PSI4 exiting successfully. Buy a developer a beer!
