    -----------------------------------------------------------------------
          PSI4: An Open-Source Ab Initio Electronic Structure Package
                              PSI 4.0.0-beta4 Driver

    J. M. Turney, A. C. Simmonett, R. M. Parrish, E. G. Hohenstein,
    F. A. Evangelista, J. T. Fermann, B. J. Mintz, L. A. Burns, J. J. Wilke,
    M. L. Abrams, N. J. Russ, M. L. Leininger, C. L. Janssen, E. T. Seidl,
    W. D. Allen, H. F. Schaefer, R. A. King, E. F. Valeev, C. D. Sherrill,
    and T. D. Crawford, WIREs Comput. Mol. Sci., (2011) (doi: 10.1002/wcms.93)

                         Additional Contributions by
    A. E. DePrince, M. Saitow, U. Bozkaya, A. Yu. Sokolov
    -----------------------------------------------------------------------

    Process ID:  47978
    PSI4DATADIR: /home/xzhu216/psi4/psi4-install/share/psi

    Using LocalCommunicator (Number of processes = 1)

    Memory level set to 256.000 MB

  ==> Input File <==

--------------------------------------------------------------------------
#psi4
#
memory 20 gb

molecule BenF_Water {
0 1
    F     1.865439000    -0.037079000    -0.000227000
    C     0.515308000    -0.022013000    -0.000105000
    C    -0.137125000     1.200148000    -0.000160000
    C    -0.164215000    -1.229314000     0.000063000
    C    -1.530325000     1.207005000    -0.000041000
    C    -1.557219000    -1.205094000     0.000180000
    C    -2.241544000     0.008737000     0.000128000
    H     0.438176000     2.114297000    -0.000286000
    H     0.390597000    -2.156031000     0.000099000
    H    -2.056614000     2.151155000    -0.000079000
    H    -2.104439000    -2.137269000     0.000313000
    H    -3.321948000     0.020784000     0.000221000
--
0 1
    O     4.716222300     0.032122000     0.001280500
    H     4.113391300     0.013794000     0.747307500
    H     4.118842300     0.015696000    -0.749157500
units angstrom
no_reorient  #important for SAPT in psi4, default
symmetry c1  #important for SAPT in psi4, default
}

set {
basis aug-cc-pVTZ
scf_type DF
freeze_core True
}
energy('sapt2+')
--------------------------------------------------------------------------

  Memory set to  20.000 GiB by Python script.

  //>>>>>>>>>>>>>>>>>>>>>>>>>>>>>>>>>>>//
  //              Dimer HF             //
  //<<<<<<<<<<<<<<<<<<<<<<<<<<<<<<<<<<<//


  No DF_BASIS_SCF auxiliary basis selected, defaulting to aug-cc-pvtz-jkfit


*** tstart() called on node36.bme.utexas.edu
*** at Thu Jul 10 11:42:12 2014


         ---------------------------------------------------------
                                   SCF
            by Justin Turney, Rob Parrish, and Andy Simmonett
                              RHF Reference
                        4 Threads,  20000 MiB Core
         ---------------------------------------------------------

  ==> Geometry <==

    Molecular point group: c1
    Full point group: C1

    Geometry (in Angstrom), charge = 0, multiplicity = 1:

       Center              X                  Y                   Z       
    ------------   -----------------  -----------------  -----------------
           F          1.417515255750    -0.031340862308    -0.000361631549
           C          0.067384255750    -0.016274862308    -0.000239631549
           C         -0.585048744250     1.205886137692    -0.000294631549
           C         -0.612138744250    -1.223575862308    -0.000071631549
           C         -1.978248744250     1.212743137692    -0.000175631549
           C         -2.005142744250    -1.199355862308     0.000045368451
           C         -2.689467744250     0.014475137692    -0.000006631549
           H         -0.009747744250     2.120035137692    -0.000420631549
           H         -0.057326744250    -2.150292862308    -0.000035631549
           H         -2.504537744250     2.156893137692    -0.000213631549
           H         -2.552362744250    -2.131530862308     0.000178368451
           H         -3.769871744250     0.026522137692     0.000086368451
           O          4.268298555750     0.037860137692     0.001145868451
           H          3.665467555750     0.019532137692     0.747172868451
           H          3.670918555750     0.021434137692    -0.749292131549

  Running in c1 symmetry.

  Nuclear repulsion =  336.116256825028870

  Charge       = 0
  Multiplicity = 1
  Electrons    = 60
  Nalpha       = 30
  Nbeta        = 30

  ==> Algorithm <==

  SCF Algorithm Type is DF.
  DIIS enabled.
  MOM disabled.
  Fractional occupation disabled.
  Guess Type is CORE.
  Energy threshold   = 1.00e-08
  Density threshold  = 1.00e-08
  Integral threshold = 0.00e+00

  ==> Primary Basis <==

  Basis Set: AUG-CC-PVTZ
    Number of shells: 175
    Number of basis function: 529
    Number of Cartesian functions: 615
    Spherical Harmonics?: true
    Max angular momentum: 3

  ==> Pre-Iterations <==

   -------------------------------------------------------
    Irrep   Nso     Nmo     Nalpha   Nbeta   Ndocc  Nsocc
   -------------------------------------------------------
     A        529     529       0       0       0       0
   -------------------------------------------------------
    Total     529     529      30      30      30       0
   -------------------------------------------------------

 OEINTS: Wrapper to libmints.
   by Justin Turney

   Calculation information:
      Number of atoms:                  15
      Number of AO shells:             175
      Number of SO shells:             175
      Number of primitives:            317
      Number of atomic orbitals:       615
      Number of basis functions:       529

      Number of irreps:                  1
      Number of functions per irrep: [ 529 ]

      Overlap, kinetic, potential, dipole, and quadrupole integrals
        stored in file 35.

  ==> Integral Setup <==

  ==> DFJK: Density-Fitted J/K Matrices <==

    J tasked:                  Yes
    K tasked:                  Yes
    wK tasked:                  No
    OpenMP threads:              4
    Integrals threads:           4
    Memory (MB):             14305
    Algorithm:                Core
    Integral Cache:           SAVE
    Schwarz Cutoff:          0E+00
    Fitting Condition:       1E-12

   => Auxiliary Basis Set <=

  Basis Set: aug-cc-pvtz-jkfit
    Number of shells: 338
    Number of basis function: 1154
    Number of Cartesian functions: 1433
    Spherical Harmonics?: true
    Max angular momentum: 4

  Minimum eigenvalue in the overlap matrix is 8.7847909240E-07.
  Using Symmetric Orthogonalization.
  SCF Guess: Core (One-Electron) Hamiltonian.

  Guess energy:  -330.04964966058293

  ==> Iterations <==

                        Total Energy        Delta E     RMS |[F,P]|

   @RHF iter   1:  -284.15997956608209   -2.84160e+02   2.96116e-02 
   @RHF iter   2:   -33.42087800102075    2.50739e+02   4.21770e-02 DIIS
   @RHF iter   3:  -241.27533024884025   -2.07854e+02   2.01135e-02 DIIS
   @RHF iter   4:  -280.23429171709796   -3.89590e+01   2.37905e-02 DIIS
   @RHF iter   5:  -373.48414195269987   -9.32499e+01   1.19119e-02 DIIS
   @RHF iter   6:  -393.11786330113085   -1.96337e+01   8.62689e-03 DIIS
   @RHF iter   7:  -405.41949331217307   -1.23016e+01   1.62184e-03 DIIS
   @RHF iter   8:  -405.67868855891771   -2.59195e-01   7.08041e-04 DIIS
   @RHF iter   9:  -405.73160757559691   -5.29190e-02   1.11264e-04 DIIS
   @RHF iter  10:  -405.73370817927895   -2.10060e-03   3.41987e-05 DIIS
   @RHF iter  11:  -405.73391579188882   -2.07613e-04   1.38324e-05 DIIS
   @RHF iter  12:  -405.73394845394495   -3.26621e-05   4.10542e-06 DIIS
   @RHF iter  13:  -405.73395410557970   -5.65163e-06   1.69673e-06 DIIS
   @RHF iter  14:  -405.73395541714780   -1.31157e-06   8.75897e-07 DIIS
   @RHF iter  15:  -405.73395602057047   -6.03423e-07   3.50504e-07 DIIS
   @RHF iter  16:  -405.73395611278607   -9.22156e-08   1.26345e-07 DIIS
   @RHF iter  17:  -405.73395612077405   -7.98798e-09   4.31228e-08 DIIS
   @RHF iter  18:  -405.73395612133123   -5.57179e-10   1.07608e-08 DIIS
   @RHF iter  19:  -405.73395612137568   -4.44516e-11   3.92503e-09 DIIS

  ==> Post-Iterations <==

	Orbital Energies (a.u.)
	-----------------------

	Doubly Occupied:                                                      

	   1A    -26.326409     2A    -20.547319     3A    -11.339960  
	   4A    -11.259169     5A    -11.259108     6A    -11.254158  
	   7A    -11.254141     8A    -11.249236     9A     -1.643983  
	  10A     -1.334190    11A     -1.174685    12A     -1.042501  
	  13A     -1.033564    14A     -0.866178    15A     -0.855000  
	  16A     -0.759750    17A     -0.714575    18A     -0.712910  
	  19A     -0.698835    20A     -0.691908    21A     -0.634327  
	  22A     -0.616859    23A     -0.607162    24A     -0.568604  
	  25A     -0.540295    26A     -0.519923    27A     -0.517865  
	  28A     -0.491112    29A     -0.360723    30A     -0.351092  

	Virtual:                                                              

	  31A      0.024258    32A      0.030318    33A      0.034150  
	  34A      0.047083    35A      0.048763    36A      0.053329  
	  37A      0.068593    38A      0.087449    39A      0.089742  
	  40A      0.093051    41A      0.098161    42A      0.102394  
	  43A      0.109522    44A      0.109748    45A      0.116150  
	  46A      0.121475    47A      0.127377    48A      0.128008  
	  49A      0.128442    50A      0.136020    51A      0.139838  
	  52A      0.148123    53A      0.150214    54A      0.152611  
	  55A      0.152787    56A      0.159083    57A      0.165896  
	  58A      0.198950    59A      0.202609    60A      0.205484  
	  61A      0.225145    62A      0.228703    63A      0.233747  
	  64A      0.234906    65A      0.242008    66A      0.247889  
	  67A      0.258571    68A      0.270683    69A      0.274536  
	  70A      0.281010    71A      0.283734    72A      0.288106  
	  73A      0.288618    74A      0.297368    75A      0.299856  
	  76A      0.300482    77A      0.303034    78A      0.313692  
	  79A      0.321981    80A      0.327453    81A      0.328821  
	  82A      0.332101    83A      0.337832    84A      0.349482  
	  85A      0.360856    86A      0.369839    87A      0.376836  
	  88A      0.377063    89A      0.391516    90A      0.413792  
	  91A      0.418780    92A      0.422624    93A      0.424428  
	  94A      0.437223    95A      0.438071    96A      0.441920  
	  97A      0.444055    98A      0.451013    99A      0.454901  
	 100A      0.460998   101A      0.465360   102A      0.466944  
	 103A      0.469182   104A      0.472847   105A      0.488447  
	 106A      0.492467   107A      0.497519   108A      0.503021  
	 109A      0.504906   110A      0.516925   111A      0.524310  
	 112A      0.525953   113A      0.527324   114A      0.533024  
	 115A      0.546237   116A      0.547520   117A      0.561349  
	 118A      0.578304   119A      0.590195   120A      0.590645  
	 121A      0.615535   122A      0.615887   123A      0.621395  
	 124A      0.627897   125A      0.638934   126A      0.640803  
	 127A      0.659451   128A      0.666526   129A      0.668880  
	 130A      0.674365   131A      0.689395   132A      0.693631  
	 133A      0.697018   134A      0.714556   135A      0.718323  
	 136A      0.722329   137A      0.733811   138A      0.749666  
	 139A      0.750823   140A      0.760542   141A      0.766198  
	 142A      0.773201   143A      0.780770   144A      0.797678  
	 145A      0.804205   146A      0.813796   147A      0.826928  
	 148A      0.839622   149A      0.845411   150A      0.851347  
	 151A      0.859714   152A      0.864485   153A      0.869443  
	 154A      0.879818   155A      0.892294   156A      0.894003  
	 157A      0.897528   158A      0.898413   159A      0.903562  
	 160A      0.918440   161A      0.926273   162A      0.928403  
	 163A      0.933113   164A      0.952103   165A      0.959643  
	 166A      0.965452   167A      0.971595   168A      0.973494  
	 169A      0.976593   170A      0.979818   171A      0.993550  
	 172A      0.994830   173A      1.016921   174A      1.018025  
	 175A      1.020056   176A      1.028087   177A      1.038736  
	 178A      1.041234   179A      1.055002   180A      1.055492  
	 181A      1.057677   182A      1.073453   183A      1.080507  
	 184A      1.082942   185A      1.084838   186A      1.093948  
	 187A      1.094726   188A      1.100032   189A      1.121486  
	 190A      1.126909   191A      1.131236   192A      1.138951  
	 193A      1.149491   194A      1.155672   195A      1.159032  
	 196A      1.160579   197A      1.162461   198A      1.184335  
	 199A      1.185154   200A      1.191107   201A      1.204546  
	 202A      1.208776   203A      1.211267   204A      1.216821  
	 205A      1.221134   206A      1.237418   207A      1.246363  
	 208A      1.255211   209A      1.264537   210A      1.270337  
	 211A      1.279407   212A      1.307723   213A      1.320379  
	 214A      1.330651   215A      1.333401   216A      1.353341  
	 217A      1.366790   218A      1.370296   219A      1.390117  
	 220A      1.390876   221A      1.392311   222A      1.397140  
	 223A      1.419652   224A      1.442694   225A      1.451447  
	 226A      1.464304   227A      1.472467   228A      1.485040  
	 229A      1.488665   230A      1.505857   231A      1.518428  
	 232A      1.526570   233A      1.558156   234A      1.573485  
	 235A      1.582660   236A      1.605453   237A      1.626927  
	 238A      1.635814   239A      1.655004   240A      1.657866  
	 241A      1.668462   242A      1.669213   243A      1.679374  
	 244A      1.707051   245A      1.707510   246A      1.732135  
	 247A      1.740312   248A      1.757242   249A      1.769689  
	 250A      1.773540   251A      1.806266   252A      1.810778  
	 253A      1.813876   254A      1.821048   255A      1.832456  
	 256A      1.836495   257A      1.862268   258A      1.867549  
	 259A      1.868310   260A      1.873912   261A      1.875865  
	 262A      1.882720   263A      1.899642   264A      1.937795  
	 265A      1.949184   266A      1.950339   267A      1.971969  
	 268A      1.979043   269A      2.002327   270A      2.004466  
	 271A      2.005320   272A      2.008984   273A      2.023053  
	 274A      2.042230   275A      2.050610   276A      2.067734  
	 277A      2.071940   278A      2.079195   279A      2.082062  
	 280A      2.097104   281A      2.102995   282A      2.115396  
	 283A      2.205563   284A      2.206700   285A      2.241812  
	 286A      2.267500   287A      2.274942   288A      2.277171  
	 289A      2.301905   290A      2.308293   291A      2.325252  
	 292A      2.348502   293A      2.355489   294A      2.358509  
	 295A      2.365124   296A      2.372728   297A      2.396783  
	 298A      2.416368   299A      2.422818   300A      2.429079  
	 301A      2.480226   302A      2.521008   303A      2.533468  
	 304A      2.541997   305A      2.544922   306A      2.574014  
	 307A      2.595148   308A      2.600045   309A      2.624166  
	 310A      2.686591   311A      2.695051   312A      2.698194  
	 313A      2.716788   314A      2.720488   315A      2.727926  
	 316A      2.742209   317A      2.749930   318A      2.786043  
	 319A      2.830453   320A      2.852236   321A      2.891418  
	 322A      2.913748   323A      2.916659   324A      2.999416  
	 325A      3.012878   326A      3.017958   327A      3.026580  
	 328A      3.079633   329A      3.116150   330A      3.123305  
	 331A      3.138527   332A      3.170247   333A      3.183504  
	 334A      3.193181   335A      3.203717   336A      3.234249  
	 337A      3.255273   338A      3.285838   339A      3.289815  
	 340A      3.332463   341A      3.334767   342A      3.343404  
	 343A      3.348925   344A      3.352348   345A      3.381420  
	 346A      3.404012   347A      3.413651   348A      3.437959  
	 349A      3.450455   350A      3.460182   351A      3.492305  
	 352A      3.514094   353A      3.523983   354A      3.527689  
	 355A      3.535215   356A      3.541036   357A      3.542386  
	 358A      3.557164   359A      3.566535   360A      3.594377  
	 361A      3.621590   362A      3.649396   363A      3.651558  
	 364A      3.666050   365A      3.693514   366A      3.703061  
	 367A      3.746267   368A      3.750734   369A      3.776482  
	 370A      3.784674   371A      3.796988   372A      3.803962  
	 373A      3.804784   374A      3.818421   375A      3.843385  
	 376A      3.845841   377A      3.872064   378A      3.887389  
	 379A      3.918556   380A      3.921468   381A      3.924017  
	 382A      3.950322   383A      3.954232   384A      3.967666  
	 385A      3.986293   386A      4.000221   387A      4.015997  
	 388A      4.029236   389A      4.037715   390A      4.062200  
	 391A      4.067119   392A      4.087207   393A      4.102243  
	 394A      4.107939   395A      4.114471   396A      4.135027  
	 397A      4.158938   398A      4.187835   399A      4.218972  
	 400A      4.220168   401A      4.240960   402A      4.254948  
	 403A      4.275693   404A      4.288996   405A      4.312460  
	 406A      4.318366   407A      4.323940   408A      4.329548  
	 409A      4.336284   410A      4.354455   411A      4.358159  
	 412A      4.364655   413A      4.375412   414A      4.389219  
	 415A      4.395301   416A      4.401003   417A      4.412322  
	 418A      4.413486   419A      4.438725   420A      4.453005  
	 421A      4.461747   422A      4.481324   423A      4.493602  
	 424A      4.514260   425A      4.572695   426A      4.581665  
	 427A      4.636472   428A      4.695059   429A      4.696467  
	 430A      4.703946   431A      4.714414   432A      4.728365  
	 433A      4.759824   434A      4.778005   435A      4.789265  
	 436A      4.817429   437A      4.849100   438A      4.851389  
	 439A      4.908282   440A      4.922748   441A      4.933582  
	 442A      4.938599   443A      4.971887   444A      5.036903  
	 445A      5.037794   446A      5.058363   447A      5.069057  
	 448A      5.085620   449A      5.102047   450A      5.132713  
	 451A      5.138831   452A      5.142578   453A      5.161909  
	 454A      5.162701   455A      5.175235   456A      5.220673  
	 457A      5.230813   458A      5.256004   459A      5.272035  
	 460A      5.290880   461A      5.301799   462A      5.321084  
	 463A      5.327553   464A      5.335774   465A      5.340764  
	 466A      5.426808   467A      5.446895   468A      5.452441  
	 469A      5.518908   470A      5.564972   471A      5.606653  
	 472A      5.630811   473A      5.632421   474A      5.724427  
	 475A      5.749930   476A      5.762953   477A      5.782133  
	 478A      5.862138   479A      5.865849   480A      5.949577  
	 481A      6.063471   482A      6.173817   483A      6.212253  
	 484A      6.231975   485A      6.252297   486A      6.308274  
	 487A      6.323381   488A      6.348394   489A      6.459087  
	 490A      6.545782   491A      6.630532   492A      6.704661  
	 493A      6.819703   494A      6.846948   495A      7.001135  
	 496A      7.007228   497A      7.045973   498A      7.192957  
	 499A      7.309364   500A      7.347405   501A      7.379675  
	 502A      7.382314   503A      7.387120   504A      7.423547  
	 505A      7.439221   506A      7.636310   507A      7.963748  
	 508A      8.003602   509A      8.862916   510A      8.948032  
	 511A      9.011928   512A      9.245562   513A      9.248580  
	 514A      9.429674   515A      9.446951   516A      9.497752  
	 517A      9.572327   518A      9.593757   519A      9.740347  
	 520A      9.982158   521A     10.194869   522A     15.935689  
	 523A     16.054724   524A     16.086402   525A     16.317728  
	 526A     17.786085   527A     19.418805   528A     19.583920  
	 529A     19.613655  

	Final Occupation by Irrep:
	          A 
	DOCC [    30 ]

  Energy converged.

  @RHF Final Energy:  -405.73395612137568

   => Energetics <=

    Nuclear Repulsion Energy =            336.1162568250288700
    One-Electron Energy =               -1221.2493371003852189
    Two-Electron Energy =                 479.3991241539797556
    DFT Exchange-Correlation Energy =       0.0000000000000000
    Empirical Dispersion Energy =           0.0000000000000000
    Total Energy =                       -405.7339561213766501



Properties will be evaluated at   0.000000,   0.000000,   0.000000 Bohr
  ==> Properties <==


Properties computed using the SCF density density matrix
  Nuclear Dipole Moment: (a.u.)
     X:    -2.7768      Y:     0.0884      Z:    -0.0020

  Electronic Dipole Moment: (a.u.)
     X:     1.0787      Y:    -0.1041      Z:    -0.0008

  Dipole Moment: (a.u.)
     X:    -1.6981      Y:    -0.0157      Z:    -0.0029     Total:     1.6982

  Dipole Moment: (Debye)
     X:    -4.3161      Y:    -0.0399      Z:    -0.0073     Total:     4.3163


  Saving occupied orbitals to File 180.

  Saving SAPT 2-DIMER file.

*** tstop() called on node36.bme.utexas.edu at Thu Jul 10 11:43:38 2014
Module time:
	user time   =     312.08 seconds =       5.20 minutes
	system time =       2.89 seconds =       0.05 minutes
	total time  =         86 seconds =       1.43 minutes
Total time:
	user time   =     312.08 seconds =       5.20 minutes
	system time =       2.89 seconds =       0.05 minutes
	total time  =         86 seconds =       1.43 minutes

  //>>>>>>>>>>>>>>>>>>>>>>>>>>>>>>>>>>>//
  //            Monomer A HF           //
  //<<<<<<<<<<<<<<<<<<<<<<<<<<<<<<<<<<<//


  No DF_BASIS_SCF auxiliary basis selected, defaulting to aug-cc-pvtz-jkfit


*** tstart() called on node36.bme.utexas.edu
*** at Thu Jul 10 11:43:38 2014


         ---------------------------------------------------------
                                   SCF
            by Justin Turney, Rob Parrish, and Andy Simmonett
                              RHF Reference
                        4 Threads,  20000 MiB Core
         ---------------------------------------------------------

  ==> Geometry <==

    Molecular point group: c1
    Full point group: C1

    Geometry (in Angstrom), charge = 0, multiplicity = 1:

       Center              X                  Y                   Z       
    ------------   -----------------  -----------------  -----------------
           F          1.417515255750    -0.031340862308    -0.000361631549
           C          0.067384255750    -0.016274862308    -0.000239631549
           C         -0.585048744250     1.205886137692    -0.000294631549
           C         -0.612138744250    -1.223575862308    -0.000071631549
           C         -1.978248744250     1.212743137692    -0.000175631549
           C         -2.005142744250    -1.199355862308     0.000045368451
           C         -2.689467744250     0.014475137692    -0.000006631549
           H         -0.009747744250     2.120035137692    -0.000420631549
           H         -0.057326744250    -2.150292862308    -0.000035631549
           H         -2.504537744250     2.156893137692    -0.000213631549
           H         -2.552362744250    -2.131530862308     0.000178368451
           H         -3.769871744250     0.026522137692     0.000086368451
           O(Gh)      4.268298555750     0.037860137692     0.001145868451
           H(Gh)      3.665467555750     0.019532137692     0.747172868451
           H(Gh)      3.670918555750     0.021434137692    -0.749292131549

  Running in c1 symmetry.

  Nuclear repulsion =  269.622124876267435

  Charge       = 0
  Multiplicity = 1
  Electrons    = 50
  Nalpha       = 25
  Nbeta        = 25

  ==> Algorithm <==

  SCF Algorithm Type is DF.
  DIIS enabled.
  MOM disabled.
  Fractional occupation disabled.
  Guess Type is CORE.
  Energy threshold   = 1.00e-08
  Density threshold  = 1.00e-08
  Integral threshold = 0.00e+00

  ==> Primary Basis <==

  Basis Set: AUG-CC-PVTZ
    Number of shells: 175
    Number of basis function: 529
    Number of Cartesian functions: 615
    Spherical Harmonics?: true
    Max angular momentum: 3

  ==> Pre-Iterations <==

   -------------------------------------------------------
    Irrep   Nso     Nmo     Nalpha   Nbeta   Ndocc  Nsocc
   -------------------------------------------------------
     A        529     529       0       0       0       0
   -------------------------------------------------------
    Total     529     529      25      25      25       0
   -------------------------------------------------------

 OEINTS: Wrapper to libmints.
   by Justin Turney

   Calculation information:
      Number of atoms:                  15
      Number of AO shells:             175
      Number of SO shells:             175
      Number of primitives:            317
      Number of atomic orbitals:       615
      Number of basis functions:       529

      Number of irreps:                  1
      Number of functions per irrep: [ 529 ]

      Overlap, kinetic, potential, dipole, and quadrupole integrals
        stored in file 35.

  ==> Integral Setup <==

  ==> DFJK: Density-Fitted J/K Matrices <==

    J tasked:                  Yes
    K tasked:                  Yes
    wK tasked:                  No
    OpenMP threads:              4
    Integrals threads:           4
    Memory (MB):             14305
    Algorithm:                Core
    Integral Cache:           LOAD
    Schwarz Cutoff:          0E+00
    Fitting Condition:       1E-12

   => Auxiliary Basis Set <=

  Basis Set: aug-cc-pvtz-jkfit
    Number of shells: 338
    Number of basis function: 1154
    Number of Cartesian functions: 1433
    Spherical Harmonics?: true
    Max angular momentum: 4

  Minimum eigenvalue in the overlap matrix is 8.7847909218E-07.
  Using Symmetric Orthogonalization.
  SCF Guess: Core (One-Electron) Hamiltonian.

  Guess energy:  -261.68451698817671

  ==> Iterations <==

                        Total Energy        Delta E     RMS |[F,P]|

   @RHF iter   1:  -258.03314153381473   -2.58033e+02   2.58883e-02 
   @RHF iter   2:  -217.61976764872122    4.04134e+01   1.58900e-02 DIIS
   @RHF iter   3:  -262.54510319817211   -4.49253e+01   1.75590e-02 DIIS
   @RHF iter   4:  -318.42919002908252   -5.58841e+01   7.30893e-03 DIIS
   @RHF iter   5:  -328.77744705541056   -1.03483e+01   2.57458e-03 DIIS
   @RHF iter   6:  -329.57036317785571   -7.92916e-01   9.71567e-04 DIIS
   @RHF iter   7:  -329.66223777768198   -9.18746e-02   2.35341e-04 DIIS
   @RHF iter   8:  -329.67064853636555   -8.41076e-03   9.52577e-05 DIIS
   @RHF iter   9:  -329.67224496032259   -1.59642e-03   3.04225e-05 DIIS
   @RHF iter  10:  -329.67247535895547   -2.30399e-04   1.63035e-05 DIIS
   @RHF iter  11:  -329.67258306921383   -1.07710e-04   6.81885e-06 DIIS
   @RHF iter  12:  -329.67261293397110   -2.98648e-05   2.48832e-06 DIIS
   @RHF iter  13:  -329.67261612648849   -3.19252e-06   1.07486e-06 DIIS
   @RHF iter  14:  -329.67261682524713   -6.98759e-07   3.83644e-07 DIIS
   @RHF iter  15:  -329.67261690017722   -7.49301e-08   6.93302e-08 DIIS
   @RHF iter  16:  -329.67261690182363   -1.64641e-09   2.10001e-08 DIIS
   @RHF iter  17:  -329.67261690193573   -1.12095e-10   5.26925e-09 DIIS

  ==> Post-Iterations <==

	Orbital Energies (a.u.)
	-----------------------

	Doubly Occupied:                                                      

	   1A    -26.308529     2A    -11.329764     3A    -11.251487  
	   4A    -11.251428     5A    -11.245073     6A    -11.245057  
	   7A    -11.241284     8A     -1.624750     9A     -1.165923  
	  10A     -1.034104    11A     -1.023886    12A     -0.856892  
	  13A     -0.842482    14A     -0.745795    15A     -0.700269  
	  16A     -0.692331    17A     -0.688698    18A     -0.625422  
	  19A     -0.607469    20A     -0.596128    21A     -0.532449  
	  22A     -0.510870    23A     -0.509189    24A     -0.352809  
	  25A     -0.341551  

	Virtual:                                                              

	  26A      0.027522    27A      0.032966    28A      0.034750  
	  29A      0.047116    30A      0.048398    31A      0.054988  
	  32A      0.062780    33A      0.094468    34A      0.094963  
	  35A      0.097569    36A      0.104188    37A      0.107274  
	  38A      0.112367    39A      0.112686    40A      0.116661  
	  41A      0.123748    42A      0.129528    43A      0.131924  
	  44A      0.132748    45A      0.138984    46A      0.140265  
	  47A      0.149282    48A      0.149526    49A      0.155936  
	  50A      0.159425    51A      0.160058    52A      0.163581  
	  53A      0.181735    54A      0.185224    55A      0.187706  
	  56A      0.220683    57A      0.223465    58A      0.225680  
	  59A      0.245467    60A      0.246532    61A      0.251713  
	  62A      0.263056    63A      0.273473    64A      0.287177  
	  65A      0.292325    66A      0.295711    67A      0.296478  
	  68A      0.297573    69A      0.301965    70A      0.306028  
	  71A      0.306910    72A      0.313117    73A      0.318766  
	  74A      0.326832    75A      0.328524    76A      0.329136  
	  77A      0.340320    78A      0.341248    79A      0.354362  
	  80A      0.363623    81A      0.374258    82A      0.375462  
	  83A      0.384897    84A      0.394264    85A      0.413324  
	  86A      0.421025    87A      0.421294    88A      0.429060  
	  89A      0.432134    90A      0.436754    91A      0.440903  
	  92A      0.446388    93A      0.452623    94A      0.457350  
	  95A      0.459957    96A      0.466476    97A      0.472237  
	  98A      0.475504    99A      0.479113   100A      0.479891  
	 101A      0.485541   102A      0.495154   103A      0.498050  
	 104A      0.504747   105A      0.518328   106A      0.522840  
	 107A      0.528104   108A      0.532203   109A      0.537437  
	 110A      0.537936   111A      0.550272   112A      0.562995  
	 113A      0.575061   114A      0.600690   115A      0.618270  
	 116A      0.623919   117A      0.627935   118A      0.637244  
	 119A      0.637714   120A      0.645490   121A      0.652339  
	 122A      0.666631   123A      0.681890   124A      0.682580  
	 125A      0.684674   126A      0.693320   127A      0.703712  
	 128A      0.706722   129A      0.715050   130A      0.720933  
	 131A      0.741480   132A      0.748348   133A      0.756950  
	 134A      0.759068   135A      0.762721   136A      0.789110  
	 137A      0.795508   138A      0.809985   139A      0.823355  
	 140A      0.829807   141A      0.830073   142A      0.835953  
	 143A      0.848530   144A      0.858867   145A      0.863711  
	 146A      0.865012   147A      0.868985   148A      0.880402  
	 149A      0.882531   150A      0.885685   151A      0.893150  
	 152A      0.898645   153A      0.901852   154A      0.909222  
	 155A      0.913380   156A      0.915134   157A      0.921556  
	 158A      0.930216   159A      0.936306   160A      0.945084  
	 161A      0.949754   162A      0.964101   163A      0.974145  
	 164A      0.978516   165A      0.995985   166A      0.997454  
	 167A      1.000051   168A      1.001405   169A      1.028696  
	 170A      1.029337   171A      1.045146   172A      1.047949  
	 173A      1.050549   174A      1.053881   175A      1.054338  
	 176A      1.066931   177A      1.069739   178A      1.080776  
	 179A      1.089769   180A      1.091164   181A      1.096762  
	 182A      1.097528   183A      1.109470   184A      1.116129  
	 185A      1.128311   186A      1.130034   187A      1.136904  
	 188A      1.137252   189A      1.166099   190A      1.168819  
	 191A      1.170040   192A      1.181756   193A      1.192548  
	 194A      1.196520   195A      1.202140   196A      1.206303  
	 197A      1.225553   198A      1.227595   199A      1.233921  
	 200A      1.240381   201A      1.245132   202A      1.245298  
	 203A      1.251605   204A      1.276988   205A      1.283728  
	 206A      1.319743   207A      1.321961   208A      1.323860  
	 209A      1.336399   210A      1.363327   211A      1.369147  
	 212A      1.379779   213A      1.391260   214A      1.398310  
	 215A      1.403521   216A      1.403778   217A      1.427300  
	 218A      1.462961   219A      1.464060   220A      1.472929  
	 221A      1.485908   222A      1.492138   223A      1.498775  
	 224A      1.500440   225A      1.511781   226A      1.518505  
	 227A      1.524911   228A      1.545414   229A      1.593983  
	 230A      1.623256   231A      1.636703   232A      1.637488  
	 233A      1.675043   234A      1.675345   235A      1.677825  
	 236A      1.679657   237A      1.691447   238A      1.714580  
	 239A      1.718510   240A      1.742841   241A      1.744242  
	 242A      1.747546   243A      1.749960   244A      1.766032  
	 245A      1.785240   246A      1.787620   247A      1.815950  
	 248A      1.824715   249A      1.826709   250A      1.829512  
	 251A      1.845096   252A      1.847969   253A      1.872020  
	 254A      1.878409   255A      1.885531   256A      1.890488  
	 257A      1.891094   258A      1.901679   259A      1.940718  
	 260A      1.953380   261A      1.962180   262A      1.973696  
	 263A      1.979745   264A      1.995375   265A      2.011234  
	 266A      2.017218   267A      2.018947   268A      2.043395  
	 269A      2.051843   270A      2.059605   271A      2.074028  
	 272A      2.080386   273A      2.083509   274A      2.094537  
	 275A      2.096320   276A      2.119888   277A      2.130195  
	 278A      2.131610   279A      2.213279   280A      2.220511  
	 281A      2.256085   282A      2.276424   283A      2.280440  
	 284A      2.286939   285A      2.323193   286A      2.334499  
	 287A      2.351495   288A      2.359922   289A      2.367993  
	 290A      2.397294   291A      2.406005   292A      2.438829  
	 293A      2.480761   294A      2.484406   295A      2.501169  
	 296A      2.535294   297A      2.542252   298A      2.550912  
	 299A      2.566260   300A      2.577341   301A      2.586561  
	 302A      2.589535   303A      2.611020   304A      2.668111  
	 305A      2.687529   306A      2.713771   307A      2.729664  
	 308A      2.733066   309A      2.751984   310A      2.759847  
	 311A      2.775399   312A      2.853530   313A      2.873294  
	 314A      2.911614   315A      2.940029   316A      2.984664  
	 317A      3.014700   318A      3.035141   319A      3.056150  
	 320A      3.087630   321A      3.122159   322A      3.130618  
	 323A      3.148707   324A      3.158222   325A      3.177212  
	 326A      3.194409   327A      3.206171   328A      3.217876  
	 329A      3.232598   330A      3.235325   331A      3.243431  
	 332A      3.270434   333A      3.294024   334A      3.298911  
	 335A      3.332408   336A      3.338059   337A      3.344708  
	 338A      3.353822   339A      3.357902   340A      3.362308  
	 341A      3.391170   342A      3.409091   343A      3.415376  
	 344A      3.437766   345A      3.447460   346A      3.469971  
	 347A      3.494446   348A      3.503954   349A      3.531522  
	 350A      3.536170   351A      3.538462   352A      3.549347  
	 353A      3.551731   354A      3.552819   355A      3.566035  
	 356A      3.581961   357A      3.605496   358A      3.613805  
	 359A      3.631427   360A      3.661368   361A      3.676228  
	 362A      3.682141   363A      3.687736   364A      3.713153  
	 365A      3.751215   366A      3.762383   367A      3.794060  
	 368A      3.798686   369A      3.800734   370A      3.813668  
	 371A      3.827271   372A      3.841542   373A      3.852510  
	 374A      3.856813   375A      3.882242   376A      3.925779  
	 377A      3.930998   378A      3.934461   379A      3.959596  
	 380A      3.961325   381A      3.972414   382A      3.995538  
	 383A      4.006157   384A      4.027696   385A      4.046389  
	 386A      4.047255   387A      4.073722   388A      4.100756  
	 389A      4.110533   390A      4.110780   391A      4.124516  
	 392A      4.147148   393A      4.166761   394A      4.195780  
	 395A      4.227113   396A      4.253918   397A      4.270430  
	 398A      4.291848   399A      4.297599   400A      4.326117  
	 401A      4.338229   402A      4.343191   403A      4.343616  
	 404A      4.372966   405A      4.378452   406A      4.396781  
	 407A      4.397555   408A      4.414625   409A      4.420426  
	 410A      4.420510   411A      4.451146   412A      4.452808  
	 413A      4.460756   414A      4.483006   415A      4.555277  
	 416A      4.580056   417A      4.590486   418A      4.615078  
	 419A      4.624128   420A      4.653879   421A      4.695689  
	 422A      4.703368   423A      4.723969   424A      4.730643  
	 425A      4.757073   426A      4.768330   427A      4.770947  
	 428A      4.806351   429A      4.830093   430A      4.851416  
	 431A      4.856491   432A      4.889449   433A      4.918905  
	 434A      4.930342   435A      4.944890   436A      4.947751  
	 437A      4.978325   438A      5.022734   439A      5.044795  
	 440A      5.046431   441A      5.066197   442A      5.085038  
	 443A      5.096478   444A      5.106825   445A      5.140271  
	 446A      5.151313   447A      5.153850   448A      5.170509  
	 449A      5.170761   450A      5.248761   451A      5.264715  
	 452A      5.280559   453A      5.304467   454A      5.323442  
	 455A      5.329364   456A      5.329895   457A      5.350604  
	 458A      5.352599   459A      5.434637   460A      5.458363  
	 461A      5.525187   462A      5.613398   463A      5.613849  
	 464A      5.637197   465A      5.647491   466A      5.648294  
	 467A      5.667976   468A      5.742974   469A      5.771459  
	 470A      5.790256   471A      5.872492   472A      5.872912  
	 473A      5.899834   474A      5.961544   475A      6.072100  
	 476A      6.151046   477A      6.184714   478A      6.222440  
	 479A      6.241465   480A      6.260534   481A      6.332377  
	 482A      6.341768   483A      6.461773   484A      6.572193  
	 485A      6.630882   486A      6.639575   487A      6.713898  
	 488A      6.840008   489A      7.010109   490A      7.054682  
	 491A      7.093419   492A      7.388312   493A      7.449123  
	 494A      7.767529   495A      7.910076   496A      8.097606  
	 497A      8.239627   498A      8.304451   499A      8.785707  
	 500A      8.867883   501A      8.970432   502A      9.031509  
	 503A      9.265754   504A      9.266685   505A      9.454819  
	 506A      9.466276   507A      9.504019   508A      9.591779  
	 509A      9.608502   510A      9.703697   511A      9.760490  
	 512A      9.881000   513A     10.004221   514A     10.006705  
	 515A     10.149453   516A     10.408199   517A     11.274282  
	 518A     11.686044   519A     12.155381   520A     13.576818  
	 521A     13.811813   522A     16.062990   523A     16.096736  
	 524A     16.307091   525A     17.795729   526A     19.427972  
	 527A     19.592217   528A     19.622743   529A     64.974596  

	Final Occupation by Irrep:
	          A 
	DOCC [    25 ]

  Energy converged.

  @RHF Final Energy:  -329.67261690193573

   => Energetics <=

    Nuclear Repulsion Energy =            269.6221248762674350
    One-Electron Energy =                -983.9422150435051435
    Two-Electron Energy =                 384.6474732653018691
    DFT Exchange-Correlation Energy =       0.0000000000000000
    Empirical Dispersion Energy =           0.0000000000000000
    Total Energy =                       -329.6726169019358395



Properties will be evaluated at   0.000000,   0.000000,   0.000000 Bohr
  ==> Properties <==


Properties computed using the SCF density density matrix
  Nuclear Dipole Moment: (a.u.)
     X:   -81.1679      Y:    -0.5614      Z:    -0.0153

  Electronic Dipole Moment: (a.u.)
     X:    80.4674      Y:     0.5692      Z:     0.0154

  Dipole Moment: (a.u.)
     X:    -0.7005      Y:     0.0079      Z:     0.0001     Total:     0.7005

  Dipole Moment: (Debye)
     X:    -1.7804      Y:     0.0200      Z:     0.0002     Total:     1.7806


  Saving occupied orbitals to File 180.

  Saving SAPT 2-MONOMER_A file.

*** tstop() called on node36.bme.utexas.edu at Thu Jul 10 11:44:40 2014
Module time:
	user time   =     233.50 seconds =       3.89 minutes
	system time =       1.79 seconds =       0.03 minutes
	total time  =         62 seconds =       1.03 minutes
Total time:
	user time   =     545.60 seconds =       9.09 minutes
	system time =       4.68 seconds =       0.08 minutes
	total time  =        148 seconds =       2.47 minutes

  //>>>>>>>>>>>>>>>>>>>>>>>>>>>>>>>>>>>//
  //            Monomer B HF           //
  //<<<<<<<<<<<<<<<<<<<<<<<<<<<<<<<<<<<//


  No DF_BASIS_SCF auxiliary basis selected, defaulting to aug-cc-pvtz-jkfit


*** tstart() called on node36.bme.utexas.edu
*** at Thu Jul 10 11:44:40 2014


         ---------------------------------------------------------
                                   SCF
            by Justin Turney, Rob Parrish, and Andy Simmonett
                              RHF Reference
                        4 Threads,  20000 MiB Core
         ---------------------------------------------------------

  ==> Geometry <==

    Molecular point group: c1
    Full point group: C1

    Geometry (in Angstrom), charge = 0, multiplicity = 1:

       Center              X                  Y                   Z       
    ------------   -----------------  -----------------  -----------------
           F(Gh)      1.417515255750    -0.031340862308    -0.000361631549
           C(Gh)      0.067384255750    -0.016274862308    -0.000239631549
           C(Gh)     -0.585048744250     1.205886137692    -0.000294631549
           C(Gh)     -0.612138744250    -1.223575862308    -0.000071631549
           C(Gh)     -1.978248744250     1.212743137692    -0.000175631549
           C(Gh)     -2.005142744250    -1.199355862308     0.000045368451
           C(Gh)     -2.689467744250     0.014475137692    -0.000006631549
           H(Gh)     -0.009747744250     2.120035137692    -0.000420631549
           H(Gh)     -0.057326744250    -2.150292862308    -0.000035631549
           H(Gh)     -2.504537744250     2.156893137692    -0.000213631549
           H(Gh)     -2.552362744250    -2.131530862308     0.000178368451
           H(Gh)     -3.769871744250     0.026522137692     0.000086368451
           O          4.268298555750     0.037860137692     0.001145868451
           H          3.665467555750     0.019532137692     0.747172868451
           H          3.670918555750     0.021434137692    -0.749292131549

  Running in c1 symmetry.

  Nuclear repulsion =    9.179493187277552

  Charge       = 0
  Multiplicity = 1
  Electrons    = 10
  Nalpha       = 5
  Nbeta        = 5

  ==> Algorithm <==

  SCF Algorithm Type is DF.
  DIIS enabled.
  MOM disabled.
  Fractional occupation disabled.
  Guess Type is CORE.
  Energy threshold   = 1.00e-08
  Density threshold  = 1.00e-08
  Integral threshold = 0.00e+00

  ==> Primary Basis <==

  Basis Set: AUG-CC-PVTZ
    Number of shells: 175
    Number of basis function: 529
    Number of Cartesian functions: 615
    Spherical Harmonics?: true
    Max angular momentum: 3

  ==> Pre-Iterations <==

   -------------------------------------------------------
    Irrep   Nso     Nmo     Nalpha   Nbeta   Ndocc  Nsocc
   -------------------------------------------------------
     A        529     529       0       0       0       0
   -------------------------------------------------------
    Total     529     529       5       5       5       0
   -------------------------------------------------------

 OEINTS: Wrapper to libmints.
   by Justin Turney

   Calculation information:
      Number of atoms:                  15
      Number of AO shells:             175
      Number of SO shells:             175
      Number of primitives:            317
      Number of atomic orbitals:       615
      Number of basis functions:       529

      Number of irreps:                  1
      Number of functions per irrep: [ 529 ]

      Overlap, kinetic, potential, dipole, and quadrupole integrals
        stored in file 35.

  ==> Integral Setup <==

  ==> DFJK: Density-Fitted J/K Matrices <==

    J tasked:                  Yes
    K tasked:                  Yes
    wK tasked:                  No
    OpenMP threads:              4
    Integrals threads:           4
    Memory (MB):             14305
    Algorithm:                Core
    Integral Cache:           LOAD
    Schwarz Cutoff:          0E+00
    Fitting Condition:       1E-12

   => Auxiliary Basis Set <=

  Basis Set: aug-cc-pvtz-jkfit
    Number of shells: 338
    Number of basis function: 1154
    Number of Cartesian functions: 1433
    Spherical Harmonics?: true
    Max angular momentum: 4

  Minimum eigenvalue in the overlap matrix is 8.7847909218E-07.
  Using Symmetric Orthogonalization.
  SCF Guess: Core (One-Electron) Hamiltonian.

  Guess energy:   -60.18041497676956

  ==> Iterations <==

                        Total Energy        Delta E     RMS |[F,P]|

   @RHF iter   1:   -61.31138449491224   -6.13114e+01   1.51952e-02 
   @RHF iter   2:   -61.29978669907890    1.15978e-02   5.43499e-03 DIIS
   @RHF iter   3:   -72.58075503255570   -1.12810e+01   6.53017e-03 DIIS
   @RHF iter   4:   -75.15145243507014   -2.57070e+00   3.00670e-03 DIIS
   @RHF iter   5:   -76.03728956106445   -8.85837e-01   3.63024e-04 DIIS
   @RHF iter   6:   -76.05952435725956   -2.22348e-02   9.33656e-05 DIIS
   @RHF iter   7:   -76.06026015396208   -7.35797e-04   1.31111e-05 DIIS
   @RHF iter   8:   -76.06027748052654   -1.73266e-05   2.04950e-06 DIIS
   @RHF iter   9:   -76.06027800085181   -5.20325e-07   3.15904e-07 DIIS
   @RHF iter  10:   -76.06027801893605   -1.80842e-08   3.39526e-08 DIIS
   @RHF iter  11:   -76.06027801920085   -2.64805e-10   1.41753e-08 DIIS
   @RHF iter  12:   -76.06027801922495   -2.41016e-11   7.68286e-10 DIIS

  ==> Post-Iterations <==

	Orbital Energies (a.u.)
	-----------------------

	Doubly Occupied:                                                      

	   1A    -20.568384     2A     -1.353950     3A     -0.712744  
	   4A     -0.588451     5A     -0.510753  

	Virtual:                                                              

	   6A      0.013030     7A      0.028869     8A      0.029218  
	   9A      0.044776    10A      0.047322    11A      0.048657  
	  12A      0.062444    13A      0.074290    14A      0.075665  
	  15A      0.086444    16A      0.090737    17A      0.094485  
	  18A      0.098145    19A      0.107272    20A      0.117830  
	  21A      0.118868    22A      0.121966    23A      0.127972  
	  24A      0.131640    25A      0.133367    26A      0.133782  
	  27A      0.146622    28A      0.153614    29A      0.154580  
	  30A      0.160011    31A      0.181798    32A      0.191430  
	  33A      0.193727    34A      0.195955    35A      0.197335  
	  36A      0.210460    37A      0.223942    38A      0.227096  
	  39A      0.230235    40A      0.235576    41A      0.242033  
	  42A      0.256622    43A      0.266224    44A      0.266521  
	  45A      0.275131    46A      0.275151    47A      0.281052  
	  48A      0.286397    49A      0.292592    50A      0.299305  
	  51A      0.305866    52A      0.317923    53A      0.324619  
	  54A      0.334587    55A      0.335991    56A      0.341019  
	  57A      0.345899    58A      0.347082    59A      0.350653  
	  60A      0.355306    61A      0.358516    62A      0.367889  
	  63A      0.377356    64A      0.382222    65A      0.388111  
	  66A      0.396978    67A      0.400584    68A      0.410579  
	  69A      0.418298    70A      0.426136    71A      0.428132  
	  72A      0.441536    73A      0.450468    74A      0.457842  
	  75A      0.461599    76A      0.465587    77A      0.466331  
	  78A      0.476780    79A      0.496317    80A      0.508859  
	  81A      0.514622    82A      0.518780    83A      0.520405  
	  84A      0.528443    85A      0.543280    86A      0.545883  
	  87A      0.555330    88A      0.569651    89A      0.573863  
	  90A      0.592597    91A      0.596668    92A      0.596768  
	  93A      0.599888    94A      0.607414    95A      0.619749  
	  96A      0.631192    97A      0.632016    98A      0.650555  
	  99A      0.650913   100A      0.664074   101A      0.665334  
	 102A      0.675898   103A      0.677365   104A      0.682407  
	 105A      0.690216   106A      0.695603   107A      0.701035  
	 108A      0.707432   109A      0.718179   110A      0.729556  
	 111A      0.734975   112A      0.742316   113A      0.747421  
	 114A      0.749333   115A      0.755045   116A      0.759085  
	 117A      0.760414   118A      0.761985   119A      0.777541  
	 120A      0.798358   121A      0.815961   122A      0.831445  
	 123A      0.855467   124A      0.875468   125A      0.878715  
	 126A      0.880598   127A      0.901421   128A      0.902679  
	 129A      0.907867   130A      0.920749   131A      0.924552  
	 132A      0.930445   133A      0.938674   134A      0.949610  
	 135A      0.971101   136A      0.973495   137A      0.986810  
	 138A      0.992762   139A      0.994922   140A      1.007227  
	 141A      1.009114   142A      1.029926   143A      1.032512  
	 144A      1.044390   145A      1.060243   146A      1.061852  
	 147A      1.068742   148A      1.078458   149A      1.083801  
	 150A      1.084753   151A      1.087440   152A      1.088213  
	 153A      1.099636   154A      1.104905   155A      1.114655  
	 156A      1.131956   157A      1.136558   158A      1.138773  
	 159A      1.139702   160A      1.155162   161A      1.168267  
	 162A      1.170349   163A      1.192351   164A      1.196471  
	 165A      1.202275   166A      1.213878   167A      1.220527  
	 168A      1.223691   169A      1.232940   170A      1.250501  
	 171A      1.254263   172A      1.255610   173A      1.261633  
	 174A      1.268153   175A      1.283321   176A      1.286967  
	 177A      1.290137   178A      1.296323   179A      1.299008  
	 180A      1.302432   181A      1.303220   182A      1.306955  
	 183A      1.312717   184A      1.323613   185A      1.332474  
	 186A      1.340194   187A      1.352899   188A      1.362669  
	 189A      1.379930   190A      1.391826   191A      1.413451  
	 192A      1.429385   193A      1.435629   194A      1.456077  
	 195A      1.457161   196A      1.473502   197A      1.476562  
	 198A      1.486028   199A      1.494613   200A      1.506546  
	 201A      1.515169   202A      1.521672   203A      1.534565  
	 204A      1.534726   205A      1.542586   206A      1.545451  
	 207A      1.553398   208A      1.560610   209A      1.581739  
	 210A      1.611018   211A      1.625376   212A      1.628523  
	 213A      1.636792   214A      1.642739   215A      1.646660  
	 216A      1.658753   217A      1.666501   218A      1.673704  
	 219A      1.680337   220A      1.690939   221A      1.747223  
	 222A      1.753824   223A      1.788259   224A      1.813731  
	 225A      1.840448   226A      1.841180   227A      1.850573  
	 228A      1.871971   229A      1.876814   230A      1.878663  
	 231A      1.896906   232A      1.917879   233A      1.923924  
	 234A      1.945743   235A      1.973836   236A      1.988302  
	 237A      1.990052   238A      1.998779   239A      2.029712  
	 240A      2.055451   241A      2.102695   242A      2.141817  
	 243A      2.144052   244A      2.155263   245A      2.161924  
	 246A      2.163961   247A      2.174930   248A      2.182724  
	 249A      2.205980   250A      2.208529   251A      2.211747  
	 252A      2.230793   253A      2.235700   254A      2.242897  
	 255A      2.271152   256A      2.273728   257A      2.291750  
	 258A      2.301644   259A      2.317198   260A      2.328565  
	 261A      2.333692   262A      2.334766   263A      2.339290  
	 264A      2.340372   265A      2.347156   266A      2.351864  
	 267A      2.360261   268A      2.391335   269A      2.396795  
	 270A      2.416968   271A      2.441723   272A      2.445483  
	 273A      2.472840   274A      2.485483   275A      2.501828  
	 276A      2.514451   277A      2.515723   278A      2.530132  
	 279A      2.541298   280A      2.543786   281A      2.556598  
	 282A      2.556730   283A      2.597716   284A      2.602749  
	 285A      2.642692   286A      2.645434   287A      2.653762  
	 288A      2.696935   289A      2.739839   290A      2.745145  
	 291A      2.748049   292A      2.774661   293A      2.785179  
	 294A      2.821699   295A      2.825317   296A      2.862423  
	 297A      2.884178   298A      2.891473   299A      2.901542  
	 300A      2.911967   301A      2.921756   302A      2.926059  
	 303A      2.950031   304A      3.084781   305A      3.104757  
	 306A      3.148643   307A      3.182412   308A      3.258570  
	 309A      3.280358   310A      3.347101   311A      3.376057  
	 312A      3.396089   313A      3.469721   314A      3.531338  
	 315A      3.650655   316A      3.656030   317A      3.672452  
	 318A      3.673877   319A      3.717349   320A      3.722344  
	 321A      3.776454   322A      3.790230   323A      3.791870  
	 324A      3.791976   325A      3.803907   326A      3.892245  
	 327A      3.899025   328A      3.937339   329A      3.979782  
	 330A      3.998886   331A      4.017627   332A      4.021755  
	 333A      4.036896   334A      4.049980   335A      4.054148  
	 336A      4.063726   337A      4.064202   338A      4.073605  
	 339A      4.082932   340A      4.097761   341A      4.113725  
	 342A      4.130226   343A      4.150032   344A      4.164657  
	 345A      4.186020   346A      4.196816   347A      4.219302  
	 348A      4.219793   349A      4.226975   350A      4.241339  
	 351A      4.261153   352A      4.273828   353A      4.275787  
	 354A      4.283989   355A      4.295261   356A      4.307147  
	 357A      4.317824   358A      4.332726   359A      4.335018  
	 360A      4.379630   361A      4.386876   362A      4.400713  
	 363A      4.406729   364A      4.443780   365A      4.445796  
	 366A      4.471678   367A      4.490158   368A      4.522018  
	 369A      4.525371   370A      4.525908   371A      4.530571  
	 372A      4.531748   373A      4.553658   374A      4.555271  
	 375A      4.578576   376A      4.579929   377A      4.593306  
	 378A      4.609987   379A      4.626462   380A      4.670324  
	 381A      4.680634   382A      4.711113   383A      4.725260  
	 384A      4.772259   385A      4.794942   386A      4.821256  
	 387A      4.825378   388A      4.882594   389A      4.885811  
	 390A      4.913328   391A      4.948879   392A      4.963411  
	 393A      4.967813   394A      5.026351   395A      5.033604  
	 396A      5.072783   397A      5.076965   398A      5.082873  
	 399A      5.094256   400A      5.120058   401A      5.152518  
	 402A      5.171096   403A      5.176229   404A      5.178364  
	 405A      5.195668   406A      5.196415   407A      5.209397  
	 408A      5.233229   409A      5.247751   410A      5.262321  
	 411A      5.288644   412A      5.313961   413A      5.407637  
	 414A      5.407900   415A      5.431934   416A      5.432848  
	 417A      5.449775   418A      5.464695   419A      5.476961  
	 420A      5.499202   421A      5.512675   422A      5.528462  
	 423A      5.545285   424A      5.566776   425A      5.634576  
	 426A      5.636711   427A      5.641309   428A      5.664996  
	 429A      5.694579   430A      5.716748   431A      5.716995  
	 432A      5.737027   433A      5.748210   434A      5.773759  
	 435A      5.781565   436A      5.795911   437A      5.806929  
	 438A      5.842424   439A      5.934252   440A      5.954527  
	 441A      5.961858   442A      6.002261   443A      6.063109  
	 444A      6.070246   445A      6.134917   446A      6.174107  
	 447A      6.185331   448A      6.192051   449A      6.281330  
	 450A      6.287990   451A      6.310168   452A      6.368900  
	 453A      6.384533   454A      6.489395   455A      6.528165  
	 456A      6.625186   457A      6.666948   458A      6.688912  
	 459A      6.781797   460A      6.813485   461A      6.870781  
	 462A      6.971118   463A      7.029295   464A      7.056874  
	 465A      7.086184   466A      7.100972   467A      7.101066  
	 468A      7.129451   469A      7.131134   470A      7.174006  
	 471A      7.250777   472A      7.289420   473A      7.328340  
	 474A      7.364580   475A      7.369085   476A      7.416457  
	 477A      7.438847   478A      7.517471   479A      7.521906  
	 480A      7.597847   481A      7.626345   482A      7.630473  
	 483A      7.731794   484A      7.896139   485A      7.945051  
	 486A      7.985013   487A      8.027584   488A      8.139152  
	 489A      8.176280   490A      8.235961   491A      8.305298  
	 492A      8.374522   493A      8.829104   494A      8.842949  
	 495A      8.943315   496A      9.265136   497A      9.356636  
	 498A      9.368702   499A     10.031223   500A     10.060296  
	 501A     10.284875   502A     10.352316   503A     10.587458  
	 504A     10.629141   505A     10.856147   506A     10.879024  
	 507A     10.965688   508A     10.984472   509A     11.075403  
	 510A     11.221159   511A     11.272160   512A     11.365088  
	 513A     12.724265   514A     13.077295   515A     13.218245  
	 516A     13.359106   517A     13.519894   518A     14.270150  
	 519A     14.622633   520A     15.098826   521A     15.944210  
	 522A     16.536147   523A     49.675997   524A     49.927665  
	 525A     51.054488   526A     55.036946   527A     55.857098  
	 528A     56.694900   529A     77.928751  

	Final Occupation by Irrep:
	          A 
	DOCC [     5 ]

  Energy converged.

  @RHF Final Energy:   -76.06027801922495

   => Energetics <=

    Nuclear Repulsion Energy =              9.1794931872775525
    One-Electron Energy =                -123.0109780353045323
    Two-Electron Energy =                  37.7712068288021072
    DFT Exchange-Correlation Energy =       0.0000000000000000
    Empirical Dispersion Energy =           0.0000000000000000
    Total Energy =                        -76.0602780192248673



Properties will be evaluated at   0.000000,   0.000000,   0.000000 Bohr
  ==> Properties <==


Properties computed using the SCF density density matrix
  Nuclear Dipole Moment: (a.u.)
     X:    78.3911      Y:     0.6498      Z:     0.0133

  Electronic Dipole Moment: (a.u.)
     X:   -79.1840      Y:    -0.6727      Z:    -0.0162

  Dipole Moment: (a.u.)
     X:    -0.7930      Y:    -0.0229      Z:    -0.0029     Total:     0.7933

  Dipole Moment: (Debye)
     X:    -2.0155      Y:    -0.0583      Z:    -0.0074     Total:     2.0164


  Saving occupied orbitals to File 180.

  Saving SAPT 2-MONOMER_B file.

*** tstop() called on node36.bme.utexas.edu at Thu Jul 10 11:45:17 2014
Module time:
	user time   =     134.92 seconds =       2.25 minutes
	system time =       1.49 seconds =       0.02 minutes
	total time  =         37 seconds =       0.62 minutes
Total time:
	user time   =     680.55 seconds =      11.34 minutes
	system time =       6.17 seconds =       0.10 minutes
	total time  =        185 seconds =       3.08 minutes
  No DF_BASIS_SAPT auxiliary basis selected, defaulting to aug-cc-pvtz-ri

  //>>>>>>>>>>>>>>>>>>>>>>>>>>>>>>>>>>>//
  //               SAPT2+              //
  //<<<<<<<<<<<<<<<<<<<<<<<<<<<<<<<<<<<//


*** tstart() called on node36.bme.utexas.edu
*** at Thu Jul 10 11:45:17 2014

        SAPT2+  
    Ed Hohenstein
     6 June 2009

      Orbital Information
  --------------------------
    NSO        =       529
    NMO        =       529
    NRI        =      1170
    NOCC A     =        25
    NOCC B     =         5
    FOCC A     =         7
    FOCC B     =         1
    NVIR A     =       504
    NVIR B     =       524

    Estimated memory usage: 6688.7 MB

    Elst10,r            =    -0.004484188314 H
    Exch10 (S^2)        =     0.004179411088 H
    Exch10              =     0.004187722282 H
    Ind20,r (A<-B)      =    -0.000580759132 H
    Ind20,r (B<-A)      =    -0.001097211043 H
    Ind20,r             =    -0.001677970175 H
    Exch-Ind20,r (A<-B) =     0.000215589741 H
    Exch-Ind20,r (B<-A) =     0.001029245753 H
    Exch-Ind20,r        =     0.001244835494 H
    Disp20              =    -0.002657142022 H
    Exch-Disp20         =     0.000331313069 H
    Elst12,r            =     0.000283227020 H
    Exch11              =    -0.000021874539 H
    Exch12              =     0.001028484977 H
    Ind22               =    -0.000445297362 H
    Disp21              =     0.000121909915 H
    Disp22 (SDQ)        =    -0.000106287241 H

    (i =   1 of   4)       4549 seconds
    (i =   2 of   4)       9014 seconds
    (i =   3 of   4)      13625 seconds
    (i =   4 of   4)      18442 seconds

    Disp220 (T)         =    -0.000269978508 H

    (i =   1 of  18)       1059 seconds
    (i =   2 of  18)       2112 seconds
    (i =   3 of  18)       3154 seconds
    (i =   4 of  18)       4198 seconds
    (i =   5 of  18)       5243 seconds
    (i =   6 of  18)       6285 seconds
    (i =   7 of  18)       7349 seconds
    (i =   8 of  18)       8403 seconds
    (i =   9 of  18)       9467 seconds
    (i =  10 of  18)      10476 seconds
    (i =  11 of  18)      11517 seconds
    (i =  12 of  18)      12557 seconds
    (i =  13 of  18)      13610 seconds
    (i =  14 of  18)      14665 seconds
    (i =  15 of  18)      15313 seconds
    (i =  16 of  18)      15769 seconds
    (i =  17 of  18)      16224 seconds
    (i =  18 of  18)      16597 seconds

    Disp202 (T)         =    -0.000253921495 H

    Disp22 (T)          =    -0.000523900004 H

    SAPT Results  
  -----------------------------------------------------------------------
    Electrostatics          -4.20096129 mH      -2.63614312 kcal mol^-1
      Elst10,r              -4.48418831 mH      -2.81387077 kcal mol^-1
      Elst12,r               0.28322702 mH       0.17772765 kcal mol^-1

    Exchange                 5.19433272 mH       3.25949313 kcal mol^-1
      Exch10                 4.18772228 mH       2.62783552 kcal mol^-1
      Exch10(S^2)            4.17941109 mH       2.62262016 kcal mol^-1
      Exch11(S^2)           -0.02187454 mH      -0.01372648 kcal mol^-1
      Exch12(S^2)            1.02848498 mH       0.64538409 kcal mol^-1

    Induction               -0.87967885 mH      -0.55200684 kcal mol^-1
      Ind20,r               -1.67797018 mH      -1.05294223 kcal mol^-1
      Ind22                 -0.44529736 mH      -0.27942832 kcal mol^-1
      Exch-Ind20,r           1.24483549 mH       0.78114610 kcal mol^-1
      Exch-Ind22             0.33035269 mH       0.20729945 kcal mol^-1
      delta HF,r (2)        -0.33159950 mH      -0.20808184 kcal mol^-1

    Dispersion              -2.83410628 mH      -1.77842862 kcal mol^-1
      Disp20                -2.65714202 mH      -1.66738186 kcal mol^-1
      Disp21                 0.12190991 mH       0.07649963 kcal mol^-1
      Disp22 (SDQ)          -0.10628724 mH      -0.06669625 kcal mol^-1
      Disp22 (T)            -0.52390000 mH      -0.32875223 kcal mol^-1
      Exch-Disp20            0.33131307 mH       0.20790210 kcal mol^-1

    Total HF                -1.06120022 mH      -0.66591322 kcal mol^-1
    Total SAPT0             -3.38702917 mH      -2.12539298 kcal mol^-1
    Total SAPT2             -2.21213638 mH      -1.38813659 kcal mol^-1
    Total SAPT2+            -2.72041371 mH      -1.70708545 kcal mol^-1

*** tstop() called on node36.bme.utexas.edu at Fri Jul 11 03:39:19 2014
Module time:
	user time   =  206180.84 seconds =    3436.35 minutes
	system time =     330.16 seconds =       5.50 minutes
	total time  =      57242 seconds =     954.03 minutes
Total time:
	user time   =  206861.40 seconds =    3447.69 minutes
	system time =     336.34 seconds =       5.61 minutes
	total time  =      57427 seconds =     957.12 minutes

*** PSI4 exiting successfully. Buy a developer a beer!
