    -----------------------------------------------------------------------
          PSI4: An Open-Source Ab Initio Electronic Structure Package
                              PSI 4.0.0-beta4 Driver

    J. M. Turney, A. C. Simmonett, R. M. Parrish, E. G. Hohenstein,
    F. A. Evangelista, J. T. Fermann, B. J. Mintz, L. A. Burns, J. J. Wilke,
    M. L. Abrams, N. J. Russ, M. L. Leininger, C. L. Janssen, E. T. Seidl,
    W. D. Allen, H. F. Schaefer, R. A. King, E. F. Valeev, C. D. Sherrill,
    and T. D. Crawford, WIREs Comput. Mol. Sci., (2011) (doi: 10.1002/wcms.93)

                         Additional Contributions by
    A. E. DePrince, M. Saitow, U. Bozkaya, A. Yu. Sokolov
    -----------------------------------------------------------------------

    Process ID:  34953
    PSI4DATADIR: /home/xzhu216/psi4/psi4-install/share/psi

    Using LocalCommunicator (Number of processes = 1)

    Memory level set to 256.000 MB

  ==> Input File <==

--------------------------------------------------------------------------
#psi4
#
memory 20 gb

molecule CH2Cl2_CH2Cl2 {
0 1
   Cl     0.345459000     1.418918000     1.445487000
   Cl    -0.362081000    -1.434279000     1.443480000
    C    -0.013034000    -0.007166000     2.429451000
    H    -0.885412000     0.208441000     3.032032000
    H     0.853362000    -0.222187000     3.040792000
--
0 1
   Cl    -0.359793875    -1.412969109    -3.285486844
   Cl     0.343087125     1.442399891    -3.283101844
    C     0.016454125     0.007955891    -2.302203844
    H     0.897420125    -0.210462109    -1.713959844
    H    -0.833287875     0.217641891    -1.666933844
units angstrom
no_reorient  #important for SAPT in psi4, default
symmetry c1  #important for SAPT in psi4, default
}

set {
basis aug-cc-pVTZ
scf_type DF
freeze_core True
}
energy('sapt2+')
--------------------------------------------------------------------------

  Memory set to  20.000 GiB by Python script.

  //>>>>>>>>>>>>>>>>>>>>>>>>>>>>>>>>>>>//
  //              Dimer HF             //
  //<<<<<<<<<<<<<<<<<<<<<<<<<<<<<<<<<<<//


  No DF_BASIS_SCF auxiliary basis selected, defaulting to aug-cc-pvtz-jkfit


*** tstart() called on node36.bme.utexas.edu
*** at Sat Jul 12 10:21:14 2014


         ---------------------------------------------------------
                                   SCF
            by Justin Turney, Rob Parrish, and Andy Simmonett
                              RHF Reference
                        4 Threads,  20000 MiB Core
         ---------------------------------------------------------

  ==> Geometry <==

    Molecular point group: c1
    Full point group: C1

    Geometry (in Angstrom), charge = 0, multiplicity = 1:

       Center              X                  Y                   Z       
    ------------   -----------------  -----------------  -----------------
          CL          0.351963167395     1.415970737055     2.186566302153
          CL         -0.355576832605    -1.437226262945     2.184559302153
           C         -0.006529832605    -0.010113262945     3.170530302153
           H         -0.878907832605     0.205493737055     3.773111302153
           H          0.859866167395    -0.225134262945     3.781871302153
          CL         -0.353289707605    -1.415916371945    -2.544407541847
          CL          0.349591292395     1.439452628055    -2.542022541847
           C          0.022958292395     0.005008628055    -1.561124541847
           H          0.903924292395    -0.213409371945    -0.972880541847
           H         -0.826783707605     0.214694628055    -0.925854541847

  Running in c1 symmetry.

  Nuclear repulsion =  456.544351697327670

  Charge       = 0
  Multiplicity = 1
  Electrons    = 84
  Nalpha       = 42
  Nbeta        = 42

  ==> Algorithm <==

  SCF Algorithm Type is DF.
  DIIS enabled.
  MOM disabled.
  Fractional occupation disabled.
  Guess Type is CORE.
  Energy threshold   = 1.00e-08
  Density threshold  = 1.00e-08
  Integral threshold = 0.00e+00

  ==> Primary Basis <==

  Basis Set: AUG-CC-PVTZ
    Number of shells: 128
    Number of basis function: 384
    Number of Cartesian functions: 446
    Spherical Harmonics?: true
    Max angular momentum: 3

  ==> Pre-Iterations <==

   -------------------------------------------------------
    Irrep   Nso     Nmo     Nalpha   Nbeta   Ndocc  Nsocc
   -------------------------------------------------------
     A        384     384       0       0       0       0
   -------------------------------------------------------
    Total     384     384      42      42      42       0
   -------------------------------------------------------

 OEINTS: Wrapper to libmints.
   by Justin Turney

   Calculation information:
      Number of atoms:                  10
      Number of AO shells:             128
      Number of SO shells:             128
      Number of primitives:            360
      Number of atomic orbitals:       446
      Number of basis functions:       384

      Number of irreps:                  1
      Number of functions per irrep: [ 384 ]

      Overlap, kinetic, potential, dipole, and quadrupole integrals
        stored in file 35.

  ==> Integral Setup <==

  ==> DFJK: Density-Fitted J/K Matrices <==

    J tasked:                  Yes
    K tasked:                  Yes
    wK tasked:                  No
    OpenMP threads:              4
    Integrals threads:           4
    Memory (MB):             14305
    Algorithm:                Core
    Integral Cache:           SAVE
    Schwarz Cutoff:          0E+00
    Fitting Condition:       1E-12

   => Auxiliary Basis Set <=

  Basis Set: aug-cc-pvtz-jkfit
    Number of shells: 284
    Number of basis function: 976
    Number of Cartesian functions: 1202
    Spherical Harmonics?: true
    Max angular momentum: 4

  Minimum eigenvalue in the overlap matrix is 5.5755909044E-05.
  Using Symmetric Orthogonalization.
  SCF Guess: Core (One-Electron) Hamiltonian.

  Guess energy: -1414.63133210784736

  ==> Iterations <==

                        Total Energy        Delta E     RMS |[F,P]|

   @RHF iter   1: -1814.37871271511403   -1.81438e+03   3.72373e-02 
   @RHF iter   2: -1852.81329454471415   -3.84346e+01   2.50284e-02 DIIS
   @RHF iter   3: -1856.05409178480977   -3.24080e+00   1.69508e-02 DIIS
   @RHF iter   4: -1799.06965719997697    5.69844e+01   2.27266e-02 DIIS
   @RHF iter   5: -1909.99264769731462   -1.10923e+02   6.08896e-03 DIIS
   @RHF iter   6: -1906.20264407091372    3.79000e+00   9.32730e-03 DIIS
   @RHF iter   7: -1915.64796109784311   -9.44532e+00   2.49179e-03 DIIS
   @RHF iter   8: -1916.02917015036610   -3.81209e-01   1.13623e-03 DIIS
   @RHF iter   9: -1916.13691150462955   -1.07741e-01   4.42595e-04 DIIS
   @RHF iter  10: -1916.15812687611788   -2.12154e-02   1.00912e-04 DIIS
   @RHF iter  11: -1916.15944231608182   -1.31544e-03   3.21165e-05 DIIS
   @RHF iter  12: -1916.15957559757362   -1.33281e-04   1.00589e-05 DIIS
   @RHF iter  13: -1916.15959607400782   -2.04764e-05   3.14484e-06 DIIS
   @RHF iter  14: -1916.15959849756428   -2.42356e-06   1.07515e-06 DIIS
   @RHF iter  15: -1916.15959871676887   -2.19205e-07   3.79711e-07 DIIS
   @RHF iter  16: -1916.15959873993961   -2.31707e-08   9.84064e-08 DIIS
   @RHF iter  17: -1916.15959874175996   -1.82035e-09   2.63566e-08 DIIS
   @RHF iter  18: -1916.15959874192686   -1.66892e-10   9.06397e-09 DIIS

  ==> Post-Iterations <==

	Orbital Energies (a.u.)
	-----------------------

	Doubly Occupied:                                                      

	   1A   -104.860905     2A   -104.860839     3A   -104.842817  
	   4A   -104.842778     5A    -11.375213     6A    -11.356000  
	   7A    -10.585342     8A    -10.585271     9A    -10.567267  
	  10A    -10.567222    11A     -8.052188    12A     -8.052118  
	  13A     -8.050234    14A     -8.050163    15A     -8.050132  
	  16A     -8.050061    17A     -8.034122    18A     -8.034078  
	  19A     -8.032174    20A     -8.032130    21A     -8.032083  
	  22A     -8.032039    23A     -1.204255    24A     -1.185951  
	  25A     -1.107759    26A     -1.089856    27A     -0.907061  
	  28A     -0.888238    29A     -0.687853    30A     -0.668136  
	  31A     -0.627382    32A     -0.609838    33A     -0.596190  
	  34A     -0.578154    35A     -0.484888    36A     -0.483248  
	  37A     -0.467173    38A     -0.463695    39A     -0.459219  
	  40A     -0.457362    41A     -0.441028    42A     -0.438706  

	Virtual:                                                              

	  43A      0.024575    44A      0.036631    45A      0.046494  
	  46A      0.057180    47A      0.061419    48A      0.074789  
	  49A      0.080308    50A      0.085230    51A      0.110885  
	  52A      0.117141    53A      0.119564    54A      0.120626  
	  55A      0.129379    56A      0.133036    57A      0.143733  
	  58A      0.145994    59A      0.148484    60A      0.150172  
	  61A      0.155314    62A      0.161786    63A      0.162111  
	  64A      0.170541    65A      0.171164    66A      0.180339  
	  67A      0.182115    68A      0.206549    69A      0.214053  
	  70A      0.220855    71A      0.222886    72A      0.248468  
	  73A      0.249784    74A      0.252235    75A      0.259718  
	  76A      0.264201    77A      0.294374    78A      0.300427  
	  79A      0.306513    80A      0.309580    81A      0.323326  
	  82A      0.326407    83A      0.335603    84A      0.336823  
	  85A      0.352024    86A      0.353648    87A      0.366057  
	  88A      0.379765    89A      0.384624    90A      0.391285  
	  91A      0.395922    92A      0.404238    93A      0.410831  
	  94A      0.411578    95A      0.416336    96A      0.422351  
	  97A      0.431009    98A      0.435782    99A      0.448661  
	 100A      0.449240   101A      0.449622   102A      0.460491  
	 103A      0.464271   104A      0.468720   105A      0.484997  
	 106A      0.495196   107A      0.495906   108A      0.498560  
	 109A      0.508985   110A      0.518642   111A      0.533334  
	 112A      0.540761   113A      0.551818   114A      0.556148  
	 115A      0.563195   116A      0.573253   117A      0.586586  
	 118A      0.598765   119A      0.628492   120A      0.630286  
	 121A      0.687060   122A      0.704591   123A      0.711733  
	 124A      0.715644   125A      0.720453   126A      0.730328  
	 127A      0.740744   128A      0.756827   129A      0.759425  
	 130A      0.788028   131A      0.794883   132A      0.795212  
	 133A      0.804954   134A      0.828767   135A      0.834292  
	 136A      0.834610   137A      0.845890   138A      0.852407  
	 139A      0.872392   140A      0.879356   141A      0.880684  
	 142A      0.889594   143A      0.894761   144A      0.899942  
	 145A      0.902981   146A      0.914190   147A      0.921178  
	 148A      0.925121   149A      0.934563   150A      0.937144  
	 151A      0.952317   152A      0.953411   153A      0.956162  
	 154A      0.958477   155A      0.971859   156A      0.975467  
	 157A      0.978281   158A      1.000164   159A      1.010756  
	 160A      1.015688   161A      1.025742   162A      1.033611  
	 163A      1.036350   164A      1.042002   165A      1.047241  
	 166A      1.050658   167A      1.069597   168A      1.083210  
	 169A      1.092143   170A      1.093322   171A      1.095279  
	 172A      1.107538   173A      1.109058   174A      1.110707  
	 175A      1.135062   176A      1.135388   177A      1.138420  
	 178A      1.145917   179A      1.147420   180A      1.184632  
	 181A      1.185736   182A      1.190972   183A      1.210905  
	 184A      1.218458   185A      1.230765   186A      1.253774  
	 187A      1.261461   188A      1.261574   189A      1.289616  
	 190A      1.294530   191A      1.297807   192A      1.346647  
	 193A      1.379460   194A      1.384898   195A      1.390459  
	 196A      1.398907   197A      1.410689   198A      1.426089  
	 199A      1.459928   200A      1.485809   201A      1.494464  
	 202A      1.496167   203A      1.510077   204A      1.514755  
	 205A      1.528140   206A      1.548545   207A      1.558679  
	 208A      1.559556   209A      1.562392   210A      1.581018  
	 211A      1.589911   212A      1.616919   213A      1.627872  
	 214A      1.664929   215A      1.684958   216A      1.710168  
	 217A      1.721266   218A      1.725192   219A      1.726987  
	 220A      1.734323   221A      1.741268   222A      1.745860  
	 223A      1.757587   224A      1.775265   225A      1.777927  
	 226A      1.778797   227A      1.806652   228A      1.821755  
	 229A      1.839819   230A      1.858367   231A      1.860033  
	 232A      1.906450   233A      1.915412   234A      1.922070  
	 235A      1.932222   236A      1.934601   237A      1.957228  
	 238A      1.966663   239A      1.969702   240A      1.982362  
	 241A      1.987830   242A      1.996930   243A      2.039489  
	 244A      2.097799   245A      2.111322   246A      2.130154  
	 247A      2.163480   248A      2.191253   249A      2.224407  
	 250A      2.263955   251A      2.468339   252A      2.490038  
	 253A      2.602291   254A      2.604259   255A      2.611490  
	 256A      2.625071   257A      2.627952   258A      2.638429  
	 259A      2.648164   260A      2.654322   261A      2.674376  
	 262A      2.688203   263A      2.693128   264A      2.694379  
	 265A      2.698383   266A      2.703414   267A      2.721347  
	 268A      2.722964   269A      2.736752   270A      2.755684  
	 271A      2.783446   272A      2.798775   273A      2.874060  
	 274A      2.903122   275A      2.929076   276A      2.949538  
	 277A      2.961079   278A      2.966616   279A      3.001720  
	 280A      3.006558   281A      3.029012   282A      3.060575  
	 283A      3.063183   284A      3.067230   285A      3.075475  
	 286A      3.079546   287A      3.088812   288A      3.107751  
	 289A      3.115008   290A      3.116759   291A      3.117606  
	 292A      3.132928   293A      3.152584   294A      3.173271  
	 295A      3.182767   296A      3.183858   297A      3.184221  
	 298A      3.185817   299A      3.197427   300A      3.202210  
	 301A      3.204448   302A      3.206111   303A      3.221919  
	 304A      3.235417   305A      3.251794   306A      3.253852  
	 307A      3.284314   308A      3.301466   309A      3.315482  
	 310A      3.325136   311A      3.342611   312A      3.368074  
	 313A      3.425011   314A      3.437148   315A      3.444656  
	 316A      3.462291   317A      3.586397   318A      3.595885  
	 319A      3.596085   320A      3.632899   321A      3.635238  
	 322A      3.640710   323A      3.646681   324A      3.723638  
	 325A      3.729945   326A      3.755965   327A      3.764422  
	 328A      3.825188   329A      3.913023   330A      3.917134  
	 331A      3.946120   332A      3.960110   333A      3.972086  
	 334A      4.004209   335A      4.046015   336A      4.090184  
	 337A      4.110512   338A      4.142085   339A      4.188066  
	 340A      4.191203   341A      4.218359   342A      4.237752  
	 343A      4.246413   344A      4.270372   345A      4.349498  
	 346A      4.384480   347A      4.401910   348A      4.402215  
	 349A      4.530697   350A      4.598342   351A      4.720087  
	 352A      4.727104   353A      4.743255   354A      4.759185  
	 355A      4.837934   356A      4.886972   357A      4.922499  
	 358A      4.942502   359A      4.950199   360A      4.968785  
	 361A      5.006679   362A      5.008382   363A      5.177287  
	 364A      5.214086   365A      5.297715   366A      5.313757  
	 367A      5.315655   368A      5.355060   369A      5.368197  
	 370A      5.377496   371A      5.745385   372A      5.789999  
	 373A      5.814234   374A      5.819124   375A      5.938555  
	 376A      5.973152   377A      6.564740   378A      6.596635  
	 379A      7.405683   380A      7.452372   381A      7.761700  
	 382A      7.894457   383A     15.777195   384A     16.059785  

	Final Occupation by Irrep:
	          A 
	DOCC [    42 ]

  Energy converged.

  @RHF Final Energy: -1916.15959874192686

   => Energetics <=

    Nuclear Repulsion Energy =            456.5443516973276701
    One-Electron Energy =               -3555.8255601133510027
    Two-Electron Energy =                1183.1216096741009096
    DFT Exchange-Correlation Energy =       0.0000000000000000
    Empirical Dispersion Energy =           0.0000000000000000
    Total Energy =                      -1916.1595987419223093



Properties will be evaluated at   0.000000,   0.000000,   0.000000 Bohr
  ==> Properties <==


Properties computed using the SCF density density matrix
  Nuclear Dipole Moment: (a.u.)
     X:     0.0612      Y:    -0.0193      Z:     5.9574

  Electronic Dipole Moment: (a.u.)
     X:    -0.0469      Y:     0.0141      Z:    -4.3747

  Dipole Moment: (a.u.)
     X:     0.0143      Y:    -0.0052      Z:     1.5827     Total:     1.5828

  Dipole Moment: (Debye)
     X:     0.0362      Y:    -0.0133      Z:     4.0228     Total:     4.0230


  Saving occupied orbitals to File 180.

  Saving SAPT 2-DIMER file.

*** tstop() called on node36.bme.utexas.edu at Sat Jul 12 10:21:53 2014
Module time:
	user time   =     143.90 seconds =       2.40 minutes
	system time =       1.54 seconds =       0.03 minutes
	total time  =         39 seconds =       0.65 minutes
Total time:
	user time   =     143.90 seconds =       2.40 minutes
	system time =       1.54 seconds =       0.03 minutes
	total time  =         39 seconds =       0.65 minutes

  //>>>>>>>>>>>>>>>>>>>>>>>>>>>>>>>>>>>//
  //            Monomer A HF           //
  //<<<<<<<<<<<<<<<<<<<<<<<<<<<<<<<<<<<//


  No DF_BASIS_SCF auxiliary basis selected, defaulting to aug-cc-pvtz-jkfit


*** tstart() called on node36.bme.utexas.edu
*** at Sat Jul 12 10:21:53 2014


         ---------------------------------------------------------
                                   SCF
            by Justin Turney, Rob Parrish, and Andy Simmonett
                              RHF Reference
                        4 Threads,  20000 MiB Core
         ---------------------------------------------------------

  ==> Geometry <==

    Molecular point group: c1
    Full point group: C1

    Geometry (in Angstrom), charge = 0, multiplicity = 1:

       Center              X                  Y                   Z       
    ------------   -----------------  -----------------  -----------------
          CL          0.351963167395     1.415970737055     2.186566302153
          CL         -0.355576832605    -1.437226262945     2.184559302153
           C         -0.006529832605    -0.010113262945     3.170530302153
           H         -0.878907832605     0.205493737055     3.773111302153
           H          0.859866167395    -0.225134262945     3.781871302153
          CL(Gh)     -0.353289707605    -1.415916371945    -2.544407541847
          CL(Gh)      0.349591292395     1.439452628055    -2.542022541847
           C(Gh)      0.022958292395     0.005008628055    -1.561124541847
           H(Gh)      0.903924292395    -0.213409371945    -0.972880541847
           H(Gh)     -0.826783707605     0.214694628055    -0.925854541847

  Running in c1 symmetry.

  Nuclear repulsion =  134.550207287877697

  Charge       = 0
  Multiplicity = 1
  Electrons    = 42
  Nalpha       = 21
  Nbeta        = 21

  ==> Algorithm <==

  SCF Algorithm Type is DF.
  DIIS enabled.
  MOM disabled.
  Fractional occupation disabled.
  Guess Type is CORE.
  Energy threshold   = 1.00e-08
  Density threshold  = 1.00e-08
  Integral threshold = 0.00e+00

  ==> Primary Basis <==

  Basis Set: AUG-CC-PVTZ
    Number of shells: 128
    Number of basis function: 384
    Number of Cartesian functions: 446
    Spherical Harmonics?: true
    Max angular momentum: 3

  ==> Pre-Iterations <==

   -------------------------------------------------------
    Irrep   Nso     Nmo     Nalpha   Nbeta   Ndocc  Nsocc
   -------------------------------------------------------
     A        384     384       0       0       0       0
   -------------------------------------------------------
    Total     384     384      21      21      21       0
   -------------------------------------------------------

 OEINTS: Wrapper to libmints.
   by Justin Turney

   Calculation information:
      Number of atoms:                  10
      Number of AO shells:             128
      Number of SO shells:             128
      Number of primitives:            360
      Number of atomic orbitals:       446
      Number of basis functions:       384

      Number of irreps:                  1
      Number of functions per irrep: [ 384 ]

      Overlap, kinetic, potential, dipole, and quadrupole integrals
        stored in file 35.

  ==> Integral Setup <==

  ==> DFJK: Density-Fitted J/K Matrices <==

    J tasked:                  Yes
    K tasked:                  Yes
    wK tasked:                  No
    OpenMP threads:              4
    Integrals threads:           4
    Memory (MB):             14305
    Algorithm:                Core
    Integral Cache:           LOAD
    Schwarz Cutoff:          0E+00
    Fitting Condition:       1E-12

   => Auxiliary Basis Set <=

  Basis Set: aug-cc-pvtz-jkfit
    Number of shells: 284
    Number of basis function: 976
    Number of Cartesian functions: 1202
    Spherical Harmonics?: true
    Max angular momentum: 4

  Minimum eigenvalue in the overlap matrix is 5.5755909045E-05.
  Using Symmetric Orthogonalization.
  SCF Guess: Core (One-Electron) Hamiltonian.

  Guess energy:  -707.58217618078322

  ==> Iterations <==

                        Total Energy        Delta E     RMS |[F,P]|

   @RHF iter   1:  -906.78432967469200   -9.06784e+02   2.68474e-02 
   @RHF iter   2:  -920.69209822578148   -1.39078e+01   1.90644e-02 DIIS
   @RHF iter   3:  -948.63731847209294   -2.79452e+01   7.38915e-03 DIIS
   @RHF iter   4:  -949.86039702639789   -1.22308e+00   1.00865e-02 DIIS
   @RHF iter   5:  -957.46692609813329   -7.60653e+00   2.63816e-03 DIIS
   @RHF iter   6:  -958.01885120748250   -5.51925e-01   7.62560e-04 DIIS
   @RHF iter   7:  -958.07758862114167   -5.87374e-02   1.04868e-04 DIIS
   @RHF iter   8:  -958.07909430458596   -1.50568e-03   2.93685e-05 DIIS
   @RHF iter   9:  -958.07926004464673   -1.65740e-04   1.13126e-05 DIIS
   @RHF iter  10:  -958.07928093768408   -2.08930e-05   3.20705e-06 DIIS
   @RHF iter  11:  -958.07928326803392   -2.33035e-06   9.45195e-07 DIIS
   @RHF iter  12:  -958.07928347764835   -2.09614e-07   2.38845e-07 DIIS
   @RHF iter  13:  -958.07928349138467   -1.37363e-08   6.26726e-08 DIIS
   @RHF iter  14:  -958.07928349200995   -6.25278e-10   1.25582e-08 DIIS
   @RHF iter  15:  -958.07928349205451   -4.45652e-11   3.62933e-09 DIIS

  ==> Post-Iterations <==

	Orbital Energies (a.u.)
	-----------------------

	Doubly Occupied:                                                      

	   1A   -104.850157     2A   -104.850151     3A    -11.365821  
	   4A    -10.574550     5A    -10.574540     6A     -8.041402  
	   7A     -8.041395     8A     -8.039434     9A     -8.039427  
	  10A     -8.039342    11A     -8.039335    12A     -1.193619  
	  13A     -1.096945    14A     -0.897029    15A     -0.678296  
	  16A     -0.617162    17A     -0.585581    18A     -0.474182  
	  19A     -0.471518    20A     -0.448005    21A     -0.446682  

	Virtual:                                                              

	  22A      0.028160    23A      0.034823    24A      0.040160  
	  25A      0.056683    26A      0.056851    27A      0.069303  
	  28A      0.074812    29A      0.090374    30A      0.106815  
	  31A      0.114638    32A      0.115976    33A      0.116709  
	  34A      0.123862    35A      0.123993    36A      0.129254  
	  37A      0.140483    38A      0.142529    39A      0.148243  
	  40A      0.154503    41A      0.163125    42A      0.164002  
	  43A      0.165615    44A      0.171731    45A      0.190497  
	  46A      0.193968    47A      0.195779    48A      0.204557  
	  49A      0.222798    50A      0.235225    51A      0.264730  
	  52A      0.265823    53A      0.266544    54A      0.274864  
	  55A      0.286999    56A      0.302569    57A      0.306963  
	  58A      0.319866    59A      0.322432    60A      0.343047  
	  61A      0.343449    62A      0.349860    63A      0.359560  
	  64A      0.363375    65A      0.363992    66A      0.375499  
	  67A      0.389652    68A      0.392417    69A      0.401108  
	  70A      0.407931    71A      0.412611    72A      0.422319  
	  73A      0.428134    74A      0.438199    75A      0.441651  
	  76A      0.446759    77A      0.447608    78A      0.459678  
	  79A      0.464056    80A      0.466224    81A      0.475556  
	  82A      0.478640    83A      0.485736    84A      0.510882  
	  85A      0.511548    86A      0.522673    87A      0.523614  
	  88A      0.541486    89A      0.546732    90A      0.556588  
	  91A      0.563420    92A      0.569802    93A      0.574082  
	  94A      0.579948    95A      0.582396    96A      0.625282  
	  97A      0.628524    98A      0.634587    99A      0.643689  
	 100A      0.662735   101A      0.665139   102A      0.671920  
	 103A      0.693554   104A      0.709308   105A      0.716400  
	 106A      0.723361   107A      0.742731   108A      0.748978  
	 109A      0.770455   110A      0.788552   111A      0.790904  
	 112A      0.795853   113A      0.806205   114A      0.828565  
	 115A      0.845657   116A      0.847996   117A      0.853097  
	 118A      0.875946   119A      0.883134   120A      0.900460  
	 121A      0.904950   122A      0.912907   123A      0.937460  
	 124A      0.941775   125A      0.963588   126A      0.963777  
	 127A      0.977378   128A      0.996196   129A      1.002298  
	 130A      1.005195   131A      1.011072   132A      1.042828  
	 133A      1.046220   134A      1.056170   135A      1.061602  
	 136A      1.081091   137A      1.084963   138A      1.089988  
	 139A      1.104736   140A      1.105442   141A      1.109652  
	 142A      1.114560   143A      1.117290   144A      1.125005  
	 145A      1.138941   146A      1.145671   147A      1.159902  
	 148A      1.181432   149A      1.194941   150A      1.207318  
	 151A      1.213642   152A      1.240464   153A      1.247230  
	 154A      1.256630   155A      1.260895   156A      1.267093  
	 157A      1.276758   158A      1.283471   159A      1.304586  
	 160A      1.331236   161A      1.335133   162A      1.337013  
	 163A      1.339085   164A      1.351085   165A      1.357381  
	 166A      1.384760   167A      1.392249   168A      1.403693  
	 169A      1.435089   170A      1.438516   171A      1.443678  
	 172A      1.452141   173A      1.458194   174A      1.478408  
	 175A      1.490185   176A      1.491909   177A      1.497625  
	 178A      1.505050   179A      1.515798   180A      1.520500  
	 181A      1.521196   182A      1.533252   183A      1.541974  
	 184A      1.550083   185A      1.562840   186A      1.567252  
	 187A      1.570364   188A      1.590361   189A      1.604883  
	 190A      1.616515   191A      1.625691   192A      1.639798  
	 193A      1.659815   194A      1.665868   195A      1.682084  
	 196A      1.694584   197A      1.701625   198A      1.710938  
	 199A      1.730678   200A      1.732245   201A      1.739011  
	 202A      1.744640   203A      1.752093   204A      1.778089  
	 205A      1.797116   206A      1.819307   207A      1.830887  
	 208A      1.899111   209A      1.904679   210A      1.933098  
	 211A      1.934605   212A      1.942882   213A      1.963458  
	 214A      1.971982   215A      1.975924   216A      2.006932  
	 217A      2.071624   218A      2.075628   219A      2.081923  
	 220A      2.105873   221A      2.106226   222A      2.112999  
	 223A      2.113189   224A      2.135548   225A      2.143593  
	 226A      2.182527   227A      2.202897   228A      2.231405  
	 229A      2.241962   230A      2.252856   231A      2.308992  
	 232A      2.371919   233A      2.478207   234A      2.499539  
	 235A      2.517448   236A      2.542712   237A      2.593357  
	 238A      2.609679   239A      2.634061   240A      2.639030  
	 241A      2.641664   242A      2.661846   243A      2.704494  
	 244A      2.706349   245A      2.711047   246A      2.723608  
	 247A      2.733434   248A      2.736706   249A      2.779113  
	 250A      2.814534   251A      2.888603   252A      2.940854  
	 253A      2.980159   254A      2.988674   255A      3.043353  
	 256A      3.063652   257A      3.099114   258A      3.105636  
	 259A      3.112990   260A      3.120966   261A      3.174443  
	 262A      3.184287   263A      3.185901   264A      3.198730  
	 265A      3.204385   266A      3.213098   267A      3.216947  
	 268A      3.250733   269A      3.267981   270A      3.296072  
	 271A      3.368563   272A      3.431303   273A      3.445886  
	 274A      3.596139   275A      3.605650   276A      3.613124  
	 277A      3.656435   278A      3.733026   279A      3.770006  
	 280A      3.861953   281A      3.887250   282A      3.909752  
	 283A      3.914251   284A      3.922275   285A      3.927417  
	 286A      3.981433   287A      3.981641   288A      3.983329  
	 289A      3.989602   290A      3.993874   291A      4.028751  
	 292A      4.030925   293A      4.036924   294A      4.055235  
	 295A      4.056595   296A      4.060360   297A      4.099438  
	 298A      4.144486   299A      4.152016   300A      4.161796  
	 301A      4.195027   302A      4.198155   303A      4.198823  
	 304A      4.204759   305A      4.206849   306A      4.227489  
	 307A      4.235365   308A      4.259296   309A      4.322871  
	 310A      4.357999   311A      4.358759   312A      4.396775  
	 313A      4.449066   314A      4.539608   315A      4.578658  
	 316A      4.579150   317A      4.581634   318A      4.630168  
	 319A      4.657576   320A      4.707293   321A      4.722542  
	 322A      4.731010   323A      4.735747   324A      4.758564  
	 325A      4.766066   326A      4.770405   327A      4.777373  
	 328A      4.795236   329A      4.799150   330A      4.820066  
	 331A      4.855652   332A      4.869308   333A      4.890348  
	 334A      4.934487   335A      4.934721   336A      4.960038  
	 337A      4.979092   338A      5.004409   339A      5.066646  
	 340A      5.137215   341A      5.186397   342A      5.197119  
	 343A      5.220051   344A      5.226530   345A      5.306934  
	 346A      5.324038   347A      5.364791   348A      5.365445  
	 349A      5.389607   350A      5.442338   351A      5.476559  
	 352A      5.518973   353A      5.684645   354A      5.756673  
	 355A      5.799122   356A      5.933713   357A      5.947623  
	 358A      5.968452   359A      6.082568   360A      6.139397  
	 361A      6.272950   362A      6.355770   363A      6.459119  
	 364A      6.575170   365A      7.102074   366A      7.432703  
	 367A      7.747004   368A      7.873970   369A      7.892144  
	 370A      8.059461   371A      8.212094   372A     10.059203  
	 373A     15.788530   374A     16.125808   375A     16.465341  
	 376A     28.100433   377A     28.105199   378A     28.121194  
	 379A     28.163843   380A     28.853110   381A     29.259741  
	 382A     49.777028   383A    161.021365   384A    161.054799  

	Final Occupation by Irrep:
	          A 
	DOCC [    21 ]

  Energy converged.

  @RHF Final Energy:  -958.07928349205451

   => Energetics <=

    Nuclear Repulsion Energy =            134.5502072878776971
    One-Electron Energy =               -1590.5298334882254494
    Two-Electron Energy =                 497.9003427082969893
    DFT Exchange-Correlation Energy =       0.0000000000000000
    Empirical Dispersion Energy =           0.0000000000000000
    Total Energy =                       -958.0792834920508767



Properties will be evaluated at   0.000000,   0.000000,   0.000000 Bohr
  ==> Properties <==


Properties computed using the SCF density density matrix
  Nuclear Dipole Moment: (a.u.)
     X:    -0.2261      Y:    -0.8346      Z:   190.6494

  Electronic Dipole Moment: (a.u.)
     X:     0.2226      Y:     0.8351      Z:  -189.9248

  Dipole Moment: (a.u.)
     X:    -0.0035      Y:     0.0004      Z:     0.7246     Total:     0.7246

  Dipole Moment: (Debye)
     X:    -0.0088      Y:     0.0011      Z:     1.8418     Total:     1.8418


  Saving occupied orbitals to File 180.

  Saving SAPT 2-MONOMER_A file.

*** tstop() called on node36.bme.utexas.edu at Sat Jul 12 10:22:20 2014
Module time:
	user time   =      79.96 seconds =       1.33 minutes
	system time =       1.28 seconds =       0.02 minutes
	total time  =         27 seconds =       0.45 minutes
Total time:
	user time   =     223.88 seconds =       3.73 minutes
	system time =       2.82 seconds =       0.05 minutes
	total time  =         66 seconds =       1.10 minutes

  //>>>>>>>>>>>>>>>>>>>>>>>>>>>>>>>>>>>//
  //            Monomer B HF           //
  //<<<<<<<<<<<<<<<<<<<<<<<<<<<<<<<<<<<//


  No DF_BASIS_SCF auxiliary basis selected, defaulting to aug-cc-pvtz-jkfit


*** tstart() called on node36.bme.utexas.edu
*** at Sat Jul 12 10:22:20 2014


         ---------------------------------------------------------
                                   SCF
            by Justin Turney, Rob Parrish, and Andy Simmonett
                              RHF Reference
                        4 Threads,  20000 MiB Core
         ---------------------------------------------------------

  ==> Geometry <==

    Molecular point group: c1
    Full point group: C1

    Geometry (in Angstrom), charge = 0, multiplicity = 1:

       Center              X                  Y                   Z       
    ------------   -----------------  -----------------  -----------------
          CL(Gh)      0.351963167395     1.415970737055     2.186566302153
          CL(Gh)     -0.355576832605    -1.437226262945     2.184559302153
           C(Gh)     -0.006529832605    -0.010113262945     3.170530302153
           H(Gh)     -0.878907832605     0.205493737055     3.773111302153
           H(Gh)      0.859866167395    -0.225134262945     3.781871302153
          CL         -0.353289707605    -1.415916371945    -2.544407541847
          CL          0.349591292395     1.439452628055    -2.542022541847
           C          0.022958292395     0.005008628055    -1.561124541847
           H          0.903924292395    -0.213409371945    -0.972880541847
           H         -0.826783707605     0.214694628055    -0.925854541847

  Running in c1 symmetry.

  Nuclear repulsion =  134.567834336509549

  Charge       = 0
  Multiplicity = 1
  Electrons    = 42
  Nalpha       = 21
  Nbeta        = 21

  ==> Algorithm <==

  SCF Algorithm Type is DF.
  DIIS enabled.
  MOM disabled.
  Fractional occupation disabled.
  Guess Type is CORE.
  Energy threshold   = 1.00e-08
  Density threshold  = 1.00e-08
  Integral threshold = 0.00e+00

  ==> Primary Basis <==

  Basis Set: AUG-CC-PVTZ
    Number of shells: 128
    Number of basis function: 384
    Number of Cartesian functions: 446
    Spherical Harmonics?: true
    Max angular momentum: 3

  ==> Pre-Iterations <==

   -------------------------------------------------------
    Irrep   Nso     Nmo     Nalpha   Nbeta   Ndocc  Nsocc
   -------------------------------------------------------
     A        384     384       0       0       0       0
   -------------------------------------------------------
    Total     384     384      21      21      21       0
   -------------------------------------------------------

 OEINTS: Wrapper to libmints.
   by Justin Turney

   Calculation information:
      Number of atoms:                  10
      Number of AO shells:             128
      Number of SO shells:             128
      Number of primitives:            360
      Number of atomic orbitals:       446
      Number of basis functions:       384

      Number of irreps:                  1
      Number of functions per irrep: [ 384 ]

      Overlap, kinetic, potential, dipole, and quadrupole integrals
        stored in file 35.

  ==> Integral Setup <==

  ==> DFJK: Density-Fitted J/K Matrices <==

    J tasked:                  Yes
    K tasked:                  Yes
    wK tasked:                  No
    OpenMP threads:              4
    Integrals threads:           4
    Memory (MB):             14305
    Algorithm:                Core
    Integral Cache:           LOAD
    Schwarz Cutoff:          0E+00
    Fitting Condition:       1E-12

   => Auxiliary Basis Set <=

  Basis Set: aug-cc-pvtz-jkfit
    Number of shells: 284
    Number of basis function: 976
    Number of Cartesian functions: 1202
    Spherical Harmonics?: true
    Max angular momentum: 4

  Minimum eigenvalue in the overlap matrix is 5.5755909044E-05.
  Using Symmetric Orthogonalization.
  SCF Guess: Core (One-Electron) Hamiltonian.

  Guess energy:  -707.56298175092752

  ==> Iterations <==

                        Total Energy        Delta E     RMS |[F,P]|

   @RHF iter   1:  -906.85704786290694   -9.06857e+02   2.67991e-02 
   @RHF iter   2:  -921.70604224436147   -1.48490e+01   1.85218e-02 DIIS
   @RHF iter   3:  -948.83361708583675   -2.71276e+01   7.44768e-03 DIIS
   @RHF iter   4:  -951.75204886235815   -2.91843e+00   9.09405e-03 DIIS
   @RHF iter   5:  -957.66529860375203   -5.91325e+00   2.11746e-03 DIIS
   @RHF iter   6:  -958.04496659355095   -3.79668e-01   5.72025e-04 DIIS
   @RHF iter   7:  -958.07769377599470   -3.27272e-02   1.19385e-04 DIIS
   @RHF iter   8:  -958.07909364823104   -1.39987e-03   2.92511e-05 DIIS
   @RHF iter   9:  -958.07923780523333   -1.44157e-04   1.00174e-05 DIIS
   @RHF iter  10:  -958.07925750984327   -1.97046e-05   2.42566e-06 DIIS
   @RHF iter  11:  -958.07925900549139   -1.49565e-06   6.42135e-07 DIIS
   @RHF iter  12:  -958.07925910475979   -9.92684e-08   1.99541e-07 DIIS
   @RHF iter  13:  -958.07925911223515   -7.47536e-09   4.93556e-08 DIIS
   @RHF iter  14:  -958.07925911258803   -3.52884e-10   9.74384e-09 DIIS

  ==> Post-Iterations <==

	Orbital Energies (a.u.)
	-----------------------

	Doubly Occupied:                                                      

	   1A   -104.850338     2A   -104.850315     3A    -11.365410  
	   4A    -10.574737     5A    -10.574709     6A     -8.041592  
	   7A     -8.041564     8A     -8.039623     9A     -8.039596  
	  10A     -8.039531    11A     -8.039504    12A     -1.193882  
	  13A     -1.097258    14A     -0.897298    15A     -0.677326  
	  16A     -0.617946    17A     -0.585936    18A     -0.474335  
	  19A     -0.471677    20A     -0.448268    21A     -0.446493  

	Virtual:                                                              

	  22A      0.018044    23A      0.035464    24A      0.043790  
	  25A      0.050592    26A      0.057770    27A      0.064768  
	  28A      0.076525    29A      0.082106    30A      0.096746  
	  31A      0.108174    32A      0.113695    33A      0.114033  
	  34A      0.118458    35A      0.125051    36A      0.126025  
	  37A      0.142946    38A      0.143013    39A      0.146254  
	  40A      0.151334    41A      0.155467    42A      0.160984  
	  43A      0.165182    44A      0.168939    45A      0.174224  
	  46A      0.189354    47A      0.194087    48A      0.198221  
	  49A      0.219510    50A      0.240307    51A      0.256415  
	  52A      0.268169    53A      0.272753    54A      0.277600  
	  55A      0.281393    56A      0.292961    57A      0.299500  
	  58A      0.312416    59A      0.321202    60A      0.326781  
	  61A      0.329431    62A      0.341158    63A      0.341915  
	  64A      0.363867    65A      0.365050    66A      0.367375  
	  67A      0.369311    68A      0.379330    69A      0.385730  
	  70A      0.400002    71A      0.415785    72A      0.416572  
	  73A      0.422897    74A      0.425021    75A      0.430579  
	  76A      0.431398    77A      0.452201    78A      0.454081  
	  79A      0.454944    80A      0.458965    81A      0.462664  
	  82A      0.485629    83A      0.487681    84A      0.500937  
	  85A      0.512200    86A      0.514166    87A      0.516575  
	  88A      0.540786    89A      0.541653    90A      0.551013  
	  91A      0.559293    92A      0.582992    93A      0.583297  
	  94A      0.588941    95A      0.597334    96A      0.614060  
	  97A      0.615391    98A      0.626533    99A      0.641311  
	 100A      0.651437   101A      0.659906   102A      0.688951  
	 103A      0.696067   104A      0.703860   105A      0.718558  
	 106A      0.730437   107A      0.732571   108A      0.745171  
	 109A      0.757871   110A      0.757951   111A      0.778723  
	 112A      0.785900   113A      0.787227   114A      0.819600  
	 115A      0.839597   116A      0.841904   117A      0.848881  
	 118A      0.859057   119A      0.878124   120A      0.896910  
	 121A      0.899633   122A      0.913982   123A      0.916505  
	 124A      0.929103   125A      0.933456   126A      0.960911  
	 127A      0.967066   128A      0.977438   129A      0.981156  
	 130A      1.011600   131A      1.014282   132A      1.034781  
	 133A      1.035297   134A      1.050088   135A      1.072584  
	 136A      1.079505   137A      1.080761   138A      1.083346  
	 139A      1.090777   140A      1.095788   141A      1.102218  
	 142A      1.111099   143A      1.123596   144A      1.127170  
	 145A      1.131915   146A      1.134531   147A      1.147437  
	 148A      1.164513   149A      1.166044   150A      1.189897  
	 151A      1.192088   152A      1.199907   153A      1.213801  
	 154A      1.214992   155A      1.233078   156A      1.256170  
	 157A      1.264358   158A      1.276995   159A      1.285147  
	 160A      1.305598   161A      1.318979   162A      1.322469  
	 163A      1.324669   164A      1.332015   165A      1.361375  
	 166A      1.373885   167A      1.376871   168A      1.387219  
	 169A      1.403590   170A      1.411797   171A      1.418858  
	 172A      1.425381   173A      1.442716   174A      1.472797  
	 175A      1.476300   176A      1.483104   177A      1.489613  
	 178A      1.497725   179A      1.503157   180A      1.511304  
	 181A      1.539986   182A      1.542969   183A      1.547817  
	 184A      1.551019   185A      1.578552   186A      1.579849  
	 187A      1.597040   188A      1.599172   189A      1.607577  
	 190A      1.628945   191A      1.632333   192A      1.637310  
	 193A      1.652626   194A      1.676813   195A      1.686814  
	 196A      1.707248   197A      1.719208   198A      1.726092  
	 199A      1.729371   200A      1.739651   201A      1.747193  
	 202A      1.753856   203A      1.775621   204A      1.780733  
	 205A      1.824935   206A      1.848121   207A      1.851383  
	 208A      1.894553   209A      1.900584   210A      1.920280  
	 211A      1.927499   212A      1.948165   213A      1.960503  
	 214A      1.968600   215A      1.980211   216A      1.986936  
	 217A      2.044286   218A      2.049978   219A      2.050697  
	 220A      2.069695   221A      2.080246   222A      2.092953  
	 223A      2.103180   224A      2.115641   225A      2.121644  
	 226A      2.174514   227A      2.204901   228A      2.205729  
	 229A      2.223118   230A      2.270977   231A      2.284191  
	 232A      2.370778   233A      2.437340   234A      2.481836  
	 235A      2.496967   236A      2.509197   237A      2.568973  
	 238A      2.572807   239A      2.604376   240A      2.611415  
	 241A      2.635527   242A      2.639893   243A      2.669586  
	 244A      2.692508   245A      2.700732   246A      2.705100  
	 247A      2.714704   248A      2.717685   249A      2.735359  
	 250A      2.761211   251A      2.891568   252A      2.942793  
	 253A      2.967728   254A      3.016186   255A      3.023835  
	 256A      3.057669   257A      3.063784   258A      3.079978  
	 259A      3.101233   260A      3.118283   261A      3.135609  
	 262A      3.148434   263A      3.180645   264A      3.186609  
	 265A      3.188344   266A      3.191197   267A      3.196912  
	 268A      3.219325   269A      3.296654   270A      3.297374  
	 271A      3.322192   272A      3.429845   273A      3.449362  
	 274A      3.610834   275A      3.612250   276A      3.626795  
	 277A      3.698902   278A      3.734603   279A      3.765644  
	 280A      3.807000   281A      3.828873   282A      3.907014  
	 283A      3.913158   284A      3.929733   285A      3.953739  
	 286A      3.959090   287A      3.965332   288A      3.968783  
	 289A      3.972408   290A      3.989941   291A      4.003234  
	 292A      4.040590   293A      4.042922   294A      4.067029  
	 295A      4.076466   296A      4.126540   297A      4.131591  
	 298A      4.145953   299A      4.147674   300A      4.174639  
	 301A      4.176626   302A      4.188787   303A      4.201384  
	 304A      4.202372   305A      4.208369   306A      4.262182  
	 307A      4.265421   308A      4.278857   309A      4.289009  
	 310A      4.345003   311A      4.382111   312A      4.389805  
	 313A      4.391694   314A      4.513813   315A      4.522284  
	 316A      4.533069   317A      4.546346   318A      4.592769  
	 319A      4.640949   320A      4.686078   321A      4.709966  
	 322A      4.732938   323A      4.752447   324A      4.754274  
	 325A      4.768519   326A      4.771094   327A      4.794107  
	 328A      4.807647   329A      4.807774   330A      4.832331  
	 331A      4.846676   332A      4.849190   333A      4.892785  
	 334A      4.927905   335A      4.934426   336A      4.982901  
	 337A      4.997309   338A      4.998782   339A      5.098945  
	 340A      5.126962   341A      5.177030   342A      5.197077  
	 343A      5.208095   344A      5.209108   345A      5.307296  
	 346A      5.349111   347A      5.357332   348A      5.366725  
	 349A      5.386057   350A      5.390089   351A      5.443442  
	 352A      5.491894   353A      5.636848   354A      5.805141  
	 355A      5.808594   356A      5.899793   357A      5.957320  
	 358A      5.963396   359A      6.059108   360A      6.116538  
	 361A      6.260985   362A      6.272369   363A      6.428392  
	 364A      6.586516   365A      7.064998   366A      7.429971  
	 367A      7.710033   368A      7.779749   369A      7.853613  
	 370A      8.013779   371A      8.193222   372A      9.995548  
	 373A     16.037740   374A     16.128577   375A     16.572699  
	 376A     28.073289   377A     28.111628   378A     28.134448  
	 379A     28.218254   380A     28.810477   381A     29.179355  
	 382A     49.186628   383A    161.003270   384A    161.045992  

	Final Occupation by Irrep:
	          A 
	DOCC [    21 ]

  Energy converged.

  @RHF Final Energy:  -958.07925911258803

   => Energetics <=

    Nuclear Repulsion Energy =            134.5678343365095486
    One-Electron Energy =               -1590.5595144289241034
    Two-Electron Energy =                 497.9124209798267202
    DFT Exchange-Correlation Energy =       0.0000000000000000
    Empirical Dispersion Energy =           0.0000000000000000
    Total Energy =                       -958.0792591125878062



Properties will be evaluated at   0.000000,   0.000000,   0.000000 Bohr
  ==> Properties <==


Properties computed using the SCF density density matrix
  Nuclear Dipole Moment: (a.u.)
     X:     0.2873      Y:     0.8153      Z:  -184.6920

  Electronic Dipole Moment: (a.u.)
     X:    -0.2689      Y:    -0.8201      Z:   185.4144

  Dipole Moment: (a.u.)
     X:     0.0184      Y:    -0.0047      Z:     0.7224     Total:     0.7227

  Dipole Moment: (Debye)
     X:     0.0467      Y:    -0.0120      Z:     1.8362     Total:     1.8368


  Saving occupied orbitals to File 180.

  Saving SAPT 2-MONOMER_B file.

*** tstop() called on node36.bme.utexas.edu at Sat Jul 12 10:22:42 2014
Module time:
	user time   =      74.84 seconds =       1.25 minutes
	system time =       0.72 seconds =       0.01 minutes
	total time  =         22 seconds =       0.37 minutes
Total time:
	user time   =     298.75 seconds =       4.98 minutes
	system time =       3.54 seconds =       0.06 minutes
	total time  =         88 seconds =       1.47 minutes
  No DF_BASIS_SAPT auxiliary basis selected, defaulting to aug-cc-pvtz-ri

  //>>>>>>>>>>>>>>>>>>>>>>>>>>>>>>>>>>>//
  //               SAPT2+              //
  //<<<<<<<<<<<<<<<<<<<<<<<<<<<<<<<<<<<//


*** tstart() called on node36.bme.utexas.edu
*** at Sat Jul 12 10:22:42 2014

        SAPT2+  
    Ed Hohenstein
     6 June 2009

      Orbital Information
  --------------------------
    NSO        =       384
    NMO        =       384
    NRI        =       984
    NOCC A     =        21
    NOCC B     =        21
    FOCC A     =        11
    FOCC B     =        11
    NVIR A     =       363
    NVIR B     =       363

    Estimated memory usage: 2431.9 MB

    Elst10,r            =    -0.001864570120 H
    Exch10 (S^2)        =     0.001097393221 H
    Exch10              =     0.001098429485 H
    Ind20,r (A<-B)      =    -0.000352441284 H
    Ind20,r (B<-A)      =    -0.000128102904 H
    Ind20,r             =    -0.000480544189 H
    Exch-Ind20,r (A<-B) =     0.000198948009 H
    Exch-Ind20,r (B<-A) =     0.000080897497 H
    Exch-Ind20,r        =     0.000279845506 H
    Disp20              =    -0.002857500416 H
    Exch-Disp20         =     0.000138531955 H
    Elst12,r            =     0.000152536242 H
    Exch11              =     0.000024986429 H
    Exch12              =     0.000091972572 H
    Ind22               =    -0.000013647062 H
    Disp21              =     0.000518127811 H
    Disp22 (SDQ)        =     0.000058752371 H

    (i =   1 of  10)        356 seconds
    (i =   2 of  10)        712 seconds
    (i =   3 of  10)       1064 seconds
    (i =   4 of  10)       1417 seconds
    (i =   5 of  10)       1774 seconds
    (i =   6 of  10)       2129 seconds
    (i =   7 of  10)       2485 seconds
    (i =   8 of  10)       2839 seconds
    (i =   9 of  10)       3200 seconds
    (i =  10 of  10)       3554 seconds

    Disp220 (T)         =    -0.000252111239 H

    (i =   1 of  10)        355 seconds
    (i =   2 of  10)        709 seconds
    (i =   3 of  10)       1061 seconds
    (i =   4 of  10)       1419 seconds
    (i =   5 of  10)       1780 seconds
    (i =   6 of  10)       2133 seconds
    (i =   7 of  10)       2483 seconds
    (i =   8 of  10)       2835 seconds
    (i =   9 of  10)       3188 seconds
    (i =  10 of  10)       3540 seconds

    Disp202 (T)         =    -0.000254692055 H

    Disp22 (T)          =    -0.000506803294 H

    SAPT Results  
  -----------------------------------------------------------------------
    Electrostatics          -1.71203388 mH      -1.07431752 kcal mol^-1
      Elst10,r              -1.86457012 mH      -1.17003546 kcal mol^-1
      Elst12,r               0.15253624 mH       0.09571794 kcal mol^-1

    Exchange                 1.21538849 mH       0.76266782 kcal mol^-1
      Exch10                 1.09842949 mH       0.68927494 kcal mol^-1
      Exch10(S^2)            1.09739322 mH       0.68862467 kcal mol^-1
      Exch11(S^2)            0.02498643 mH       0.01567922 kcal mol^-1
      Exch12(S^2)            0.09197257 mH       0.05771366 kcal mol^-1

    Induction               -0.29569633 mH      -0.18555226 kcal mol^-1
      Ind20,r               -0.48054419 mH      -0.30154604 kcal mol^-1
      Ind22                 -0.01364706 mH      -0.00856366 kcal mol^-1
      Exch-Ind20,r           0.27984551 mH       0.17560571 kcal mol^-1
      Exch-Ind22             0.00794738 mH       0.00498706 kcal mol^-1
      delta HF,r (2)        -0.08929797 mH      -0.05603532 kcal mol^-1

    Dispersion              -2.64889157 mH      -1.66220463 kcal mol^-1
      Disp20                -2.85750042 mH      -1.79310866 kcal mol^-1
      Disp21                 0.51812781 mH       0.32513012 kcal mol^-1
      Disp22 (SDQ)           0.05875237 mH       0.03686767 kcal mol^-1
      Disp22 (T)            -0.50680329 mH      -0.31802388 kcal mol^-1
      Exch-Disp20            0.13853196 mH       0.08693012 kcal mol^-1

    Total HF                -1.05613728 mH      -0.66273618 kcal mol^-1
    Total SAPT0             -3.77510574 mH      -2.36891472 kcal mol^-1
    Total SAPT2             -3.51131018 mH      -2.20338050 kcal mol^-1
    Total SAPT2+            -3.44123329 mH      -2.15940658 kcal mol^-1

*** tstop() called on node36.bme.utexas.edu at Sat Jul 12 12:49:10 2014
Module time:
	user time   =   32734.74 seconds =     545.58 minutes
	system time =     126.36 seconds =       2.11 minutes
	total time  =       8788 seconds =     146.47 minutes
Total time:
	user time   =   33033.49 seconds =     550.56 minutes
	system time =     129.90 seconds =       2.17 minutes
	total time  =       8876 seconds =     147.93 minutes

*** PSI4 exiting successfully. Buy a developer a beer!
