    -----------------------------------------------------------------------
          PSI4: An Open-Source Ab Initio Electronic Structure Package
                              PSI 4.0.0-beta4 Driver

    J. M. Turney, A. C. Simmonett, R. M. Parrish, E. G. Hohenstein,
    F. A. Evangelista, J. T. Fermann, B. J. Mintz, L. A. Burns, J. J. Wilke,
    M. L. Abrams, N. J. Russ, M. L. Leininger, C. L. Janssen, E. T. Seidl,
    W. D. Allen, H. F. Schaefer, R. A. King, E. F. Valeev, C. D. Sherrill,
    and T. D. Crawford, WIREs Comput. Mol. Sci., (2011) (doi: 10.1002/wcms.93)

                         Additional Contributions by
    A. E. DePrince, M. Saitow, U. Bozkaya, A. Yu. Sokolov
    -----------------------------------------------------------------------

    Process ID:  15909
    PSI4DATADIR: /home/xzhu216/psi4/psi4-install/share/psi

    Using LocalCommunicator (Number of processes = 1)

    Memory level set to 256.000 MB

  ==> Input File <==

--------------------------------------------------------------------------
#psi4
#
memory 20 gb

molecule CH2Br2_CH2Br2 {
0 1
   Br     0.377721000     1.549726000     1.434409000
   Br    -0.393013000    -1.562582000     1.428419000
    C    -0.013169000    -0.007087000     2.485715000
    H    -0.885771000     0.207901000     3.087328000
    H     0.853113000    -0.222737000     3.096162000
--
0 1
   Br    -0.393523487    -1.545959281    -2.578975344
   Br     0.374863513     1.568531719    -2.576241344
    C     0.016395513     0.004029719    -1.526755344
    H     0.897567513    -0.213872281    -0.939854344
    H    -0.834613487     0.213432719    -0.894303344
units angstrom
no_reorient  #important for SAPT in psi4, default
symmetry c1  #important for SAPT in psi4, default
}

set {
basis aug-cc-pVTZ
scf_type DF
freeze_core True
}
energy('sapt2+')
--------------------------------------------------------------------------

  Memory set to  20.000 GiB by Python script.

  //>>>>>>>>>>>>>>>>>>>>>>>>>>>>>>>>>>>//
  //              Dimer HF             //
  //<<<<<<<<<<<<<<<<<<<<<<<<<<<<<<<<<<<//


  No DF_BASIS_SCF auxiliary basis selected, defaulting to aug-cc-pvtz-jkfit


*** tstart() called on pharma.bme.utexas.edu
*** at Sat Jul 12 18:01:13 2014


         ---------------------------------------------------------
                                   SCF
            by Justin Turney, Rob Parrish, and Andy Simmonett
                              RHF Reference
                        4 Threads,  20000 MiB Core
         ---------------------------------------------------------

  ==> Geometry <==

    Molecular point group: c1
    Full point group: C1

    Geometry (in Angstrom), charge = 0, multiplicity = 1:

       Center              X                  Y                   Z       
    ------------   -----------------  -----------------  -----------------
          BR          0.385315258882     1.547646532449     1.914532332916
          BR         -0.385418741118    -1.564661467551     1.908542332916
           C         -0.005574741118    -0.009166467551     2.965838332916
           H         -0.878176741118     0.205821532449     3.567451332916
           H          0.860707258882    -0.224816467551     3.576285332916
          BR         -0.385929228118    -1.548038748551    -2.098852011084
          BR          0.382457771882     1.566452251449    -2.096118011084
           C          0.023989771882     0.001950251449    -1.046632011084
           H          0.905161771882    -0.215951748551    -0.459731011084
           H         -0.827019228118     0.211353251449    -0.414180011084

  Running in c1 symmetry.

  Nuclear repulsion = 1437.687276744954033

  Charge       = 0
  Multiplicity = 1
  Electrons    = 156
  Nalpha       = 78
  Nbeta        = 78

  ==> Algorithm <==

  SCF Algorithm Type is DF.
  DIIS enabled.
  MOM disabled.
  Fractional occupation disabled.
  Guess Type is CORE.
  Energy threshold   = 1.00e-08
  Density threshold  = 1.00e-08
  Integral threshold = 0.00e+00

  ==> Primary Basis <==

  Basis Set: AUG-CC-PVTZ
    Number of shells: 140
    Number of basis function: 420
    Number of Cartesian functions: 486
    Spherical Harmonics?: true
    Max angular momentum: 3

  ==> Pre-Iterations <==

   -------------------------------------------------------
    Irrep   Nso     Nmo     Nalpha   Nbeta   Ndocc  Nsocc
   -------------------------------------------------------
     A        420     420       0       0       0       0
   -------------------------------------------------------
    Total     420     420      78      78      78       0
   -------------------------------------------------------

 OEINTS: Wrapper to libmints.
   by Justin Turney

   Calculation information:
      Number of atoms:                  10
      Number of AO shells:             140
      Number of SO shells:             140
      Number of primitives:            596
      Number of atomic orbitals:       486
      Number of basis functions:       420

      Number of irreps:                  1
      Number of functions per irrep: [ 420 ]

      Overlap, kinetic, potential, dipole, and quadrupole integrals
        stored in file 35.

  ==> Integral Setup <==

  ==> DFJK: Density-Fitted J/K Matrices <==

    J tasked:                  Yes
    K tasked:                  Yes
    wK tasked:                  No
    OpenMP threads:              4
    Integrals threads:           4
    Memory (MB):             14305
    Algorithm:                Core
    Integral Cache:           SAVE
    Schwarz Cutoff:          0E+00
    Fitting Condition:       1E-12

   => Auxiliary Basis Set <=

  Basis Set: aug-cc-pvtz-jkfit
    Number of shells: 348
    Number of basis function: 1384
    Number of Cartesian functions: 1798
    Spherical Harmonics?: true
    Max angular momentum: 4

  Minimum eigenvalue in the overlap matrix is 5.4589544405E-05.
  Using Symmetric Orthogonalization.
  SCF Guess: Core (One-Electron) Hamiltonian.

  Guess energy: -7505.81955958775598

  ==> Iterations <==

                        Total Energy        Delta E     RMS |[F,P]|

   @RHF iter   1: -10233.17433984572199   -1.02332e+04   3.28944e-02 
   @RHF iter   2: -9824.67197757346366    4.08502e+02   6.74533e-02 DIIS
   @RHF iter   3: -10348.58586336084409   -5.23914e+02   1.14652e-02 DIIS
   @RHF iter   4: -10291.58769667958404    5.69982e+01   1.42644e-02 DIIS
   @RHF iter   5: -10321.42936634436774   -2.98417e+01   1.08611e-02 DIIS
   @RHF iter   6: -10362.09738308451779   -4.06680e+01   5.24124e-03 DIIS
   @RHF iter   7: -10367.48738536745077   -5.39000e+00   2.06815e-03 DIIS
   @RHF iter   8: -10367.89605506840235   -4.08670e-01   4.21036e-04 DIIS
   @RHF iter   9: -10367.91546801588629   -1.94129e-02   1.98788e-04 DIIS
   @RHF iter  10: -10367.92096044556820   -5.49243e-03   6.64403e-05 DIIS
   @RHF iter  11: -10367.92173569259103   -7.75247e-04   2.40325e-05 DIIS
   @RHF iter  12: -10367.92183098423993   -9.52916e-05   6.08745e-06 DIIS
   @RHF iter  13: -10367.92183786902388   -6.88478e-06   1.79101e-06 DIIS
   @RHF iter  14: -10367.92183860865043   -7.39627e-07   6.85205e-07 DIIS
   @RHF iter  15: -10367.92183870220833   -9.35579e-08   2.41855e-07 DIIS
   @RHF iter  16: -10367.92183871466477   -1.24564e-08   6.03797e-08 DIIS
   @RHF iter  17: -10367.92183871567249   -1.00772e-09   2.29032e-08 DIIS
   @RHF iter  18: -10367.92183871579618   -1.23691e-10   8.16226e-09 DIIS

  ==> Post-Iterations <==

	Orbital Energies (a.u.)
	-----------------------

	Doubly Occupied:                                                      

	   1A   -490.046311     2A   -490.046281     3A   -490.026123  
	   4A   -490.026050     5A    -65.186343     6A    -65.186308  
	   7A    -65.166083     8A    -65.166011     9A    -58.541669  
	  10A    -58.541634    11A    -58.540162    12A    -58.540148  
	  13A    -58.540127    14A    -58.540113    15A    -58.521394  
	  16A    -58.521321    17A    -58.519950    18A    -58.519918  
	  19A    -58.519877    20A    -58.519846    21A    -11.365343  
	  22A    -11.342372    23A     -9.859367    24A     -9.859329  
	  25A     -9.839040    26A     -9.838969    27A     -7.471160  
	  28A     -7.471123    29A     -7.464032    30A     -7.463992  
	  31A     -7.463884    32A     -7.463843    33A     -7.450772  
	  34A     -7.450701    35A     -7.443779    36A     -7.443707  
	  37A     -7.443624    38A     -7.443554    39A     -3.214950  
	  40A     -3.214905    41A     -3.211213    42A     -3.211177  
	  43A     -3.211103    44A     -3.211064    45A     -3.201927  
	  46A     -3.201922    47A     -3.201886    48A     -3.201882  
	  49A     -3.194518    50A     -3.194442    51A     -3.190871  
	  52A     -3.190799    53A     -3.190724    54A     -3.190654  
	  55A     -3.181756    56A     -3.181749    57A     -3.181685  
	  58A     -3.181678    59A     -1.133033    60A     -1.110522  
	  61A     -1.026410    62A     -1.005010    63A     -0.889336  
	  64A     -0.864575    65A     -0.674480    66A     -0.652010  
	  67A     -0.590332    68A     -0.571149    69A     -0.553829  
	  70A     -0.528864    71A     -0.442411    72A     -0.439795  
	  73A     -0.427527    74A     -0.422885    75A     -0.421294  
	  76A     -0.420605    77A     -0.405286    78A     -0.396384  

	Virtual:                                                              

	  79A      0.023711    80A      0.037625    81A      0.042464  
	  82A      0.054423    83A      0.059606    84A      0.065521  
	  85A      0.065700    86A      0.072974    87A      0.100832  
	  88A      0.102912    89A      0.103635    90A      0.105038  
	  91A      0.112838    92A      0.118614    93A      0.129704  
	  94A      0.132193    95A      0.134734    96A      0.134975  
	  97A      0.142091    98A      0.142711    99A      0.147230  
	 100A      0.159115   101A      0.159579   102A      0.164365  
	 103A      0.173353   104A      0.178383   105A      0.184831  
	 106A      0.187876   107A      0.201842   108A      0.210204  
	 109A      0.220610   110A      0.221121   111A      0.232542  
	 112A      0.242842   113A      0.256634   114A      0.284468  
	 115A      0.289368   116A      0.294136   117A      0.304371  
	 118A      0.310183   119A      0.310993   120A      0.317688  
	 121A      0.333915   122A      0.341517   123A      0.342783  
	 124A      0.343466   125A      0.347167   126A      0.360961  
	 127A      0.362924   128A      0.364589   129A      0.365924  
	 130A      0.376863   131A      0.379673   132A      0.387285  
	 133A      0.390955   134A      0.397877   135A      0.410766  
	 136A      0.415802   137A      0.421850   138A      0.435166  
	 139A      0.439432   140A      0.442003   141A      0.442727  
	 142A      0.449186   143A      0.462576   144A      0.463810  
	 145A      0.468244   146A      0.474649   147A      0.480541  
	 148A      0.498267   149A      0.503716   150A      0.508042  
	 151A      0.527425   152A      0.528697   153A      0.534055  
	 154A      0.540963   155A      0.563630   156A      0.568318  
	 157A      0.572376   158A      0.595612   159A      0.611938  
	 160A      0.611962   161A      0.633086   162A      0.649598  
	 163A      0.654782   164A      0.655306   165A      0.659280  
	 166A      0.680311   167A      0.703280   168A      0.705351  
	 169A      0.714899   170A      0.717253   171A      0.734219  
	 172A      0.749879   173A      0.757910   174A      0.762903  
	 175A      0.770363   176A      0.783968   177A      0.797775  
	 178A      0.803635   179A      0.808516   180A      0.809957  
	 181A      0.814724   182A      0.820622   183A      0.833572  
	 184A      0.844714   185A      0.853059   186A      0.862461  
	 187A      0.866107   188A      0.885470   189A      0.896926  
	 190A      0.898796   191A      0.900883   192A      0.904221  
	 193A      0.908927   194A      0.913812   195A      0.914245  
	 196A      0.921485   197A      0.936211   198A      0.936360  
	 199A      0.959561   200A      0.960744   201A      0.980009  
	 202A      0.981725   203A      0.983506   204A      0.990715  
	 205A      1.004197   206A      1.008203   207A      1.020395  
	 208A      1.040905   209A      1.051955   210A      1.052622  
	 211A      1.060555   212A      1.066195   213A      1.075968  
	 214A      1.083896   215A      1.094793   216A      1.102388  
	 217A      1.110251   218A      1.121815   219A      1.123612  
	 220A      1.125830   221A      1.135189   222A      1.148280  
	 223A      1.182846   224A      1.191717   225A      1.197312  
	 226A      1.212780   227A      1.235673   228A      1.241627  
	 229A      1.267429   230A      1.269792   231A      1.269999  
	 232A      1.279694   233A      1.309626   234A      1.314776  
	 235A      1.342681   236A      1.349420   237A      1.356884  
	 238A      1.358840   239A      1.373133   240A      1.381880  
	 241A      1.400584   242A      1.406673   243A      1.431913  
	 244A      1.434370   245A      1.438814   246A      1.458798  
	 247A      1.468248   248A      1.481429   249A      1.485235  
	 250A      1.491550   251A      1.518092   252A      1.519787  
	 253A      1.550890   254A      1.551224   255A      1.555413  
	 256A      1.577325   257A      1.586455   258A      1.604224  
	 259A      1.606911   260A      1.641260   261A      1.646255  
	 262A      1.651184   263A      1.661438   264A      1.683555  
	 265A      1.707722   266A      1.707878   267A      1.741811  
	 268A      1.758192   269A      1.767690   270A      1.773700  
	 271A      1.780642   272A      1.796959   273A      1.809261  
	 274A      1.821619   275A      1.864410   276A      1.881843  
	 277A      1.912802   278A      1.947360   279A      2.007906  
	 280A      2.010433   281A      2.031655   282A      2.046746  
	 283A      2.095058   284A      2.113111   285A      2.117331  
	 286A      2.177990   287A      2.225691   288A      2.236971  
	 289A      2.242057   290A      2.249700   291A      2.264766  
	 292A      2.274278   293A      2.278937   294A      2.284072  
	 295A      2.312000   296A      2.331538   297A      2.334956  
	 298A      2.337918   299A      2.340898   300A      2.355097  
	 301A      2.358833   302A      2.360406   303A      2.360439  
	 304A      2.375450   305A      2.386495   306A      2.400847  
	 307A      2.409138   308A      2.414827   309A      2.429589  
	 310A      2.437423   311A      2.447661   312A      2.454003  
	 313A      2.458195   314A      2.463575   315A      2.475356  
	 316A      2.485766   317A      2.490572   318A      2.493985  
	 319A      2.495594   320A      2.511614   321A      2.522121  
	 322A      2.529342   323A      2.537864   324A      2.544918  
	 325A      2.577365   326A      2.577486   327A      2.584043  
	 328A      2.586253   329A      2.598436   330A      2.600112  
	 331A      2.614768   332A      2.622714   333A      2.628326  
	 334A      2.637612   335A      2.660750   336A      2.679256  
	 337A      2.682649   338A      2.691962   339A      2.711578  
	 340A      2.718876   341A      2.726060   342A      2.796239  
	 343A      2.817351   344A      2.857457   345A      2.857989  
	 346A      2.900178   347A      3.153419   348A      3.181408  
	 349A      3.220567   350A      3.365652   351A      3.385988  
	 352A      3.441068   353A      3.467930   354A      3.510208  
	 355A      3.514540   356A      3.519593   357A      3.537829  
	 358A      3.562133   359A      3.611110   360A      3.616471  
	 361A      3.678489   362A      3.703974   363A      3.730225  
	 364A      3.741204   365A      3.804360   366A      3.808102  
	 367A      3.897971   368A      3.943213   369A      3.944013  
	 370A      3.968521   371A      4.004206   372A      4.019957  
	 373A      4.025636   374A      4.030783   375A      4.067093  
	 376A      4.082746   377A      4.097839   378A      4.102234  
	 379A      4.165245   380A      4.197564   381A      4.210765  
	 382A      4.214650   383A      4.240192   384A      4.264996  
	 385A      4.265751   386A      4.311162   387A      4.368647  
	 388A      4.450673   389A      4.498946   390A      4.581441  
	 391A      4.746820   392A      4.828632   393A      4.871797  
	 394A      4.882693   395A      4.900632   396A      4.917604  
	 397A      4.936690   398A      4.959882   399A      5.098731  
	 400A      5.194911   401A      5.240863   402A      5.286580  
	 403A      5.312394   404A      5.336050   405A      5.339493  
	 406A      5.373872   407A      5.422084   408A      5.526424  
	 409A      5.578543   410A      5.732629   411A      5.757602  
	 412A      5.773948   413A      5.776262   414A      5.850250  
	 415A      6.036894   416A      6.192920   417A      6.569615  
	 418A      6.616980   419A     15.971965   420A     16.959108  

	Final Occupation by Irrep:
	          A 
	DOCC [    78 ]

  Energy converged.

  @RHF Final Energy: -10367.92183871579618

   => Energetics <=

    Nuclear Repulsion Energy =           1437.6872767449540333
    One-Electron Energy =              -17307.7564213379446301
    Two-Electron Energy =                5502.1473058772007789
    DFT Exchange-Correlation Energy =       0.0000000000000000
    Empirical Dispersion Energy =           0.0000000000000000
    Total Energy =                     -10367.9218387157907273



Properties will be evaluated at   0.000000,   0.000000,   0.000000 Bohr
  ==> Properties <==


Properties computed using the SCF density density matrix
  Nuclear Dipole Moment: (a.u.)
     X:     0.0870      Y:    -0.0339      Z:     9.0116

  Electronic Dipole Moment: (a.u.)
     X:    -0.0750      Y:     0.0277      Z:    -7.5148

  Dipole Moment: (a.u.)
     X:     0.0120      Y:    -0.0062      Z:     1.4967     Total:     1.4968

  Dipole Moment: (Debye)
     X:     0.0305      Y:    -0.0157      Z:     3.8043     Total:     3.8045


  Saving occupied orbitals to File 180.

  Saving SAPT 2-DIMER file.

*** tstop() called on pharma.bme.utexas.edu at Sat Jul 12 18:04:15 2014
Module time:
	user time   =     637.79 seconds =      10.63 minutes
	system time =       4.65 seconds =       0.08 minutes
	total time  =        182 seconds =       3.03 minutes
Total time:
	user time   =     637.79 seconds =      10.63 minutes
	system time =       4.65 seconds =       0.08 minutes
	total time  =        182 seconds =       3.03 minutes

  //>>>>>>>>>>>>>>>>>>>>>>>>>>>>>>>>>>>//
  //            Monomer A HF           //
  //<<<<<<<<<<<<<<<<<<<<<<<<<<<<<<<<<<<//


  No DF_BASIS_SCF auxiliary basis selected, defaulting to aug-cc-pvtz-jkfit


*** tstart() called on pharma.bme.utexas.edu
*** at Sat Jul 12 18:04:15 2014


         ---------------------------------------------------------
                                   SCF
            by Justin Turney, Rob Parrish, and Andy Simmonett
                              RHF Reference
                        4 Threads,  20000 MiB Core
         ---------------------------------------------------------

  ==> Geometry <==

    Molecular point group: c1
    Full point group: C1

    Geometry (in Angstrom), charge = 0, multiplicity = 1:

       Center              X                  Y                   Z       
    ------------   -----------------  -----------------  -----------------
          BR          0.385315258882     1.547646532449     1.914532332916
          BR         -0.385418741118    -1.564661467551     1.908542332916
           C         -0.005574741118    -0.009166467551     2.965838332916
           H         -0.878176741118     0.205821532449     3.567451332916
           H          0.860707258882    -0.224816467551     3.576285332916
          BR(Gh)     -0.385929228118    -1.548038748551    -2.098852011084
          BR(Gh)      0.382457771882     1.566452251449    -2.096118011084
           C(Gh)      0.023989771882     0.001950251449    -1.046632011084
           H(Gh)      0.905161771882    -0.215951748551    -0.459731011084
           H(Gh)     -0.827019228118     0.211353251449    -0.414180011084

  Running in c1 symmetry.

  Nuclear repulsion =  354.098711374282630

  Charge       = 0
  Multiplicity = 1
  Electrons    = 78
  Nalpha       = 39
  Nbeta        = 39

  ==> Algorithm <==

  SCF Algorithm Type is DF.
  DIIS enabled.
  MOM disabled.
  Fractional occupation disabled.
  Guess Type is CORE.
  Energy threshold   = 1.00e-08
  Density threshold  = 1.00e-08
  Integral threshold = 0.00e+00

  ==> Primary Basis <==

  Basis Set: AUG-CC-PVTZ
    Number of shells: 140
    Number of basis function: 420
    Number of Cartesian functions: 486
    Spherical Harmonics?: true
    Max angular momentum: 3

  ==> Pre-Iterations <==

   -------------------------------------------------------
    Irrep   Nso     Nmo     Nalpha   Nbeta   Ndocc  Nsocc
   -------------------------------------------------------
     A        420     420       0       0       0       0
   -------------------------------------------------------
    Total     420     420      39      39      39       0
   -------------------------------------------------------

 OEINTS: Wrapper to libmints.
   by Justin Turney

   Calculation information:
      Number of atoms:                  10
      Number of AO shells:             140
      Number of SO shells:             140
      Number of primitives:            596
      Number of atomic orbitals:       486
      Number of basis functions:       420

      Number of irreps:                  1
      Number of functions per irrep: [ 420 ]

      Overlap, kinetic, potential, dipole, and quadrupole integrals
        stored in file 35.

  ==> Integral Setup <==

  ==> DFJK: Density-Fitted J/K Matrices <==

    J tasked:                  Yes
    K tasked:                  Yes
    wK tasked:                  No
    OpenMP threads:              4
    Integrals threads:           4
    Memory (MB):             14305
    Algorithm:                Core
    Integral Cache:           LOAD
    Schwarz Cutoff:          0E+00
    Fitting Condition:       1E-12

   => Auxiliary Basis Set <=

  Basis Set: aug-cc-pvtz-jkfit
    Number of shells: 348
    Number of basis function: 1384
    Number of Cartesian functions: 1798
    Spherical Harmonics?: true
    Max angular momentum: 4

  Minimum eigenvalue in the overlap matrix is 5.4589544405E-05.
  Using Symmetric Orthogonalization.
  SCF Guess: Core (One-Electron) Hamiltonian.

  Guess energy: -3754.48090018923494

  ==> Iterations <==

                        Total Energy        Delta E     RMS |[F,P]|

   @RHF iter   1: -5117.82198927568970   -5.11782e+03   2.30789e-02 
   @RHF iter   2: -4876.17598121345509    2.41646e+02   4.68107e-02 DIIS
   @RHF iter   3: -5182.40450985622556   -3.06229e+02   4.57368e-03 DIIS
   @RHF iter   4: -5183.47646232541047   -1.07195e+00   2.50873e-03 DIIS
   @RHF iter   5: -5183.85309067987873   -3.76628e-01   1.23992e-03 DIIS
   @RHF iter   6: -5183.95435992733292   -1.01269e-01   3.75949e-04 DIIS
   @RHF iter   7: -5183.96378936177643   -9.42943e-03   6.14002e-05 DIIS
   @RHF iter   8: -5183.96420497281724   -4.15611e-04   1.35631e-05 DIIS
   @RHF iter   9: -5183.96424147431935   -3.65015e-05   4.82114e-06 DIIS
   @RHF iter  10: -5183.96424701317119   -5.53885e-06   1.48592e-06 DIIS
   @RHF iter  11: -5183.96424744840988   -4.35239e-07   4.43427e-07 DIIS
   @RHF iter  12: -5183.96424747731544   -2.89056e-08   6.55593e-08 DIIS
   @RHF iter  13: -5183.96424747869060   -1.37516e-09   2.06728e-08 DIIS
   @RHF iter  14: -5183.96424747880701   -1.16415e-10   8.25503e-09 DIIS

  ==> Post-Iterations <==

	Orbital Energies (a.u.)
	-----------------------

	Doubly Occupied:                                                      

	   1A   -490.035293     2A   -490.035292     3A    -65.175189  
	   4A    -65.175187     5A    -58.530525     6A    -58.530524  
	   7A    -58.529038     8A    -58.529036     9A    -58.529005  
	  10A    -58.529004    11A    -11.355294    12A     -9.848069  
	  13A     -9.848065    14A     -7.459882    15A     -7.459879  
	  16A     -7.452724    17A     -7.452721    18A     -7.452565  
	  19A     -7.452562    20A     -3.203680    21A     -3.203653  
	  22A     -3.199964    23A     -3.199960    24A     -3.199793  
	  25A     -3.199790    26A     -3.190629    27A     -3.190625  
	  28A     -3.190621    29A     -3.190617    30A     -1.120295  
	  31A     -1.013688    32A     -0.875805    33A     -0.663709  
	  34A     -0.577811    35A     -0.539514    36A     -0.431774  
	  37A     -0.429874    38A     -0.414909    39A     -0.405776  

	Virtual:                                                              

	  40A      0.027569    41A      0.033345    42A      0.040925  
	  43A      0.047932    44A      0.056763    45A      0.061148  
	  46A      0.071254    47A      0.074800    48A      0.098917  
	  49A      0.099372    50A      0.103448    51A      0.104168  
	  52A      0.109056    53A      0.111608    54A      0.121402  
	  55A      0.127069    56A      0.128020    57A      0.132643  
	  58A      0.144312    59A      0.144700    60A      0.149086  
	  61A      0.151447    62A      0.157328    63A      0.168028  
	  64A      0.173779    65A      0.174619    66A      0.192311  
	  67A      0.193057    68A      0.223030    69A      0.226914  
	  70A      0.237961    71A      0.238698    72A      0.261666  
	  73A      0.267603    74A      0.284645    75A      0.287775  
	  76A      0.296951    77A      0.306874    78A      0.310274  
	  79A      0.313466    80A      0.321183    81A      0.333941  
	  82A      0.342536    83A      0.343840    84A      0.354050  
	  85A      0.354689    86A      0.356537    87A      0.360670  
	  88A      0.372459    89A      0.374840    90A      0.379840  
	  91A      0.380507    92A      0.383502    93A      0.393907  
	  94A      0.400969    95A      0.403520    96A      0.406132  
	  97A      0.410835    98A      0.422410    99A      0.427756  
	 100A      0.435339   101A      0.439015   102A      0.451423  
	 103A      0.461078   104A      0.471241   105A      0.480502  
	 106A      0.485285   107A      0.498051   108A      0.506297  
	 109A      0.522358   110A      0.523271   111A      0.527685  
	 112A      0.536093   113A      0.539125   114A      0.550434  
	 115A      0.568685   116A      0.571598   117A      0.581772  
	 118A      0.588154   119A      0.594158   120A      0.610025  
	 121A      0.613197   122A      0.626865   123A      0.628830  
	 124A      0.661189   125A      0.664791   126A      0.666217  
	 127A      0.667516   128A      0.682912   129A      0.686177  
	 130A      0.720775   131A      0.730540   132A      0.732642  
	 133A      0.745739   134A      0.777546   135A      0.784811  
	 136A      0.786038   137A      0.796611   138A      0.819209  
	 139A      0.826049   140A      0.834574   141A      0.851808  
	 142A      0.853338   143A      0.868765   144A      0.871812  
	 145A      0.874826   146A      0.915759   147A      0.918885  
	 148A      0.926313   149A      0.954329   150A      0.961493  
	 151A      0.972796   152A      0.986820   153A      0.987525  
	 154A      0.998503   155A      1.005082   156A      1.022830  
	 157A      1.023952   158A      1.039610   159A      1.045467  
	 160A      1.046266   161A      1.059753   162A      1.073809  
	 163A      1.076742   164A      1.077357   165A      1.079296  
	 166A      1.084412   167A      1.099890   168A      1.113892  
	 169A      1.114099   170A      1.121443   171A      1.131054  
	 172A      1.134060   173A      1.135875   174A      1.146638  
	 175A      1.151038   176A      1.152800   177A      1.175248  
	 178A      1.175751   179A      1.187044   180A      1.200536  
	 181A      1.210615   182A      1.212432   183A      1.222300  
	 184A      1.231688   185A      1.233842   186A      1.234987  
	 187A      1.239933   188A      1.246372   189A      1.272011  
	 190A      1.280843   191A      1.293092   192A      1.296733  
	 193A      1.303739   194A      1.303987   195A      1.316671  
	 196A      1.323726   197A      1.333210   198A      1.362108  
	 199A      1.366437   200A      1.384819   201A      1.385243  
	 202A      1.400062   203A      1.407811   204A      1.409648  
	 205A      1.415556   206A      1.425825   207A      1.430468  
	 208A      1.450917   209A      1.452569   210A      1.475811  
	 211A      1.500681   212A      1.500713   213A      1.518655  
	 214A      1.524830   215A      1.530776   216A      1.541053  
	 217A      1.552491   218A      1.600400   219A      1.603033  
	 220A      1.610423   221A      1.626379   222A      1.633545  
	 223A      1.655512   224A      1.663984   225A      1.697032  
	 226A      1.703702   227A      1.725896   228A      1.744596  
	 229A      1.757843   230A      1.771724   231A      1.777704  
	 232A      1.810217   233A      1.814176   234A      1.855935  
	 235A      1.873294   236A      1.918772   237A      1.937315  
	 238A      1.941935   239A      1.952370   240A      1.973676  
	 241A      2.011466   242A      2.024230   243A      2.028567  
	 244A      2.040224   245A      2.065792   246A      2.085283  
	 247A      2.106012   248A      2.114002   249A      2.165068  
	 250A      2.237496   251A      2.242556   252A      2.265109  
	 253A      2.280275   254A      2.290926   255A      2.335620  
	 256A      2.343200   257A      2.347177   258A      2.350216  
	 259A      2.378069   260A      2.407840   261A      2.414514  
	 262A      2.415568   263A      2.459590   264A      2.469186  
	 265A      2.475118   266A      2.480973   267A      2.484093  
	 268A      2.490018   269A      2.500921   270A      2.516130  
	 271A      2.516432   272A      2.534554   273A      2.536296  
	 274A      2.552385   275A      2.580231   276A      2.580585  
	 277A      2.583460   278A      2.586833   279A      2.621756  
	 280A      2.642732   281A      2.649113   282A      2.701529  
	 283A      2.744015   284A      2.745547   285A      2.754206  
	 286A      2.819734   287A      2.845935   288A      2.927283  
	 289A      2.978860   290A      3.022929   291A      3.032610  
	 292A      3.050056   293A      3.157225   294A      3.161712  
	 295A      3.185582   296A      3.195644   297A      3.198864  
	 298A      3.217769   299A      3.228882   300A      3.316706  
	 301A      3.321035   302A      3.331635   303A      3.345626  
	 304A      3.348732   305A      3.353528   306A      3.362561  
	 307A      3.385354   308A      3.390332   309A      3.418088  
	 310A      3.432700   311A      3.442611   312A      3.463859  
	 313A      3.482530   314A      3.493965   315A      3.502053  
	 316A      3.510013   317A      3.525971   318A      3.545365  
	 319A      3.552142   320A      3.570415   321A      3.578306  
	 322A      3.595486   323A      3.602613   324A      3.683817  
	 325A      3.706831   326A      3.721485   327A      3.798955  
	 328A      3.842477   329A      3.907593   330A      3.953961  
	 331A      3.993478   332A      4.019103   333A      4.034372  
	 334A      4.038957   335A      4.072459   336A      4.090693  
	 337A      4.109507   338A      4.164880   339A      4.176160  
	 340A      4.192701   341A      4.209326   342A      4.221986  
	 343A      4.271920   344A      4.307095   345A      4.384723  
	 346A      4.432122   347A      4.471652   348A      4.523766  
	 349A      4.584742   350A      4.601934   351A      4.603521  
	 352A      4.640716   353A      4.760448   354A      4.845750  
	 355A      4.881357   356A      4.904797   357A      4.912883  
	 358A      4.940366   359A      4.951178   360A      4.965040  
	 361A      4.994374   362A      5.025454   363A      5.138125  
	 364A      5.211963   365A      5.252342   366A      5.299072  
	 367A      5.326189   368A      5.349410   369A      5.400885  
	 370A      5.419884   371A      5.430704   372A      5.600386  
	 373A      5.633399   374A      5.742012   375A      5.750099  
	 376A      5.780935   377A      5.881061   378A      5.941015  
	 379A      5.979981   380A      6.066473   381A      6.136105  
	 382A      6.208198   383A      6.430265   384A      6.585697  
	 385A      7.142446   386A      7.383791   387A      7.762702  
	 388A      7.764799   389A      8.229686   390A     10.227719  
	 391A     10.854224   392A     11.045388   393A     13.614120  
	 394A     13.660388   395A     13.713675   396A     13.733384  
	 397A     14.361806   398A     14.664392   399A     15.988660  
	 400A     26.197993   401A     26.198584   402A     26.254860  
	 403A     26.263545   404A     26.378709   405A     26.390105  
	 406A     26.402147   407A     26.418350   408A     26.634331  
	 409A     26.656823   410A     46.397959   411A     46.519340  
	 412A     51.514326   413A    138.650887   414A    138.731311  
	 415A    138.775964   416A    138.833665   417A    139.827420  
	 418A    140.359521   419A    711.429952   420A    711.691135  

	Final Occupation by Irrep:
	          A 
	DOCC [    39 ]

  Energy converged.

  @RHF Final Energy: -5183.96424747880701

   => Energetics <=

    Nuclear Repulsion Energy =            354.0987113742826295
    One-Electron Energy =               -7924.4812243886863143
    Two-Electron Energy =                2386.4182655356144096
    DFT Exchange-Correlation Energy =       0.0000000000000000
    Empirical Dispersion Energy =           0.0000000000000000
    Total Energy =                      -5183.9642474787888204



Properties will be evaluated at   0.000000,   0.000000,   0.000000 Bohr
  ==> Properties <==


Properties computed using the SCF density density matrix
  Nuclear Dipole Moment: (a.u.)
     X:    -0.1031      Y:    -1.2652      Z:   299.9872

  Electronic Dipole Moment: (a.u.)
     X:     0.0996      Y:     1.2648      Z:  -299.3280

  Dipole Moment: (a.u.)
     X:    -0.0034      Y:    -0.0004      Z:     0.6592     Total:     0.6592

  Dipole Moment: (Debye)
     X:    -0.0087      Y:    -0.0011      Z:     1.6755     Total:     1.6756


  Saving occupied orbitals to File 180.

  Saving SAPT 2-MONOMER_A file.

*** tstop() called on pharma.bme.utexas.edu at Sat Jul 12 18:05:36 2014
Module time:
	user time   =     270.31 seconds =       4.51 minutes
	system time =       1.80 seconds =       0.03 minutes
	total time  =         81 seconds =       1.35 minutes
Total time:
	user time   =     908.14 seconds =      15.14 minutes
	system time =       6.45 seconds =       0.11 minutes
	total time  =        263 seconds =       4.38 minutes

  //>>>>>>>>>>>>>>>>>>>>>>>>>>>>>>>>>>>//
  //            Monomer B HF           //
  //<<<<<<<<<<<<<<<<<<<<<<<<<<<<<<<<<<<//


  No DF_BASIS_SCF auxiliary basis selected, defaulting to aug-cc-pvtz-jkfit


*** tstart() called on pharma.bme.utexas.edu
*** at Sat Jul 12 18:05:36 2014


         ---------------------------------------------------------
                                   SCF
            by Justin Turney, Rob Parrish, and Andy Simmonett
                              RHF Reference
                        4 Threads,  20000 MiB Core
         ---------------------------------------------------------

  ==> Geometry <==

    Molecular point group: c1
    Full point group: C1

    Geometry (in Angstrom), charge = 0, multiplicity = 1:

       Center              X                  Y                   Z       
    ------------   -----------------  -----------------  -----------------
          BR(Gh)      0.385315258882     1.547646532449     1.914532332916
          BR(Gh)     -0.385418741118    -1.564661467551     1.908542332916
           C(Gh)     -0.005574741118    -0.009166467551     2.965838332916
           H(Gh)     -0.878176741118     0.205821532449     3.567451332916
           H(Gh)      0.860707258882    -0.224816467551     3.576285332916
          BR         -0.385929228118    -1.548038748551    -2.098852011084
          BR          0.382457771882     1.566452251449    -2.096118011084
           C          0.023989771882     0.001950251449    -1.046632011084
           H          0.905161771882    -0.215951748551    -0.459731011084
           H         -0.827019228118     0.211353251449    -0.414180011084

  Running in c1 symmetry.

  Nuclear repulsion =  354.072649504076651

  Charge       = 0
  Multiplicity = 1
  Electrons    = 78
  Nalpha       = 39
  Nbeta        = 39

  ==> Algorithm <==

  SCF Algorithm Type is DF.
  DIIS enabled.
  MOM disabled.
  Fractional occupation disabled.
  Guess Type is CORE.
  Energy threshold   = 1.00e-08
  Density threshold  = 1.00e-08
  Integral threshold = 0.00e+00

  ==> Primary Basis <==

  Basis Set: AUG-CC-PVTZ
    Number of shells: 140
    Number of basis function: 420
    Number of Cartesian functions: 486
    Spherical Harmonics?: true
    Max angular momentum: 3

  ==> Pre-Iterations <==

   -------------------------------------------------------
    Irrep   Nso     Nmo     Nalpha   Nbeta   Ndocc  Nsocc
   -------------------------------------------------------
     A        420     420       0       0       0       0
   -------------------------------------------------------
    Total     420     420      39      39      39       0
   -------------------------------------------------------

 OEINTS: Wrapper to libmints.
   by Justin Turney

   Calculation information:
      Number of atoms:                  10
      Number of AO shells:             140
      Number of SO shells:             140
      Number of primitives:            596
      Number of atomic orbitals:       486
      Number of basis functions:       420

      Number of irreps:                  1
      Number of functions per irrep: [ 420 ]

      Overlap, kinetic, potential, dipole, and quadrupole integrals
        stored in file 35.

  ==> Integral Setup <==

  ==> DFJK: Density-Fitted J/K Matrices <==

    J tasked:                  Yes
    K tasked:                  Yes
    wK tasked:                  No
    OpenMP threads:              4
    Integrals threads:           4
    Memory (MB):             14305
    Algorithm:                Core
    Integral Cache:           LOAD
    Schwarz Cutoff:          0E+00
    Fitting Condition:       1E-12

   => Auxiliary Basis Set <=

  Basis Set: aug-cc-pvtz-jkfit
    Number of shells: 348
    Number of basis function: 1384
    Number of Cartesian functions: 1798
    Spherical Harmonics?: true
    Max angular momentum: 4

  Minimum eigenvalue in the overlap matrix is 5.4589544405E-05.
  Using Symmetric Orthogonalization.
  SCF Guess: Core (One-Electron) Hamiltonian.

  Guess energy: -3753.96226516810884

  ==> Iterations <==

                        Total Energy        Delta E     RMS |[F,P]|

   @RHF iter   1: -5118.28776706773897   -5.11829e+03   2.28595e-02 
   @RHF iter   2: -4872.35907759586553    2.45929e+02   4.60918e-02 DIIS
   @RHF iter   3: -5182.38684022722282   -3.10028e+02   4.51517e-03 DIIS
   @RHF iter   4: -5183.42085537939056   -1.03402e+00   2.56842e-03 DIIS
   @RHF iter   5: -5183.86485866343901   -4.44003e-01   1.17253e-03 DIIS
   @RHF iter   6: -5183.95240653932888   -8.75479e-02   4.12905e-04 DIIS
   @RHF iter   7: -5183.96373205785949   -1.13255e-02   6.83723e-05 DIIS
   @RHF iter   8: -5183.96419701657942   -4.64959e-04   1.35080e-05 DIIS
   @RHF iter   9: -5183.96423049130863   -3.34747e-05   4.21300e-06 DIIS
   @RHF iter  10: -5183.96423455726654   -4.06596e-06   1.40878e-06 DIIS
   @RHF iter  11: -5183.96423494256032   -3.85294e-07   4.47458e-07 DIIS
   @RHF iter  12: -5183.96423497289925   -3.03389e-08   6.69310e-08 DIIS
   @RHF iter  13: -5183.96423497437081   -1.47156e-09   1.50671e-08 DIIS
   @RHF iter  14: -5183.96423497446358   -9.27685e-11   3.84719e-09 DIIS

  ==> Post-Iterations <==

	Orbital Energies (a.u.)
	-----------------------

	Doubly Occupied:                                                      

	   1A   -490.035362     2A   -490.035362     3A    -65.175271  
	   4A    -65.175271     5A    -58.530605     6A    -58.530605  
	   7A    -58.529121     8A    -58.529121     9A    -58.529085  
	  10A    -58.529084    11A    -11.354837    12A     -9.848193  
	  13A     -9.848189    14A     -7.460002    15A     -7.460000  
	  16A     -7.452856    17A     -7.452854    18A     -7.452686  
	  19A     -7.452685    20A     -3.203807    21A     -3.203780  
	  22A     -3.200086    23A     -3.200084    24A     -3.199915  
	  25A     -3.199913    26A     -3.190754    27A     -3.190751  
	  28A     -3.190745    29A     -3.190742    30A     -1.120563  
	  31A     -1.013963    32A     -0.876050    33A     -0.662947  
	  34A     -0.578457    35A     -0.539840    36A     -0.431827  
	  37A     -0.430004    38A     -0.414805    39A     -0.406033  

	Virtual:                                                              

	  40A      0.018074    41A      0.036032    42A      0.043663  
	  43A      0.045683    44A      0.056062    45A      0.060243  
	  46A      0.067121    47A      0.072233    48A      0.087446  
	  49A      0.092357    50A      0.102985    51A      0.105537  
	  52A      0.107674    53A      0.115703    54A      0.116421  
	  55A      0.125659    56A      0.125663    57A      0.126913  
	  58A      0.132631    59A      0.144836    60A      0.149923  
	  61A      0.152933    62A      0.160738    63A      0.162326  
	  64A      0.174625    65A      0.176541    66A      0.185334  
	  67A      0.186501    68A      0.216681    69A      0.219668  
	  70A      0.230991    71A      0.243060    72A      0.247025  
	  73A      0.267426    74A      0.269342    75A      0.277925  
	  76A      0.289895    77A      0.296955    78A      0.303309  
	  79A      0.305169    80A      0.319339    81A      0.335258  
	  82A      0.336595    83A      0.340243    84A      0.341453  
	  85A      0.342897    86A      0.355594    87A      0.358324  
	  88A      0.358569    89A      0.365906    90A      0.371109  
	  91A      0.375824    92A      0.382102    93A      0.399693  
	  94A      0.405616    95A      0.416690    96A      0.417506  
	  97A      0.422054    98A      0.426235    99A      0.434682  
	 100A      0.442861   101A      0.452103   102A      0.453176  
	 103A      0.457540   104A      0.468090   105A      0.470531  
	 106A      0.483948   107A      0.486553   108A      0.498358  
	 109A      0.506909   110A      0.515112   111A      0.523388  
	 112A      0.534833   113A      0.538797   114A      0.540410  
	 115A      0.555210   116A      0.556358   117A      0.577536  
	 118A      0.585765   119A      0.586354   120A      0.590498  
	 121A      0.600040   122A      0.614208   123A      0.624775  
	 124A      0.640310   125A      0.644822   126A      0.657824  
	 127A      0.663935   128A      0.671959   129A      0.674702  
	 130A      0.706145   131A      0.719479   132A      0.723879  
	 133A      0.728778   134A      0.751595   135A      0.756875  
	 136A      0.790234   137A      0.795468   138A      0.802763  
	 139A      0.816114   140A      0.827039   141A      0.838746  
	 142A      0.848949   143A      0.860457   144A      0.885615  
	 145A      0.900654   146A      0.904096   147A      0.935569  
	 148A      0.936588   149A      0.956601   150A      0.961441  
	 151A      0.973726   152A      0.976953   153A      0.979879  
	 154A      0.997236   155A      1.004285   156A      1.011473  
	 157A      1.012562   158A      1.018482   159A      1.034734  
	 160A      1.036418   161A      1.038605   162A      1.042976  
	 163A      1.048741   164A      1.051991   165A      1.066799  
	 166A      1.071200   167A      1.081542   168A      1.084403  
	 169A      1.092865   170A      1.104067   171A      1.111865  
	 172A      1.118743   173A      1.132544   174A      1.143575  
	 175A      1.152532   176A      1.155277   177A      1.156475  
	 178A      1.158937   179A      1.165370   180A      1.169340  
	 181A      1.184727   182A      1.202179   183A      1.206017  
	 184A      1.209097   185A      1.219144   186A      1.227635  
	 187A      1.229500   188A      1.242430   189A      1.265970  
	 190A      1.280013   191A      1.284338   192A      1.303628  
	 193A      1.312855   194A      1.320096   195A      1.327634  
	 196A      1.337962   197A      1.358582   198A      1.360403  
	 199A      1.363325   200A      1.372185   201A      1.380647  
	 202A      1.405246   203A      1.406222   204A      1.407726  
	 205A      1.408970   206A      1.425961   207A      1.426536  
	 208A      1.442167   209A      1.447270   210A      1.467507  
	 211A      1.483539   212A      1.484259   213A      1.514098  
	 214A      1.547580   215A      1.560193   216A      1.569324  
	 217A      1.575736   218A      1.592422   219A      1.607749  
	 220A      1.610927   221A      1.628528   222A      1.640957  
	 223A      1.644843   224A      1.646026   225A      1.709094  
	 226A      1.718870   227A      1.748893   228A      1.761504  
	 229A      1.763312   230A      1.780374   231A      1.798737  
	 232A      1.822285   233A      1.848026   234A      1.856136  
	 235A      1.863236   236A      1.899200   237A      1.915624  
	 238A      1.932527   239A      1.934793   240A      1.937793  
	 241A      1.956570   242A      2.014089   243A      2.038376  
	 244A      2.038836   245A      2.048854   246A      2.065991  
	 247A      2.100365   248A      2.117206   249A      2.151827  
	 250A      2.182832   251A      2.229494   252A      2.246149  
	 253A      2.266126   254A      2.270202   255A      2.271589  
	 256A      2.289305   257A      2.305858   258A      2.316840  
	 259A      2.337611   260A      2.339997   261A      2.362113  
	 262A      2.362883   263A      2.366741   264A      2.367471  
	 265A      2.377779   266A      2.389076   267A      2.419893  
	 268A      2.424387   269A      2.451367   270A      2.461332  
	 271A      2.467468   272A      2.470931   273A      2.478336  
	 274A      2.493292   275A      2.511675   276A      2.579095  
	 277A      2.585660   278A      2.587227   279A      2.599821  
	 280A      2.633720   281A      2.648495   282A      2.662993  
	 283A      2.698786   284A      2.723055   285A      2.725368  
	 286A      2.778384   287A      2.825993   288A      2.845312  
	 289A      2.963987   290A      3.016522   291A      3.112836  
	 292A      3.115134   293A      3.158201   294A      3.178680  
	 295A      3.226329   296A      3.264289   297A      3.272331  
	 298A      3.283889   299A      3.292249   300A      3.308997  
	 301A      3.310365   302A      3.332497   303A      3.350216  
	 304A      3.353037   305A      3.358174   306A      3.381820  
	 307A      3.406187   308A      3.406329   309A      3.431227  
	 310A      3.435390   311A      3.446898   312A      3.462893  
	 313A      3.468560   314A      3.505995   315A      3.513138  
	 316A      3.526945   317A      3.528257   318A      3.555133  
	 319A      3.571745   320A      3.589875   321A      3.599640  
	 322A      3.650783   323A      3.682964   324A      3.691371  
	 325A      3.735772   326A      3.789519   327A      3.856965  
	 328A      3.891592   329A      3.932576   330A      3.938338  
	 331A      3.997149   332A      4.014084   333A      4.048181  
	 334A      4.054349   335A      4.083714   336A      4.098220  
	 337A      4.121952   338A      4.164731   339A      4.178367  
	 340A      4.204303   341A      4.239909   342A      4.257670  
	 343A      4.270942   344A      4.301877   345A      4.369229  
	 346A      4.453604   347A      4.486460   348A      4.499425  
	 349A      4.506838   350A      4.542557   351A      4.579088  
	 352A      4.593775   353A      4.800043   354A      4.807685  
	 355A      4.849253   356A      4.856030   357A      4.883991  
	 358A      4.901601   359A      4.925875   360A      4.948740  
	 361A      4.958649   362A      5.058749   363A      5.143334  
	 364A      5.173985   365A      5.282720   366A      5.315136  
	 367A      5.320503   368A      5.345300   369A      5.358744  
	 370A      5.364208   371A      5.402509   372A      5.429694  
	 373A      5.566121   374A      5.601762   375A      5.763324  
	 376A      5.829141   377A      5.839056   378A      5.844303  
	 379A      5.908958   380A      6.094981   381A      6.130743  
	 382A      6.170195   383A      6.355817   384A      6.599859  
	 385A      7.041206   386A      7.341521   387A      7.708558  
	 388A      7.721162   389A      8.175516   390A      9.990934  
	 391A     10.980699   392A     11.022378   393A     13.597457  
	 394A     13.697530   395A     13.825002   396A     13.926577  
	 397A     14.206275   398A     14.602874   399A     16.950326  
	 400A     26.224911   401A     26.277503   402A     26.284687  
	 403A     26.305515   404A     26.347936   405A     26.373948  
	 406A     26.412644   407A     26.451004   408A     26.626992  
	 409A     26.662579   410A     46.458302   411A     46.497115  
	 412A     49.538605   413A    138.637495   414A    138.791203  
	 415A    139.017298   416A    139.151840   417A    139.566682  
	 418A    140.266676   419A    711.552135   420A    711.702449  

	Final Occupation by Irrep:
	          A 
	DOCC [    39 ]

  Energy converged.

  @RHF Final Energy: -5183.96423497446358

   => Energetics <=

    Nuclear Repulsion Energy =            354.0726495040766508
    One-Electron Energy =               -7924.4212604221856964
    Two-Electron Energy =                2386.3843759436413166
    DFT Exchange-Correlation Energy =       0.0000000000000000
    Empirical Dispersion Energy =           0.0000000000000000
    Total Energy =                      -5183.9642349744681269



Properties will be evaluated at   0.000000,   0.000000,   0.000000 Bohr
  ==> Properties <==


Properties computed using the SCF density density matrix
  Nuclear Dipole Moment: (a.u.)
     X:     0.1901      Y:     1.2313      Z:  -290.9756

  Electronic Dipole Moment: (a.u.)
     X:    -0.1739      Y:    -1.2358      Z:   291.6328

  Dipole Moment: (a.u.)
     X:     0.0161      Y:    -0.0045      Z:     0.6572     Total:     0.6574

  Dipole Moment: (Debye)
     X:     0.0410      Y:    -0.0115      Z:     1.6705     Total:     1.6711


  Saving occupied orbitals to File 180.

  Saving SAPT 2-MONOMER_B file.

*** tstop() called on pharma.bme.utexas.edu at Sat Jul 12 18:06:58 2014
Module time:
	user time   =     276.38 seconds =       4.61 minutes
	system time =       1.36 seconds =       0.02 minutes
	total time  =         82 seconds =       1.37 minutes
Total time:
	user time   =    1184.56 seconds =      19.74 minutes
	system time =       7.81 seconds =       0.13 minutes
	total time  =        345 seconds =       5.75 minutes
  No DF_BASIS_SAPT auxiliary basis selected, defaulting to aug-cc-pvtz-ri

  //>>>>>>>>>>>>>>>>>>>>>>>>>>>>>>>>>>>//
  //               SAPT2+              //
  //<<<<<<<<<<<<<<<<<<<<<<<<<<<<<<<<<<<//


*** tstart() called on pharma.bme.utexas.edu
*** at Sat Jul 12 18:06:58 2014

        SAPT2+  
    Ed Hohenstein
     6 June 2009

      Orbital Information
  --------------------------
    NSO        =       420
    NMO        =       420
    NRI        =      1160
    NOCC A     =        39
    NOCC B     =        39
    FOCC A     =        19
    FOCC B     =        19
    NVIR A     =       381
    NVIR B     =       381

    Estimated memory usage: 6646.1 MB

    Elst10,r            =    -0.008866312549 H
    Exch10 (S^2)        =     0.017270686439 H
    Exch10              =     0.017436109781 H
    Ind20,r (A<-B)      =    -0.006293637288 H
    Ind20,r (B<-A)      =    -0.003543296025 H
    Ind20,r             =    -0.009836933313 H
    Exch-Ind20,r (A<-B) =     0.005647812636 H
    Exch-Ind20,r (B<-A) =     0.003314133696 H
    Exch-Ind20,r        =     0.008961946332 H
    Disp20              =    -0.014092835931 H
    Exch-Disp20         =     0.001890130946 H
    Elst12,r            =    -0.000388592196 H
    Exch11              =     0.000624989496 H
    Exch12              =     0.000520361547 H
    Ind22               =    -0.000789977322 H
    Disp21              =     0.002694971583 H
    Disp22 (SDQ)        =     0.000120593028 H

    (i =   1 of  20)       3932 seconds
    (i =   2 of  20)       6682 seconds
    (i =   3 of  20)       9103 seconds
    (i =   4 of  20)      11469 seconds
    (i =   5 of  20)      13922 seconds
    (i =   6 of  20)      16308 seconds
    (i =   7 of  20)      18703 seconds
    (i =   8 of  20)      21059 seconds
    (i =   9 of  20)      23436 seconds
    (i =  10 of  20)      25822 seconds
    (i =  11 of  20)      28241 seconds
    (i =  12 of  20)      30629 seconds
    (i =  13 of  20)      33046 seconds
    (i =  14 of  20)      35509 seconds
    (i =  15 of  20)      37875 seconds
    (i =  16 of  20)      40264 seconds
    (i =  17 of  20)      42702 seconds
    (i =  18 of  20)      45163 seconds
    (i =  19 of  20)      47572 seconds
    (i =  20 of  20)      50015 seconds

    Disp220 (T)         =    -0.001136418836 H

    (i =   1 of  20)       2476 seconds
    (i =   2 of  20)       4956 seconds
    (i =   3 of  20)       7398 seconds
    (i =   4 of  20)       9862 seconds
    (i =   5 of  20)      12288 seconds
    (i =   6 of  20)      14748 seconds
    (i =   7 of  20)      17224 seconds
    (i =   8 of  20)      19663 seconds
    (i =   9 of  20)      22114 seconds
    (i =  10 of  20)      24551 seconds
    (i =  11 of  20)      27001 seconds
    (i =  12 of  20)      29492 seconds
    (i =  13 of  20)      31961 seconds
    (i =  14 of  20)      34437 seconds
    (i =  15 of  20)      36880 seconds
    (i =  16 of  20)      39379 seconds
    (i =  17 of  20)      41840 seconds
    (i =  18 of  20)      44312 seconds
    (i =  19 of  20)      46798 seconds
    (i =  20 of  20)      49263 seconds

    Disp202 (T)         =    -0.001201218737 H

    Disp22 (T)          =    -0.002337637573 H

    SAPT Results  
  -----------------------------------------------------------------------
    Electrostatics          -9.25490474 mH      -5.80754065 kcal mol^-1
      Elst10,r              -8.86631255 mH      -5.56369535 kcal mol^-1
      Elst12,r              -0.38859220 mH      -0.24384529 kcal mol^-1

    Exchange                18.58146082 mH      11.66004319 kcal mol^-1
      Exch10                17.43610978 mH      10.94132453 kcal mol^-1
      Exch10(S^2)           17.27068644 mH      10.83751981 kcal mol^-1
      Exch11(S^2)            0.62498950 mH       0.39218685 kcal mol^-1
      Exch12(S^2)            0.52036155 mH       0.32653181 kcal mol^-1

    Induction               -1.99632758 mH      -1.25271452 kcal mol^-1
      Ind20,r               -9.83693331 mH      -6.17276910 kcal mol^-1
      Ind22                 -0.78997732 mH      -0.49571827 kcal mol^-1
      Exch-Ind20,r           8.96194633 mH       5.62370646 kcal mol^-1
      Exch-Ind22             0.71970950 mH       0.45162455 kcal mol^-1
      delta HF,r (2)        -1.05107278 mH      -0.65955815 kcal mol^-1

    Dispersion             -11.72477795 mH      -7.35740955 kcal mol^-1
      Disp20               -14.09283593 mH      -8.84338843 kcal mol^-1
      Disp21                 2.69497158 mH       1.69112027 kcal mol^-1
      Disp22 (SDQ)           0.12059303 mH       0.07567327 kcal mol^-1
      Disp22 (T)            -2.33763757 mH      -1.46688978 kcal mol^-1
      Exch-Disp20            1.89013095 mH       1.18607512 kcal mol^-1

    Total HF                 6.64373747 mH       4.16900838 kcal mol^-1
    Total SAPT0             -5.55896751 mH      -3.48830492 kcal mol^-1
    Total SAPT2             -4.87247648 mH      -3.05752528 kcal mol^-1
    Total SAPT2+            -4.39454945 mH      -2.75762153 kcal mol^-1

*** tstop() called on pharma.bme.utexas.edu at Mon Jul 14 00:29:02 2014
Module time:
	user time   =  394541.20 seconds =    6575.69 minutes
	system time =     371.94 seconds =       6.20 minutes
	total time  =     109324 seconds =    1822.07 minutes
Total time:
	user time   =  395725.77 seconds =    6595.43 minutes
	system time =     379.75 seconds =       6.33 minutes
	total time  =     109669 seconds =    1827.82 minutes

*** PSI4 exiting successfully. Buy a developer a beer!
