
    -----------------------------------------------------------------------
          Psi4: An Open-Source Ab Initio Electronic Structure Package
                               Psi4 1.4a2.dev224 

                         Git: Rev {master} e453b16 


    R. M. Parrish, L. A. Burns, D. G. A. Smith, A. C. Simmonett,
    A. E. DePrince III, E. G. Hohenstein, U. Bozkaya, A. Yu. Sokolov,
    R. Di Remigio, R. M. Richard, J. F. Gonthier, A. M. James,
    H. R. McAlexander, A. Kumar, M. Saitow, X. Wang, B. P. Pritchard,
    P. Verma, H. F. Schaefer III, K. Patkowski, R. A. King, E. F. Valeev,
    F. A. Evangelista, J. M. Turney, T. D. Crawford, and C. D. Sherrill,
    J. Chem. Theory Comput. 13(7) pp 3185--3197 (2017).
    (doi: 10.1021/acs.jctc.7b00174)


                         Additional Contributions by
    P. Kraus, H. Kruse, M. H. Lechner, M. C. Schieber, R. A. Shaw,
    A. Alenaizan, R. Galvelis, Z. L. Glick, S. Lehtola, and J. P. Misiewicz

    -----------------------------------------------------------------------


    Psi4 started on: Thursday, 23 April 2020 11:13PM

    Process ID: 47471
    Host:       genome.bme.utexas.edu
    PSIDATADIR: /home/liuchw/anaconda3/envs/psi4env/share/psi4
    Memory:     500.0 MiB
    Threads:    8
    
  ==> Input File <==

--------------------------------------------------------------------------
#Generated by lconvert.py for sapt job

memory 50 GB

molecule  {
1 1
  C      -3.719510   -0.009370    0.031830
  C      -2.658060   -0.870710    0.104480
  N      -1.521490   -0.112430    0.004910
  C      -1.848690    1.171980   -0.125030
  N      -3.184320    1.244970   -0.109770
  H      -3.709720    2.103600   -0.191360
  H      -0.549000   -0.468430    0.025750
  H      -4.778050   -0.186570    0.068730
  H      -2.630340   -1.938370    0.216690
  H      -1.167960    1.997300   -0.223840
--
0 1
  O       1.546840   -1.175410    0.064350
  H       2.096070   -1.330570    0.837780
  H       2.070180   -1.490450   -0.677810
units angstrom
no_reorient
symmetry c1
}

set {
scf_type DF
basis aug-cc-pvtz
freeze_core True
guess SAD
}
energy('sapt2+')
--------------------------------------------------------------------------

  Memory set to  46.566 GiB by Python driver.

Scratch directory: /scratch/liuchw/

  //>>>>>>>>>>>>>>>>>>>>>>>>>>>>>>>>>>>//
  //              Dimer HF             //
  //<<<<<<<<<<<<<<<<<<<<<<<<<<<<<<<<<<<//


*** tstart() called on genome.bme.utexas.edu
*** at Thu Apr 23 23:13:44 2020

   => Loading Basis Set <=

    Name: AUG-CC-PVTZ
    Role: ORBITAL
    Keyword: BASIS
    atoms 1-2, 4      entry C          line   239 file /home/liuchw/anaconda3/envs/psi4env/share/psi4/basis/aug-cc-pvtz.gbs 
    atoms 3, 5        entry N          line   285 file /home/liuchw/anaconda3/envs/psi4env/share/psi4/basis/aug-cc-pvtz.gbs 
    atoms 6-10, 12-13 entry H          line    40 file /home/liuchw/anaconda3/envs/psi4env/share/psi4/basis/aug-cc-pvtz.gbs 
    atoms 11          entry O          line   331 file /home/liuchw/anaconda3/envs/psi4env/share/psi4/basis/aug-cc-pvtz.gbs 


         ---------------------------------------------------------
                                   SCF
               by Justin Turney, Rob Parrish, Andy Simmonett
                          and Daniel G. A. Smith
                              RHF Reference
                        8 Threads,  47683 MiB Core
         ---------------------------------------------------------

  ==> Geometry <==

    Molecular point group: c1
    Full point group: C1

    Geometry (in Angstrom), charge = 1, multiplicity = 1:

       Center              X                  Y                   Z               Mass       
    ------------   -----------------  -----------------  -----------------  -----------------
         C           -2.012490581087    -0.000611147287     0.034671301148    12.000000000000
         C           -0.951040581087    -0.861951147287     0.107321301148    12.000000000000
         N            0.185529418913    -0.103671147287     0.007751301148    14.003074004430
         C           -0.141670581087     1.180738852713    -0.122188698852    12.000000000000
         N           -1.477300581087     1.253728852713    -0.106928698852    14.003074004430
         H           -2.002700581087     2.112358852713    -0.188518698852     1.007825032230
         H            1.158019418913    -0.459671147287     0.028591301148     1.007825032230
         H           -3.071030581087    -0.177811147287     0.071571301148     1.007825032230
         H           -0.923320581087    -1.929611147287     0.219531301148     1.007825032230
         H            0.539059418913     2.006058852713    -0.220998698852     1.007825032230
         O            3.253859418913    -1.166651147287     0.067191301148    15.994914619570
         H            3.803089418913    -1.321811147287     0.840621301148     1.007825032230
         H            3.777199418913    -1.481691147287    -0.674968698852     1.007825032230

  Running in c1 symmetry.

  Rotational constants: A =      0.30723  B =      0.04967  C =      0.04302 [cm^-1]
  Rotational constants: A =   9210.38884  B =   1489.17345  C =   1289.56799 [MHz]
  Nuclear repulsion =  227.198089184163450

  Charge       = 1
  Multiplicity = 1
  Electrons    = 46
  Nalpha       = 23
  Nbeta        = 23

  ==> Algorithm <==

  SCF Algorithm Type is DF.
  DIIS enabled.
  MOM disabled.
  Fractional occupation disabled.
  Guess Type is SAD.
  Energy threshold   = 1.00e-08
  Density threshold  = 1.00e-08
  Integral threshold = 0.00e+00

  ==> Primary Basis <==

  Basis Set: AUG-CC-PVTZ
    Blend: AUG-CC-PVTZ
    Number of shells: 147
    Number of basis function: 437
    Number of Cartesian functions: 505
    Spherical Harmonics?: true
    Max angular momentum: 3

   => Loading Basis Set <=

    Name: (AUG-CC-PVTZ AUX)
    Role: JKFIT
    Keyword: DF_BASIS_SCF
    atoms 1-2, 4      entry C          line   162 file /home/liuchw/anaconda3/envs/psi4env/share/psi4/basis/aug-cc-pvtz-jkfit.gbs 
    atoms 3, 5        entry N          line   224 file /home/liuchw/anaconda3/envs/psi4env/share/psi4/basis/aug-cc-pvtz-jkfit.gbs 
    atoms 6-10, 12-13 entry H          line    70 file /home/liuchw/anaconda3/envs/psi4env/share/psi4/basis/aug-cc-pvtz-jkfit.gbs 
    atoms 11          entry O          line   286 file /home/liuchw/anaconda3/envs/psi4env/share/psi4/basis/aug-cc-pvtz-jkfit.gbs 

  ==> Pre-Iterations <==

   -------------------------------------------------------
    Irrep   Nso     Nmo     Nalpha   Nbeta   Ndocc  Nsocc
   -------------------------------------------------------
     A        437     437       0       0       0       0
   -------------------------------------------------------
    Total     437     437      23      23      23       0
   -------------------------------------------------------

  ==> Integral Setup <==

  ==> DiskDFJK: Density-Fitted J/K Matrices <==

    J tasked:                  Yes
    K tasked:                  Yes
    wK tasked:                  No
    OpenMP threads:              8
    Integrals threads:           8
    Memory [MiB]:            35762
    Algorithm:                Core
    Integral Cache:           SAVE
    Schwarz Cutoff:          1E-12
    Fitting Condition:       1E-10

   => Auxiliary Basis Set <=

  Basis Set: (AUG-CC-PVTZ AUX)
    Blend: AUG-CC-PVTZ-JKFIT
    Number of shells: 278
    Number of basis function: 946
    Number of Cartesian functions: 1171
    Spherical Harmonics?: true
    Max angular momentum: 4

  Minimum eigenvalue in the overlap matrix is 4.0492053013E-06.
  Using Symmetric Orthogonalization.

  SCF Guess: Superposition of Atomic Densities via on-the-fly atomic UHF.

  ==> Iterations <==

                           Total Energy        Delta E     RMS |[F,P]|

   @DF-RHF iter SAD:  -300.92213653997459   -3.00922e+02   0.00000e+00 
   @DF-RHF iter   1:  -301.18673608827493   -2.64600e-01   1.37389e-03 DIIS
   @DF-RHF iter   2:  -301.31734179127994   -1.30606e-01   7.64982e-04 DIIS
   @DF-RHF iter   3:  -301.35584171115585   -3.84999e-02   1.19390e-04 DIIS
   @DF-RHF iter   4:  -301.35764161300978   -1.79990e-03   2.62186e-05 DIIS
   @DF-RHF iter   5:  -301.35772409110643   -8.24781e-05   8.16322e-06 DIIS
   @DF-RHF iter   6:  -301.35773685394417   -1.27628e-05   2.92258e-06 DIIS
   @DF-RHF iter   7:  -301.35773943241225   -2.57847e-06   1.38455e-06 DIIS
   @DF-RHF iter   8:  -301.35774005753336   -6.25121e-07   6.63277e-07 DIIS
   @DF-RHF iter   9:  -301.35774019924781   -1.41714e-07   1.73364e-07 DIIS
   @DF-RHF iter  10:  -301.35774020815012   -8.90230e-09   6.32943e-08 DIIS
   @DF-RHF iter  11:  -301.35774020881632   -6.66205e-10   1.55654e-08 DIIS
   @DF-RHF iter  12:  -301.35774020887453   -5.82077e-11   2.83280e-09 DIIS
  Energy and wave function converged.


  ==> Post-Iterations <==

    Orbital Energies [Eh]
    ---------------------

    Doubly Occupied:                                                      

       1A    -20.706755     2A    -15.836421     3A    -15.831629  
       4A    -11.535243     5A    -11.461334     6A    -11.459222  
       7A     -1.580450     8A     -1.491288     9A     -1.417036  
      10A     -1.231522    11A     -1.079635    12A     -1.032404  
      13A     -0.979218    14A     -0.880176    15A     -0.855470  
      16A     -0.827644    17A     -0.820907    18A     -0.804324  
      19A     -0.790468    20A     -0.730858    21A     -0.651614  
      22A     -0.650596    23A     -0.528990  

    Virtual:                                                              

      24A     -0.087395    25A     -0.071302    26A     -0.064922  
      27A     -0.064232    28A     -0.048736    29A     -0.043759  
      30A     -0.043520    31A     -0.034646    32A     -0.027799  
      33A     -0.018067    34A     -0.012904    35A     -0.002851  
      36A      0.000817    37A      0.005313    38A      0.009565  
      39A      0.019823    40A      0.019832    41A      0.024235  
      42A      0.032896    43A      0.048159    44A      0.049496  
      45A      0.057009    46A      0.059479    47A      0.060165  
      48A      0.077076    49A      0.088077    50A      0.091354  
      51A      0.096374    52A      0.106356    53A      0.109830  
      54A      0.116334    55A      0.119213    56A      0.145610  
      57A      0.152093    58A      0.157685    59A      0.165590  
      60A      0.168086    61A      0.175996    62A      0.177368  
      63A      0.178905    64A      0.184364    65A      0.194367  
      66A      0.197092    67A      0.204794    68A      0.208171  
      69A      0.211140    70A      0.228263    71A      0.233617  
      72A      0.240962    73A      0.250996    74A      0.258330  
      75A      0.261293    76A      0.270104    77A      0.274985  
      78A      0.277525    79A      0.282616    80A      0.285983  
      81A      0.289602    82A      0.307713    83A      0.320536  
      84A      0.326321    85A      0.334715    86A      0.337445  
      87A      0.341215    88A      0.346048    89A      0.353281  
      90A      0.354026    91A      0.358671    92A      0.359920  
      93A      0.365985    94A      0.380842    95A      0.398394  
      96A      0.402084    97A      0.410523    98A      0.439798  
      99A      0.449599   100A      0.456614   101A      0.467916  
     102A      0.475862   103A      0.484582   104A      0.498113  
     105A      0.502655   106A      0.515037   107A      0.526648  
     108A      0.544285   109A      0.551720   110A      0.555966  
     111A      0.576525   112A      0.577897   113A      0.599563  
     114A      0.600895   115A      0.604506   116A      0.617500  
     117A      0.629086   118A      0.638014   119A      0.651499  
     120A      0.665040   121A      0.674113   122A      0.680722  
     123A      0.699898   124A      0.702462   125A      0.721169  
     126A      0.723945   127A      0.742274   128A      0.748661  
     129A      0.759101   130A      0.763239   131A      0.764534  
     132A      0.775105   133A      0.777378   134A      0.784631  
     135A      0.793225   136A      0.814673   137A      0.815005  
     138A      0.819529   139A      0.825660   140A      0.839642  
     141A      0.851374   142A      0.851710   143A      0.866418  
     144A      0.876781   145A      0.877432   146A      0.882827  
     147A      0.897002   148A      0.903515   149A      0.908921  
     150A      0.913021   151A      0.924648   152A      0.930032  
     153A      0.944444   154A      0.946716   155A      0.956462  
     156A      0.975846   157A      0.979703   158A      0.986732  
     159A      0.996402   160A      1.011654   161A      1.017723  
     162A      1.025131   163A      1.028926   164A      1.030031  
     165A      1.041646   166A      1.050490   167A      1.067832  
     168A      1.079059   169A      1.079261   170A      1.092199  
     171A      1.093375   172A      1.103682   173A      1.116452  
     174A      1.149793   175A      1.157921   176A      1.157967  
     177A      1.169031   178A      1.188134   179A      1.209293  
     180A      1.218702   181A      1.231396   182A      1.237534  
     183A      1.260575   184A      1.269662   185A      1.278845  
     186A      1.284932   187A      1.293903   188A      1.302480  
     189A      1.328275   190A      1.331226   191A      1.346785  
     192A      1.364370   193A      1.372410   194A      1.373602  
     195A      1.376143   196A      1.393264   197A      1.404943  
     198A      1.439279   199A      1.441716   200A      1.478080  
     201A      1.502280   202A      1.506204   203A      1.518839  
     204A      1.537061   205A      1.537117   206A      1.555326  
     207A      1.577942   208A      1.592822   209A      1.611386  
     210A      1.614307   211A      1.639185   212A      1.664699  
     213A      1.676942   214A      1.700095   215A      1.708314  
     216A      1.718736   217A      1.758830   218A      1.758910  
     219A      1.782350   220A      1.805289   221A      1.826052  
     222A      1.832109   223A      1.843806   224A      1.859589  
     225A      1.884907   226A      1.886577   227A      1.921407  
     228A      1.942363   229A      1.955957   230A      1.969430  
     231A      1.992075   232A      1.998804   233A      2.010386  
     234A      2.019688   235A      2.080143   236A      2.083037  
     237A      2.084736   238A      2.121247   239A      2.147083  
     240A      2.164878   241A      2.168859   242A      2.190746  
     243A      2.194390   244A      2.215261   245A      2.226801  
     246A      2.235314   247A      2.252880   248A      2.286296  
     249A      2.295796   250A      2.317860   251A      2.329791  
     252A      2.343736   253A      2.352546   254A      2.379228  
     255A      2.389727   256A      2.420913   257A      2.429891  
     258A      2.453669   259A      2.481477   260A      2.525398  
     261A      2.535517   262A      2.558144   263A      2.605416  
     264A      2.607243   265A      2.659132   266A      2.662167  
     267A      2.681485   268A      2.719873   269A      2.737018  
     270A      2.753356   271A      2.768369   272A      2.792315  
     273A      2.822904   274A      2.843861   275A      2.869459  
     276A      2.913740   277A      2.948568   278A      2.960210  
     279A      2.996384   280A      3.028590   281A      3.100199  
     282A      3.137765   283A      3.173034   284A      3.213509  
     285A      3.260798   286A      3.273910   287A      3.315164  
     288A      3.335769   289A      3.337801   290A      3.367867  
     291A      3.416402   292A      3.426303   293A      3.494828  
     294A      3.501132   295A      3.522749   296A      3.550814  
     297A      3.563520   298A      3.573700   299A      3.593166  
     300A      3.630993   301A      3.636132   302A      3.641412  
     303A      3.665388   304A      3.680818   305A      3.688867  
     306A      3.690888   307A      3.711255   308A      3.780962  
     309A      3.816325   310A      3.839727   311A      3.873496  
     312A      3.892513   313A      3.892916   314A      3.943410  
     315A      3.946226   316A      3.950302   317A      3.966957  
     318A      3.980398   319A      3.987831   320A      4.001247  
     321A      4.043194   322A      4.052130   323A      4.063140  
     324A      4.075453   325A      4.095275   326A      4.110406  
     327A      4.114107   328A      4.162284   329A      4.174553  
     330A      4.200411   331A      4.211044   332A      4.213793  
     333A      4.224065   334A      4.229910   335A      4.254313  
     336A      4.293201   337A      4.313888   338A      4.319465  
     339A      4.362143   340A      4.384240   341A      4.419408  
     342A      4.431778   343A      4.446090   344A      4.449303  
     345A      4.476904   346A      4.488139   347A      4.515296  
     348A      4.556756   349A      4.578964   350A      4.598019  
     351A      4.628521   352A      4.638447   353A      4.714468  
     354A      4.718111   355A      4.731735   356A      4.755652  
     357A      4.763269   358A      4.770135   359A      4.811351  
     360A      4.850255   361A      4.868424   362A      4.873758  
     363A      4.921236   364A      4.968721   365A      5.009693  
     366A      5.022635   367A      5.023334   368A      5.038015  
     369A      5.084248   370A      5.091272   371A      5.150375  
     372A      5.152617   373A      5.204325   374A      5.217214  
     375A      5.247200   376A      5.274420   377A      5.304790  
     378A      5.362647   379A      5.386961   380A      5.400509  
     381A      5.413768   382A      5.432566   383A      5.435709  
     384A      5.501446   385A      5.515533   386A      5.532481  
     387A      5.579908   388A      5.593336   389A      5.623671  
     390A      5.651393   391A      5.656481   392A      5.723833  
     393A      5.738344   394A      5.782607   395A      5.828067  
     396A      5.854716   397A      5.867896   398A      5.943453  
     399A      6.007620   400A      6.058433   401A      6.078550  
     402A      6.110677   403A      6.135164   404A      6.217522  
     405A      6.316235   406A      6.376927   407A      6.431379  
     408A      6.457955   409A      6.517915   410A      6.571265  
     411A      6.606931   412A      6.681680   413A      6.690086  
     414A      6.800040   415A      6.861333   416A      6.920510  
     417A      6.936706   418A      7.009446   419A      7.037642  
     420A      7.172686   421A      7.191544   422A      7.229949  
     423A      7.232420   424A      7.387735   425A      7.472284  
     426A      7.575850   427A      7.660425   428A      7.705403  
     429A      7.780577   430A      7.809009   431A      8.698490  
     432A     15.950116   433A     16.443539   434A     16.943404  
     435A     18.413668   436A     18.658228   437A     19.254443  

    Final Occupation by Irrep:
              A 
    DOCC [    23 ]

  @DF-RHF Final Energy:  -301.35774020887453

   => Energetics <=

    Nuclear Repulsion Energy =            227.1980891841634502
    One-Electron Energy =                -850.7452481785682039
    Two-Electron Energy =                 322.1894187855302221
    Total Energy =                       -301.3577402088745316

Computation Completed


Properties will be evaluated at   0.000000,   0.000000,   0.000000 [a0]

Properties computed using the SCF density matrix

  Nuclear Dipole Moment: [e a0]
     X:     3.0946      Y:    -1.1828      Z:     0.0717

  Electronic Dipole Moment: [e a0]
     X:    -3.1912      Y:     1.8243      Z:    -0.1377

  Dipole Moment: [e a0]
     X:    -0.0966      Y:     0.6415      Z:    -0.0660     Total:     0.6521

  Dipole Moment: [D]
     X:    -0.2455      Y:     1.6306      Z:    -0.1678     Total:     1.6575


*** tstop() called on genome.bme.utexas.edu at Thu Apr 23 23:14:11 2020
Module time:
	user time   =     189.36 seconds =       3.16 minutes
	system time =       4.23 seconds =       0.07 minutes
	total time  =         27 seconds =       0.45 minutes
Total time:
	user time   =     189.36 seconds =       3.16 minutes
	system time =       4.23 seconds =       0.07 minutes
	total time  =         27 seconds =       0.45 minutes

  //>>>>>>>>>>>>>>>>>>>>>>>>>>>>>>>>>>>//
  //            Monomer A HF           //
  //<<<<<<<<<<<<<<<<<<<<<<<<<<<<<<<<<<<//


*** tstart() called on genome.bme.utexas.edu
*** at Thu Apr 23 23:14:11 2020

   => Loading Basis Set <=

    Name: AUG-CC-PVTZ
    Role: ORBITAL
    Keyword: BASIS
    atoms 1-2, 4      entry C          line   239 file /home/liuchw/anaconda3/envs/psi4env/share/psi4/basis/aug-cc-pvtz.gbs 
    atoms 3, 5        entry N          line   285 file /home/liuchw/anaconda3/envs/psi4env/share/psi4/basis/aug-cc-pvtz.gbs 
    atoms 6-10, 12-13 entry H          line    40 file /home/liuchw/anaconda3/envs/psi4env/share/psi4/basis/aug-cc-pvtz.gbs 
    atoms 11          entry O          line   331 file /home/liuchw/anaconda3/envs/psi4env/share/psi4/basis/aug-cc-pvtz.gbs 


         ---------------------------------------------------------
                                   SCF
               by Justin Turney, Rob Parrish, Andy Simmonett
                          and Daniel G. A. Smith
                              RHF Reference
                        8 Threads,  47683 MiB Core
         ---------------------------------------------------------

  ==> Geometry <==

    Molecular point group: c1
    Full point group: C1

    Geometry (in Angstrom), charge = 1, multiplicity = 1:

       Center              X                  Y                   Z               Mass       
    ------------   -----------------  -----------------  -----------------  -----------------
         C           -2.012490581087    -0.000611147287     0.034671301148    12.000000000000
         C           -0.951040581087    -0.861951147287     0.107321301148    12.000000000000
         N            0.185529418913    -0.103671147287     0.007751301148    14.003074004430
         C           -0.141670581087     1.180738852713    -0.122188698852    12.000000000000
         N           -1.477300581087     1.253728852713    -0.106928698852    14.003074004430
         H           -2.002700581087     2.112358852713    -0.188518698852     1.007825032230
         H            1.158019418913    -0.459671147287     0.028591301148     1.007825032230
         H           -3.071030581087    -0.177811147287     0.071571301148     1.007825032230
         H           -0.923320581087    -1.929611147287     0.219531301148     1.007825032230
         H            0.539059418913     2.006058852713    -0.220998698852     1.007825032230
      Gh(O)           3.253859418913    -1.166651147287     0.067191301148    15.994914619570
      Gh(H)           3.803089418913    -1.321811147287     0.840621301148     1.007825032230
      Gh(H)           3.777199418913    -1.481691147287    -0.674968698852     1.007825032230

  Running in c1 symmetry.

  Rotational constants: A =      0.30723  B =      0.04967  C =      0.04302 [cm^-1]
  Rotational constants: A =   9210.38884  B =   1489.17345  C =   1289.56799 [MHz]
  Nuclear repulsion =  173.244336091067964

  Charge       = 1
  Multiplicity = 1
  Electrons    = 36
  Nalpha       = 18
  Nbeta        = 18

  ==> Algorithm <==

  SCF Algorithm Type is DF.
  DIIS enabled.
  MOM disabled.
  Fractional occupation disabled.
  Guess Type is SAD.
  Energy threshold   = 1.00e-08
  Density threshold  = 1.00e-08
  Integral threshold = 0.00e+00

  ==> Primary Basis <==

  Basis Set: AUG-CC-PVTZ
    Blend: AUG-CC-PVTZ
    Number of shells: 147
    Number of basis function: 437
    Number of Cartesian functions: 505
    Spherical Harmonics?: true
    Max angular momentum: 3

   => Loading Basis Set <=

    Name: (AUG-CC-PVTZ AUX)
    Role: JKFIT
    Keyword: DF_BASIS_SCF
    atoms 1-2, 4      entry C          line   162 file /home/liuchw/anaconda3/envs/psi4env/share/psi4/basis/aug-cc-pvtz-jkfit.gbs 
    atoms 3, 5        entry N          line   224 file /home/liuchw/anaconda3/envs/psi4env/share/psi4/basis/aug-cc-pvtz-jkfit.gbs 
    atoms 6-10, 12-13 entry H          line    70 file /home/liuchw/anaconda3/envs/psi4env/share/psi4/basis/aug-cc-pvtz-jkfit.gbs 
    atoms 11          entry O          line   286 file /home/liuchw/anaconda3/envs/psi4env/share/psi4/basis/aug-cc-pvtz-jkfit.gbs 

  ==> Pre-Iterations <==

   -------------------------------------------------------
    Irrep   Nso     Nmo     Nalpha   Nbeta   Ndocc  Nsocc
   -------------------------------------------------------
     A        437     437       0       0       0       0
   -------------------------------------------------------
    Total     437     437      18      18      18       0
   -------------------------------------------------------

  ==> Integral Setup <==

  ==> DiskDFJK: Density-Fitted J/K Matrices <==

    J tasked:                  Yes
    K tasked:                  Yes
    wK tasked:                  No
    OpenMP threads:              8
    Integrals threads:           8
    Memory [MiB]:            35762
    Algorithm:                Core
    Integral Cache:           LOAD
    Schwarz Cutoff:          1E-12
    Fitting Condition:       1E-10

   => Auxiliary Basis Set <=

  Basis Set: (AUG-CC-PVTZ AUX)
    Blend: AUG-CC-PVTZ-JKFIT
    Number of shells: 278
    Number of basis function: 946
    Number of Cartesian functions: 1171
    Spherical Harmonics?: true
    Max angular momentum: 4

  Minimum eigenvalue in the overlap matrix is 4.0492053013E-06.
  Using Symmetric Orthogonalization.

  SCF Guess: Superposition of Atomic Densities via on-the-fly atomic UHF.

  ==> Iterations <==

                           Total Energy        Delta E     RMS |[F,P]|

   @DF-RHF iter SAD:  -225.40389332135521   -2.25404e+02   0.00000e+00 
   @DF-RHF iter   1:  -225.17622106255945    2.27672e-01   9.43100e-04 DIIS
   @DF-RHF iter   2:  -225.26220774501292   -8.59867e-02   3.94813e-04 DIIS
   @DF-RHF iter   3:  -225.27587949834876   -1.36718e-02   1.13976e-04 DIIS
   @DF-RHF iter   4:  -225.27734226122951   -1.46276e-03   2.07412e-05 DIIS
   @DF-RHF iter   5:  -225.27740081471759   -5.85535e-05   7.79514e-06 DIIS
   @DF-RHF iter   6:  -225.27741185147184   -1.10368e-05   2.70233e-06 DIIS
   @DF-RHF iter   7:  -225.27741476112337   -2.90965e-06   1.23622e-06 DIIS
   @DF-RHF iter   8:  -225.27741527830537   -5.17182e-07   4.89375e-07 DIIS
   @DF-RHF iter   9:  -225.27741533938877   -6.10834e-08   9.32398e-08 DIIS
   @DF-RHF iter  10:  -225.27741534104467   -1.65591e-09   3.68371e-08 DIIS
   @DF-RHF iter  11:  -225.27741534118780   -1.43132e-10   7.38793e-09 DIIS
  Energy and wave function converged.


  ==> Post-Iterations <==

    Orbital Energies [Eh]
    ---------------------

    Doubly Occupied:                                                      

       1A    -15.854245     2A    -15.851274     3A    -11.552182  
       4A    -11.475795     5A    -11.474217     6A     -1.597371  
       7A     -1.434702     8A     -1.247070     9A     -1.097556  
      10A     -1.048623    11A     -0.994345    12A     -0.898304  
      13A     -0.844272    14A     -0.836608    15A     -0.818864  
      16A     -0.804889    17A     -0.668374    18A     -0.543464  

    Virtual:                                                              

      19A     -0.097881    20A     -0.081812    21A     -0.076306  
      22A     -0.070934    23A     -0.053266    24A     -0.051521  
      25A     -0.051293    26A     -0.039026    27A     -0.035414  
      28A     -0.022972    29A     -0.022643    30A     -0.009991  
      31A     -0.009902    32A     -0.002108    33A      0.000175  
      34A      0.013106    35A      0.014351    36A      0.018943  
      37A      0.024474    38A      0.031385    39A      0.043274  
      40A      0.044766    41A      0.052126    42A      0.052314  
      43A      0.058915    44A      0.076250    45A      0.085755  
      46A      0.087799    47A      0.095236    48A      0.103391  
      49A      0.108744    50A      0.121545    51A      0.136212  
      52A      0.140579    53A      0.151877    54A      0.165554  
      55A      0.167532    56A      0.173503    57A      0.173995  
      58A      0.183373    59A      0.186799    60A      0.188511  
      61A      0.192149    62A      0.197682    63A      0.197903  
      64A      0.209187    65A      0.218333    66A      0.230617  
      67A      0.236393    68A      0.239409    69A      0.250517  
      70A      0.252294    71A      0.259522    72A      0.263976  
      73A      0.265267    74A      0.272608    75A      0.283880  
      76A      0.288561    77A      0.289835    78A      0.294584  
      79A      0.316511    80A      0.318297    81A      0.320282  
      82A      0.333492    83A      0.336039    84A      0.343319  
      85A      0.346398    86A      0.353602    87A      0.354097  
      88A      0.356261    89A      0.362727    90A      0.372829  
      91A      0.384295    92A      0.401551    93A      0.434340  
      94A      0.435065    95A      0.439551    96A      0.450477  
      97A      0.457909    98A      0.468856    99A      0.485628  
     100A      0.486256   101A      0.493101   102A      0.528536  
     103A      0.540290   104A      0.540479   105A      0.565371  
     106A      0.566582   107A      0.580552   108A      0.589721  
     109A      0.607474   110A      0.616111   111A      0.620313  
     112A      0.644970   113A      0.649552   114A      0.667405  
     115A      0.668850   116A      0.671749   117A      0.682017  
     118A      0.687667   119A      0.699273   120A      0.711489  
     121A      0.717744   122A      0.734561   123A      0.749033  
     124A      0.750159   125A      0.756699   126A      0.765501  
     127A      0.766107   128A      0.767542   129A      0.780822  
     130A      0.784017   131A      0.799588   132A      0.806426  
     133A      0.808618   134A      0.811044   135A      0.814987  
     136A      0.833005   137A      0.837341   138A      0.850540  
     139A      0.870041   140A      0.875839   141A      0.879307  
     142A      0.886676   143A      0.890218   144A      0.904899  
     145A      0.911501   146A      0.914520   147A      0.919327  
     148A      0.936932   149A      0.938062   150A      0.951016  
     151A      0.956037   152A      0.963333   153A      0.973477  
     154A      0.985221   155A      0.996500   156A      1.012599  
     157A      1.013052   158A      1.017976   159A      1.022996  
     160A      1.036556   161A      1.036615   162A      1.057894  
     163A      1.067368   164A      1.079742   165A      1.093667  
     166A      1.098701   167A      1.113796   168A      1.117654  
     169A      1.137820   170A      1.149414   171A      1.157618  
     172A      1.180758   173A      1.183703   174A      1.190467  
     175A      1.219063   176A      1.230503   177A      1.237450  
     178A      1.255805   179A      1.263704   180A      1.264331  
     181A      1.278984   182A      1.281332   183A      1.294204  
     184A      1.314550   185A      1.331161   186A      1.338307  
     187A      1.348829   188A      1.353455   189A      1.362399  
     190A      1.370789   191A      1.379286   192A      1.407717  
     193A      1.420015   194A      1.433894   195A      1.479866  
     196A      1.492516   197A      1.493011   198A      1.516306  
     199A      1.541411   200A      1.558424   201A      1.582692  
     202A      1.586925   203A      1.600587   204A      1.626783  
     205A      1.626938   206A      1.639274   207A      1.662312  
     208A      1.664206   209A      1.685660   210A      1.694175  
     211A      1.702481   212A      1.714615   213A      1.736113  
     214A      1.770666   215A      1.772714   216A      1.785547  
     217A      1.815607   218A      1.819216   219A      1.824728  
     220A      1.848568   221A      1.899192   222A      1.917461  
     223A      1.919013   224A      1.942094   225A      1.945687  
     226A      1.963378   227A      1.986253   228A      1.999978  
     229A      2.007389   230A      2.067804   231A      2.070812  
     232A      2.071018   233A      2.113313   234A      2.117215  
     235A      2.153912   236A      2.165597   237A      2.186925  
     238A      2.209402   239A      2.213378   240A      2.236460  
     241A      2.271287   242A      2.283108   243A      2.301158  
     244A      2.301508   245A      2.312921   246A      2.335944  
     247A      2.353993   248A      2.376589   249A      2.386499  
     250A      2.397093   251A      2.433670   252A      2.456255  
     253A      2.481853   254A      2.495022   255A      2.522390  
     256A      2.528415   257A      2.567354   258A      2.610478  
     259A      2.648202   260A      2.669006   261A      2.713917  
     262A      2.718899   263A      2.740286   264A      2.766436  
     265A      2.806280   266A      2.827559   267A      2.853983  
     268A      2.897912   269A      2.937229   270A      2.947741  
     271A      2.982671   272A      3.058979   273A      3.067816  
     274A      3.085151   275A      3.102007   276A      3.123279  
     277A      3.152241   278A      3.181329   279A      3.188918  
     280A      3.192618   281A      3.246210   282A      3.254288  
     283A      3.279722   284A      3.317067   285A      3.324135  
     286A      3.341025   287A      3.353784   288A      3.403170  
     289A      3.409765   290A      3.473980   291A      3.483422  
     292A      3.496882   293A      3.536879   294A      3.548639  
     295A      3.549497   296A      3.556788   297A      3.565605  
     298A      3.584694   299A      3.617359   300A      3.630005  
     301A      3.658706   302A      3.669139   303A      3.680398  
     304A      3.692232   305A      3.764579   306A      3.779514  
     307A      3.824920   308A      3.862035   309A      3.894934  
     310A      3.926434   311A      3.931922   312A      3.936267  
     313A      3.950449   314A      3.965399   315A      3.978668  
     316A      3.987601   317A      4.032704   318A      4.047656  
     319A      4.060900   320A      4.085507   321A      4.092800  
     322A      4.097258   323A      4.156501   324A      4.192138  
     325A      4.202115   326A      4.207385   327A      4.228266  
     328A      4.239161   329A      4.279123   330A      4.287566  
     331A      4.345885   332A      4.365866   333A      4.375916  
     334A      4.402939   335A      4.435033   336A      4.451000  
     337A      4.462947   338A      4.473261   339A      4.535460  
     340A      4.551197   341A      4.572753   342A      4.607728  
     343A      4.613456   344A      4.619401   345A      4.671131  
     346A      4.693700   347A      4.696940   348A      4.732813  
     349A      4.737511   350A      4.756566   351A      4.790134  
     352A      4.804361   353A      4.822375   354A      4.836547  
     355A      4.855623   356A      4.856469   357A      4.906184  
     358A      4.931147   359A      4.954325   360A      5.009263  
     361A      5.024308   362A      5.068948   363A      5.076667  
     364A      5.084274   365A      5.133185   366A      5.191427  
     367A      5.209732   368A      5.248477   369A      5.283282  
     370A      5.342170   371A      5.357395   372A      5.391082  
     373A      5.405995   374A      5.409966   375A      5.449918  
     376A      5.475142   377A      5.493797   378A      5.514102  
     379A      5.534957   380A      5.540413   381A      5.570581  
     382A      5.579122   383A      5.605828   384A      5.636240  
     385A      5.638521   386A      5.707289   387A      5.711464  
     388A      5.771067   389A      5.806834   390A      5.844209  
     391A      5.850215   392A      5.926359   393A      5.987875  
     394A      6.047254   395A      6.047355   396A      6.063512  
     397A      6.093725   398A      6.199502   399A      6.294565  
     400A      6.339880   401A      6.385477   402A      6.415752  
     403A      6.515039   404A      6.549264   405A      6.581226  
     406A      6.627872   407A      6.687893   408A      6.787238  
     409A      6.842974   410A      6.903601   411A      6.955644  
     412A      6.979083   413A      7.455098   414A      7.608758  
     415A      7.636724   416A      7.671027   417A      7.869634  
     418A      7.934732   419A      8.054457   420A      8.132772  
     421A      8.692347   422A      8.694707   423A      9.756395  
     424A      9.818254   425A      9.852614   426A     10.130762  
     427A     11.098078   428A     11.540702   429A     12.166977  
     430A     13.420896   431A     13.696957   432A     16.397190  
     433A     16.886452   434A     18.400039   435A     18.628243  
     436A     19.236053   437A     65.390618  

    Final Occupation by Irrep:
              A 
    DOCC [    18 ]

  @DF-RHF Final Energy:  -225.27741534118780

   => Energetics <=

    Nuclear Repulsion Energy =            173.2443360910679644
    One-Electron Energy =                -638.9591875077287568
    Two-Electron Energy =                 240.4374360754729878
    Total Energy =                       -225.2774153411878046

Computation Completed


Properties will be evaluated at   0.000000,   0.000000,   0.000000 [a0]

Properties computed using the SCF density matrix

  Nuclear Dipole Moment: [e a0]
     X:   -60.4213      Y:    21.7522      Z:    -1.2571

  Electronic Dipole Moment: [e a0]
     X:    59.2373      Y:   -20.6584      Z:     1.1620

  Dipole Moment: [e a0]
     X:    -1.1840      Y:     1.0938      Z:    -0.0951     Total:     1.6147

  Dipole Moment: [D]
     X:    -3.0094      Y:     2.7802      Z:    -0.2417     Total:     4.1042


*** tstop() called on genome.bme.utexas.edu at Thu Apr 23 23:14:28 2020
Module time:
	user time   =     116.15 seconds =       1.94 minutes
	system time =       2.53 seconds =       0.04 minutes
	total time  =         17 seconds =       0.28 minutes
Total time:
	user time   =     305.57 seconds =       5.09 minutes
	system time =       6.76 seconds =       0.11 minutes
	total time  =         44 seconds =       0.73 minutes

  //>>>>>>>>>>>>>>>>>>>>>>>>>>>>>>>>>>>//
  //            Monomer B HF           //
  //<<<<<<<<<<<<<<<<<<<<<<<<<<<<<<<<<<<//


*** tstart() called on genome.bme.utexas.edu
*** at Thu Apr 23 23:14:28 2020

   => Loading Basis Set <=

    Name: AUG-CC-PVTZ
    Role: ORBITAL
    Keyword: BASIS
    atoms 1-2, 4      entry C          line   239 file /home/liuchw/anaconda3/envs/psi4env/share/psi4/basis/aug-cc-pvtz.gbs 
    atoms 3, 5        entry N          line   285 file /home/liuchw/anaconda3/envs/psi4env/share/psi4/basis/aug-cc-pvtz.gbs 
    atoms 6-10, 12-13 entry H          line    40 file /home/liuchw/anaconda3/envs/psi4env/share/psi4/basis/aug-cc-pvtz.gbs 
    atoms 11          entry O          line   331 file /home/liuchw/anaconda3/envs/psi4env/share/psi4/basis/aug-cc-pvtz.gbs 


         ---------------------------------------------------------
                                   SCF
               by Justin Turney, Rob Parrish, Andy Simmonett
                          and Daniel G. A. Smith
                              RHF Reference
                        8 Threads,  47683 MiB Core
         ---------------------------------------------------------

  ==> Geometry <==

    Molecular point group: c1
    Full point group: C1

    Geometry (in Angstrom), charge = 0, multiplicity = 1:

       Center              X                  Y                   Z               Mass       
    ------------   -----------------  -----------------  -----------------  -----------------
      Gh(C)          -2.012490581087    -0.000611147287     0.034671301148    12.000000000000
      Gh(C)          -0.951040581087    -0.861951147287     0.107321301148    12.000000000000
      Gh(N)           0.185529418913    -0.103671147287     0.007751301148    14.003074004430
      Gh(C)          -0.141670581087     1.180738852713    -0.122188698852    12.000000000000
      Gh(N)          -1.477300581087     1.253728852713    -0.106928698852    14.003074004430
      Gh(H)          -2.002700581087     2.112358852713    -0.188518698852     1.007825032230
      Gh(H)           1.158019418913    -0.459671147287     0.028591301148     1.007825032230
      Gh(H)          -3.071030581087    -0.177811147287     0.071571301148     1.007825032230
      Gh(H)          -0.923320581087    -1.929611147287     0.219531301148     1.007825032230
      Gh(H)           0.539059418913     2.006058852713    -0.220998698852     1.007825032230
         O            3.253859418913    -1.166651147287     0.067191301148    15.994914619570
         H            3.803089418913    -1.321811147287     0.840621301148     1.007825032230
         H            3.777199418913    -1.481691147287    -0.674968698852     1.007825032230

  Running in c1 symmetry.

  Rotational constants: A =      0.30723  B =      0.04967  C =      0.04302 [cm^-1]
  Rotational constants: A =   9210.38884  B =   1489.17345  C =   1289.56799 [MHz]
  Nuclear repulsion =    9.155674808561406

  Charge       = 0
  Multiplicity = 1
  Electrons    = 10
  Nalpha       = 5
  Nbeta        = 5

  ==> Algorithm <==

  SCF Algorithm Type is DF.
  DIIS enabled.
  MOM disabled.
  Fractional occupation disabled.
  Guess Type is SAD.
  Energy threshold   = 1.00e-08
  Density threshold  = 1.00e-08
  Integral threshold = 0.00e+00

  ==> Primary Basis <==

  Basis Set: AUG-CC-PVTZ
    Blend: AUG-CC-PVTZ
    Number of shells: 147
    Number of basis function: 437
    Number of Cartesian functions: 505
    Spherical Harmonics?: true
    Max angular momentum: 3

   => Loading Basis Set <=

    Name: (AUG-CC-PVTZ AUX)
    Role: JKFIT
    Keyword: DF_BASIS_SCF
    atoms 1-2, 4      entry C          line   162 file /home/liuchw/anaconda3/envs/psi4env/share/psi4/basis/aug-cc-pvtz-jkfit.gbs 
    atoms 3, 5        entry N          line   224 file /home/liuchw/anaconda3/envs/psi4env/share/psi4/basis/aug-cc-pvtz-jkfit.gbs 
    atoms 6-10, 12-13 entry H          line    70 file /home/liuchw/anaconda3/envs/psi4env/share/psi4/basis/aug-cc-pvtz-jkfit.gbs 
    atoms 11          entry O          line   286 file /home/liuchw/anaconda3/envs/psi4env/share/psi4/basis/aug-cc-pvtz-jkfit.gbs 

  ==> Pre-Iterations <==

   -------------------------------------------------------
    Irrep   Nso     Nmo     Nalpha   Nbeta   Ndocc  Nsocc
   -------------------------------------------------------
     A        437     437       0       0       0       0
   -------------------------------------------------------
    Total     437     437       5       5       5       0
   -------------------------------------------------------

  ==> Integral Setup <==

  ==> DiskDFJK: Density-Fitted J/K Matrices <==

    J tasked:                  Yes
    K tasked:                  Yes
    wK tasked:                  No
    OpenMP threads:              8
    Integrals threads:           8
    Memory [MiB]:            35762
    Algorithm:                Core
    Integral Cache:           LOAD
    Schwarz Cutoff:          1E-12
    Fitting Condition:       1E-10

   => Auxiliary Basis Set <=

  Basis Set: (AUG-CC-PVTZ AUX)
    Blend: AUG-CC-PVTZ-JKFIT
    Number of shells: 278
    Number of basis function: 946
    Number of Cartesian functions: 1171
    Spherical Harmonics?: true
    Max angular momentum: 4

  Minimum eigenvalue in the overlap matrix is 4.0492053013E-06.
  Using Symmetric Orthogonalization.

  SCF Guess: Superposition of Atomic Densities via on-the-fly atomic UHF.

  ==> Iterations <==

                           Total Energy        Delta E     RMS |[F,P]|

   @DF-RHF iter SAD:   -75.47308030153751   -7.54731e+01   0.00000e+00 
   @DF-RHF iter   1:   -75.97601738728058   -5.02937e-01   1.07172e-03 DIIS
   @DF-RHF iter   2:   -76.02844438122193   -5.24270e-02   7.31615e-04 DIIS
   @DF-RHF iter   3:   -76.05997506717456   -3.15307e-02   4.97259e-05 DIIS
   @DF-RHF iter   4:   -76.06036696923969   -3.91902e-04   1.19582e-05 DIIS
   @DF-RHF iter   5:   -76.06039165406406   -2.46848e-05   2.71274e-06 DIIS
   @DF-RHF iter   6:   -76.06039367443111   -2.02037e-06   5.95937e-07 DIIS
   @DF-RHF iter   7:   -76.06039378185761   -1.07427e-07   1.08495e-07 DIIS
   @DF-RHF iter   8:   -76.06039378499875   -3.14114e-09   1.82510e-08 DIIS
   @DF-RHF iter   9:   -76.06039378506847   -6.97185e-11   4.50915e-09 DIIS
  Energy and wave function converged.


  ==> Post-Iterations <==

    Orbital Energies [Eh]
    ---------------------

    Doubly Occupied:                                                      

       1A    -20.567614     2A     -1.351199     3A     -0.716357  
       4A     -0.583371     5A     -0.509863  

    Virtual:                                                              

       6A      0.021749     7A      0.029675     8A      0.038245  
       9A      0.045818    10A      0.048445    11A      0.059877  
      12A      0.071804    13A      0.072311    14A      0.092589  
      15A      0.110372    16A      0.111236    17A      0.111715  
      18A      0.114926    19A      0.115326    20A      0.119565  
      21A      0.129517    22A      0.145669    23A      0.152275  
      24A      0.169256    25A      0.173552    26A      0.175536  
      27A      0.180593    28A      0.192926    29A      0.193444  
      30A      0.203299    31A      0.206291    32A      0.225202  
      33A      0.244058    34A      0.255524    35A      0.261916  
      36A      0.262377    37A      0.268346    38A      0.271129  
      39A      0.282633    40A      0.292231    41A      0.299557  
      42A      0.304415    43A      0.315269    44A      0.324118  
      45A      0.334859    46A      0.335670    47A      0.340551  
      48A      0.352377    49A      0.353692    50A      0.371950  
      51A      0.374813    52A      0.386468    53A      0.393390  
      54A      0.398495    55A      0.401724    56A      0.407150  
      57A      0.409795    58A      0.411520    59A      0.414682  
      60A      0.425868    61A      0.428893    62A      0.439313  
      63A      0.441939    64A      0.455401    65A      0.459721  
      66A      0.468162    67A      0.471197    68A      0.479903  
      69A      0.491790    70A      0.492866    71A      0.500944  
      72A      0.524219    73A      0.553516    74A      0.557369  
      75A      0.562258    76A      0.576433    77A      0.583559  
      78A      0.587427    79A      0.611266    80A      0.629035  
      81A      0.630368    82A      0.636203    83A      0.644538  
      84A      0.654084    85A      0.674135    86A      0.675066  
      87A      0.706989    88A      0.714959    89A      0.722515  
      90A      0.748560    91A      0.765579    92A      0.768966  
      93A      0.771854    94A      0.785740    95A      0.792497  
      96A      0.806175    97A      0.814824    98A      0.825092  
      99A      0.830587   100A      0.835778   101A      0.836711  
     102A      0.848899   103A      0.859087   104A      0.863689  
     105A      0.869865   106A      0.901912   107A      0.911242  
     108A      0.916253   109A      0.937230   110A      0.940969  
     111A      0.945445   112A      0.947469   113A      0.962878  
     114A      0.976643   115A      0.999319   116A      1.003215  
     117A      1.016824   118A      1.019187   119A      1.037961  
     120A      1.040786   121A      1.050778   122A      1.063050  
     123A      1.063959   124A      1.081560   125A      1.090587  
     126A      1.095877   127A      1.101485   128A      1.105325  
     129A      1.110993   130A      1.123563   131A      1.126250  
     132A      1.134395   133A      1.140522   134A      1.145023  
     135A      1.149766   136A      1.151968   137A      1.171134  
     138A      1.181621   139A      1.195044   140A      1.195237  
     141A      1.200843   142A      1.215154   143A      1.239678  
     144A      1.254920   145A      1.258380   146A      1.274225  
     147A      1.274673   148A      1.298594   149A      1.306226  
     150A      1.310443   151A      1.323077   152A      1.324009  
     153A      1.333610   154A      1.356771   155A      1.357542  
     156A      1.371973   157A      1.383395   158A      1.414364  
     159A      1.421388   160A      1.470696   161A      1.493565  
     162A      1.496024   163A      1.511817   164A      1.511823  
     165A      1.527525   166A      1.536769   167A      1.541314  
     168A      1.580715   169A      1.589026   170A      1.604193  
     171A      1.604424   172A      1.614285   173A      1.635362  
     174A      1.645623   175A      1.662807   176A      1.666524  
     177A      1.697770   178A      1.710789   179A      1.720500  
     180A      1.721355   181A      1.742442   182A      1.746640  
     183A      1.753526   184A      1.762891   185A      1.763705  
     186A      1.782934   187A      1.802608   188A      1.809718  
     189A      1.826581   190A      1.829068   191A      1.862707  
     192A      1.868245   193A      1.886775   194A      1.902218  
     195A      1.941058   196A      1.952963   197A      1.972458  
     198A      1.985011   199A      2.000488   200A      2.013577  
     201A      2.033572   202A      2.054398   203A      2.074396  
     204A      2.082816   205A      2.106013   206A      2.114504  
     207A      2.129326   208A      2.189632   209A      2.213363  
     210A      2.219020   211A      2.234249   212A      2.250906  
     213A      2.277697   214A      2.293714   215A      2.307437  
     216A      2.315544   217A      2.321687   218A      2.344322  
     219A      2.373657   220A      2.390051   221A      2.393721  
     222A      2.430615   223A      2.434081   224A      2.447010  
     225A      2.477779   226A      2.503457   227A      2.507369  
     228A      2.513702   229A      2.532746   230A      2.539666  
     231A      2.579115   232A      2.621927   233A      2.630139  
     234A      2.631055   235A      2.675984   236A      2.696083  
     237A      2.706429   238A      2.747490   239A      2.750711  
     240A      2.768746   241A      2.809348   242A      2.818892  
     243A      2.826160   244A      2.837478   245A      2.871867  
     246A      2.882663   247A      2.893493   248A      2.902039  
     249A      2.903925   250A      2.916102   251A      2.949533  
     252A      2.968171   253A      3.007044   254A      3.019752  
     255A      3.078664   256A      3.083072   257A      3.096630  
     258A      3.129166   259A      3.130438   260A      3.200218  
     261A      3.244241   262A      3.300665   263A      3.302351  
     264A      3.483173   265A      3.546266   266A      3.561068  
     267A      3.592368   268A      3.707921   269A      3.770953  
     270A      3.803663   271A      3.822579   272A      3.849338  
     273A      3.899675   274A      3.955409   275A      4.020189  
     276A      4.024967   277A      4.036501   278A      4.090702  
     279A      4.107419   280A      4.114953   281A      4.135938  
     282A      4.151400   283A      4.185301   284A      4.187956  
     285A      4.192497   286A      4.202777   287A      4.262085  
     288A      4.264911   289A      4.291623   290A      4.315487  
     291A      4.333463   292A      4.354917   293A      4.363773  
     294A      4.421807   295A      4.443815   296A      4.472968  
     297A      4.509110   298A      4.562133   299A      4.567863  
     300A      4.602968   301A      4.604108   302A      4.613684  
     303A      4.650269   304A      4.710147   305A      4.742741  
     306A      4.744819   307A      4.773928   308A      4.780026  
     309A      4.789901   310A      4.851548   311A      4.870578  
     312A      4.888574   313A      4.901559   314A      4.910583  
     315A      4.923706   316A      4.924105   317A      4.964045  
     318A      4.966260   319A      4.996383   320A      5.016818  
     321A      5.017920   322A      5.034785   323A      5.051965  
     324A      5.090021   325A      5.097212   326A      5.101376  
     327A      5.127695   328A      5.141760   329A      5.159518  
     330A      5.163809   331A      5.175885   332A      5.203545  
     333A      5.212166   334A      5.243693   335A      5.260206  
     336A      5.280437   337A      5.322861   338A      5.329803  
     339A      5.335253   340A      5.388194   341A      5.392179  
     342A      5.433523   343A      5.460653   344A      5.512180  
     345A      5.525043   346A      5.536683   347A      5.625154  
     348A      5.646701   349A      5.691297   350A      5.721037  
     351A      5.804575   352A      5.845545   353A      5.863198  
     354A      5.884584   355A      5.951350   356A      5.994273  
     357A      6.002905   358A      6.060521   359A      6.129333  
     360A      6.182378   361A      6.221966   362A      6.253379  
     363A      6.272274   364A      6.327072   365A      6.386458  
     366A      6.407861   367A      6.441886   368A      6.524895  
     369A      6.581050   370A      6.594444   371A      6.608946  
     372A      6.629013   373A      6.676067   374A      6.734134  
     375A      6.751184   376A      6.765388   377A      6.809679  
     378A      6.844548   379A      6.884621   380A      6.904687  
     381A      6.911881   382A      6.959389   383A      6.985173  
     384A      7.094021   385A      7.133556   386A      7.178404  
     387A      7.249454   388A      7.291214   389A      7.311418  
     390A      7.315149   391A      7.333319   392A      7.371466  
     393A      7.373446   394A      7.446491   395A      7.482550  
     396A      7.525669   397A      7.658500   398A      7.675316  
     399A      7.692847   400A      7.714145   401A      7.724903  
     402A      7.766639   403A      7.823712   404A      7.851808  
     405A      7.905828   406A      7.917183   407A      7.924397  
     408A      7.943117   409A      8.081771   410A      8.285565  
     411A      8.318272   412A      8.502755   413A      8.768948  
     414A      8.799487   415A      8.836365   416A      8.919259  
     417A      9.000134   418A      9.110119   419A      9.144357  
     420A      9.540980   421A      9.629358   422A      9.738537  
     423A     10.665872   424A     10.834365   425A     11.233055  
     426A     11.543826   427A     11.927499   428A     12.060421  
     429A     12.182342   430A     12.512000   431A     12.918052  
     432A     16.205521   433A     52.043260   434A     52.542468  
     435A     54.548500   436A     60.726520   437A     61.935894  

    Final Occupation by Irrep:
              A 
    DOCC [     5 ]

  @DF-RHF Final Energy:   -76.06039378506847

   => Energetics <=

    Nuclear Repulsion Energy =              9.1556748085614057
    One-Electron Energy =                -122.9753255867495341
    Two-Electron Energy =                  37.7592569931196635
    Total Energy =                        -76.0603937850684702

Computation Completed


Properties will be evaluated at   0.000000,   0.000000,   0.000000 [a0]

Properties computed using the SCF density matrix

  Nuclear Dipole Moment: [e a0]
     X:    63.5159      Y:   -22.9351      Z:     1.3288

  Electronic Dipole Moment: [e a0]
     X:   -62.8036      Y:    22.6229      Z:    -1.3081

  Dipole Moment: [e a0]
     X:     0.7122      Y:    -0.3121      Z:     0.0208     Total:     0.7779

  Dipole Moment: [D]
     X:     1.8104      Y:    -0.7933      Z:     0.0528     Total:     1.9773


*** tstop() called on genome.bme.utexas.edu at Thu Apr 23 23:14:42 2020
Module time:
	user time   =     100.24 seconds =       1.67 minutes
	system time =       1.98 seconds =       0.03 minutes
	total time  =         14 seconds =       0.23 minutes
Total time:
	user time   =     405.89 seconds =       6.76 minutes
	system time =       8.74 seconds =       0.15 minutes
	total time  =         58 seconds =       0.97 minutes
  Constructing Basis Sets for SAPT...

   => Loading Basis Set <=

    Name: (AUG-CC-PVTZ AUX)
    Role: RIFIT
    Keyword: DF_BASIS_SAPT
    atoms 1-2, 4      entry C          line   148 file /home/liuchw/anaconda3/envs/psi4env/share/psi4/basis/aug-cc-pvtz-ri.gbs 
    atoms 3, 5        entry N          line   206 file /home/liuchw/anaconda3/envs/psi4env/share/psi4/basis/aug-cc-pvtz-ri.gbs 
    atoms 6-10, 12-13 entry H          line    30 file /home/liuchw/anaconda3/envs/psi4env/share/psi4/basis/aug-cc-pvtz-ri.gbs 
    atoms 11          entry O          line   264 file /home/liuchw/anaconda3/envs/psi4env/share/psi4/basis/aug-cc-pvtz-ri.gbs 


  //>>>>>>>>>>>>>>>>>>>>>>>>>>>>>>>>>>>//
  //               SAPT2+              //
  //<<<<<<<<<<<<<<<<<<<<<<<<<<<<<<<<<<<//


*** tstart() called on genome.bme.utexas.edu
*** at Thu Apr 23 23:14:42 2020

        SAPT2+  
    Ed Hohenstein
     6 June 2009

      Orbital Information
  --------------------------
    NSO        =       437
    NMO        =       437
    NRI        =       958
    NOCC A     =        18
    NOCC B     =         5
    FOCC A     =         5
    FOCC B     =         1
    NVIR A     =       419
    NVIR B     =       432

    Estimated memory usage: 2881.5 MB

    Natural Orbital Cutoff:   1.000E-06
    Disp(T3) Truncation:            Yes
    CCD (vv|vv) Truncation:         Yes
    MBPT T2 Truncation:             Yes

    Monomer A: 142 virtual orbitals dropped
    Monomer B: 351 virtual orbitals dropped

    Elst10,r            =    -0.019308460830 [Eh]
    Exch10 (S^2)        =     0.003455179264 [Eh]
    Exch10              =     0.003463992603 [Eh]
    Ind20,r (A<-B)      =    -0.000530605441 [Eh]
    Ind20,r (B<-A)      =    -0.003423514098 [Eh]
    Ind20,r             =    -0.003954119539 [Eh]
    Exch-Ind20,r (A<-B) =     0.000123265451 [Eh]
    Exch-Ind20,r (B<-A) =     0.000655100682 [Eh]
    Exch-Ind20,r        =     0.000778366133 [Eh]
    Disp20              =    -0.002259791661 [Eh]
    Disp20 (NO)         =    -0.001980596833 [Eh]
    Exch-Disp20         =     0.000211654872 [Eh]
    Elst12,r            =     0.001129997620 [Eh]
    Exch11              =    -0.000012198072 [Eh]
    Exch12              =     0.000522462154 [Eh]
    Ind22               =    -0.000381757761 [Eh]
    Disp21              =     0.000105752179 [Eh]
    Disp22 (SDQ)        =     0.000031444079 [Eh]

    (i =   1 of   4)         49 seconds
    (i =   2 of   4)         98 seconds
    (i =   3 of   4)        148 seconds
    (i =   4 of   4)        194 seconds

    Disp220 (T)         =    -0.000178643191 [Eh]

    (i =   1 of  13)          5 seconds
    (i =   2 of  13)         10 seconds
    (i =   3 of  13)         15 seconds
    (i =   4 of  13)         21 seconds
    (i =   5 of  13)         27 seconds
    (i =   6 of  13)         32 seconds
    (i =   7 of  13)         38 seconds
    (i =   8 of  13)         45 seconds
    (i =   9 of  13)         52 seconds
    (i =  10 of  13)         56 seconds
    (i =  11 of  13)         63 seconds
    (i =  12 of  13)         70 seconds
    (i =  13 of  13)         77 seconds

    Disp202 (T)         =    -0.000171219559 [Eh]

    Disp22 (T)          =    -0.000349862750 [Eh]

    Est. Disp220 (T)    =    -0.000203825628 [Eh]
    Est. Disp202 (T)    =    -0.000195355524 [Eh]

    Est. Disp22 (T)     =    -0.000399181152 [Eh]

    SAPT Results 
  --------------------------------------------------------------------------------------------------------
    Electrostatics                -18.17846321 [mEh]     -11.40715788 [kcal/mol]     -47.72754858 [kJ/mol]
      Elst10,r                    -19.30846083 [mEh]     -12.11624209 [kcal/mol]     -50.69435692 [kJ/mol]
      Elst12,r                      1.12999762 [mEh]       0.70908421 [kcal/mol]       2.96680834 [kJ/mol]

    Exchange                        3.97425669 [mEh]       2.49388372 [kcal/mol]      10.43440949 [kJ/mol]
      Exch10                        3.46399260 [mEh]       2.17368818 [kcal/mol]       9.09471133 [kJ/mol]
      Exch10(S^2)                   3.45517926 [mEh]       2.16815772 [kcal/mol]       9.07157191 [kJ/mol]
      Exch11(S^2)                  -0.01219807 [mEh]      -0.00765441 [kcal/mol]      -0.03202603 [kJ/mol]
      Exch12(S^2)                   0.52246215 [mEh]       0.32784995 [kcal/mol]       1.37172420 [kJ/mol]

    Induction                      -4.39322336 [mEh]      -2.75678928 [kcal/mol]     -11.53440634 [kJ/mol]
      Ind20,r                      -3.95411954 [mEh]      -2.48124747 [kcal/mol]     -10.38153942 [kJ/mol]
      Ind22                        -0.38175776 [mEh]      -0.23955661 [kcal/mol]      -1.00230486 [kJ/mol]
      Exch-Ind20,r                  0.77836613 [mEh]       0.48843212 [kcal/mol]       2.04360000 [kJ/mol]
      Exch-Ind22                    0.07514879 [mEh]       0.04715658 [kcal/mol]       0.19730313 [kJ/mol]
      delta HF,r (2)               -0.91086099 [mEh]      -0.57157390 [kcal/mol]      -2.39146519 [kJ/mol]

    Dispersion                     -2.31012168 [mEh]      -1.44962324 [kcal/mol]      -6.06522364 [kJ/mol]
      Disp20                       -2.25979166 [mEh]      -1.41804068 [kcal/mol]      -5.93308219 [kJ/mol]
      Disp21                        0.10575218 [mEh]       0.06636049 [kcal/mol]       0.27765231 [kJ/mol]
      Disp22 (SDQ)                  0.03144408 [mEh]       0.01973146 [kcal/mol]       0.08255642 [kJ/mol]
      Disp22 (T)                   -0.34986275 [mEh]      -0.21954219 [kcal/mol]      -0.91856452 [kJ/mol]
      Est. Disp22 (T)              -0.39918115 [mEh]      -0.25048995 [kcal/mol]      -1.04804997 [kJ/mol]
      Exch-Disp20                   0.21165487 [mEh]       0.13281544 [kcal/mol]       0.55569979 [kJ/mol]

  Total HF                        -19.93108262 [mEh]     -12.50694317 [kcal/mol]     -52.32905020 [kJ/mol]
  Total SAPT0                     -21.97921941 [mEh]     -13.79216840 [kcal/mol]     -57.70643260 [kJ/mol]
  Total SAPT2                     -20.64556667 [mEh]     -12.95528868 [kcal/mol]     -54.20492783 [kJ/mol]
  Total SAPT2+                    -20.90755157 [mEh]     -13.11968668 [kcal/mol]     -54.89276907 [kJ/mol]

  Special recipe for scaled SAPT0 (see Manual):
    Electrostatics sSAPT0         -19.30846083 [mEh]     -12.11624209 [kcal/mol]     -50.69435692 [kJ/mol]
    Exchange sSAPT0                 3.46399260 [mEh]       2.17368818 [kcal/mol]       9.09471133 [kJ/mol]
    Induction sSAPT0               -4.08064291 [mEh]      -2.56064208 [kcal/mol]     -10.71372647 [kJ/mol]
    Dispersion sSAPT0              -2.04651301 [mEh]      -1.28420630 [kcal/mol]      -5.37311917 [kJ/mol]
  Total sSAPT0                    -21.97162414 [mEh]     -13.78740230 [kcal/mol]     -57.68649124 [kJ/mol]
  --------------------------------------------------------------------------------------------------------

*** tstop() called on genome.bme.utexas.edu at Thu Apr 23 23:26:35 2020
Module time:
	user time   =    5124.46 seconds =      85.41 minutes
	system time =     132.30 seconds =       2.20 minutes
	total time  =        713 seconds =      11.88 minutes
Total time:
	user time   =    5531.65 seconds =      92.19 minutes
	system time =     141.09 seconds =       2.35 minutes
	total time  =        771 seconds =      12.85 minutes

    Psi4 stopped on: Thursday, 23 April 2020 11:26PM
    Psi4 wall time for execution: 0:12:51.04

*** Psi4 exiting successfully. Buy a developer a beer!
