    -----------------------------------------------------------------------
          PSI4: An Open-Source Ab Initio Electronic Structure Package
                              PSI 4.0.0-beta4 Driver

    J. M. Turney, A. C. Simmonett, R. M. Parrish, E. G. Hohenstein,
    F. A. Evangelista, J. T. Fermann, B. J. Mintz, L. A. Burns, J. J. Wilke,
    M. L. Abrams, N. J. Russ, M. L. Leininger, C. L. Janssen, E. T. Seidl,
    W. D. Allen, H. F. Schaefer, R. A. King, E. F. Valeev, C. D. Sherrill,
    and T. D. Crawford, WIREs Comput. Mol. Sci., (2011) (doi: 10.1002/wcms.93)

                         Additional Contributions by
    A. E. DePrince, M. Saitow, U. Bozkaya, A. Yu. Sokolov
    -----------------------------------------------------------------------

    Process ID:  17252
    PSI4DATADIR: /home/xzhu216/psi4/psi4-install/share/psi

    Using LocalCommunicator (Number of processes = 1)

    Memory level set to 256.000 MB

  ==> Input File <==

--------------------------------------------------------------------------
#psi4
#
memory 7 gb

molecule AcOHMinus_Water {
-1 1
    C    -0.839935000     0.480707000    -0.369605000
    C    -2.107278000    -0.342002000    -0.049332000
    O    -2.042862000    -1.580050000    -0.264138000
    O    -3.077172000     0.326526000     0.397132000
    H    -0.506040000     0.995115000     0.531917000
    H    -0.039804000    -0.150695000    -0.750285000
    H    -1.084130000     1.248809000    -1.103928000
--
0 1
    O    -4.608175900    -1.842346600     0.601762100
    H    -4.365171900    -0.902517600     0.661668100
    H    -3.747095900    -2.124865600     0.253629100
units angstrom
no_reorient  #important for SAPT in psi4, default
symmetry c1  #important for SAPT in psi4, default
}

set {
basis aug-cc-pVTZ
scf_type DF
freeze_core True
}
energy('sapt2+')
--------------------------------------------------------------------------

  Memory set to   7.000 GiB by Python script.

  //>>>>>>>>>>>>>>>>>>>>>>>>>>>>>>>>>>>//
  //              Dimer HF             //
  //<<<<<<<<<<<<<<<<<<<<<<<<<<<<<<<<<<<//


  No DF_BASIS_SCF auxiliary basis selected, defaulting to aug-cc-pvtz-jkfit


*** tstart() called on node32.bme.utexas.edu
*** at Fri Aug 29 11:56:47 2014


         ---------------------------------------------------------
                                   SCF
            by Justin Turney, Rob Parrish, and Andy Simmonett
                              RHF Reference
                        4 Threads,   7000 MiB Core
         ---------------------------------------------------------

  ==> Geometry <==

    Molecular point group: c1
    Full point group: C1

    Geometry (in Angstrom), charge = -1, multiplicity = 1:

       Center              X                  Y                   Z       
    ------------   -----------------  -----------------  -----------------
           C          1.766879231269     1.114214385804    -0.451591708633
           C          0.499536231269     0.291505385804    -0.131318708633
           O          0.563952231269    -0.946542614196    -0.346124708633
           O         -0.470357768731     0.960033385804     0.315145291367
           H          2.100774231269     1.628622385804     0.449930291367
           H          2.567010231269     0.482812385804    -0.832271708633
           H          1.522684231269     1.882316385804    -1.185914708633
           O         -2.001361668731    -1.208839214196     0.519775391367
           H         -1.758357668731    -0.269010214196     0.579681391367
           H         -1.140281668731    -1.491358214196     0.171642391367

  Running in c1 symmetry.

  Nuclear repulsion =  175.632692292772504

  Charge       = -1
  Multiplicity = 1
  Electrons    = 42
  Nalpha       = 21
  Nbeta        = 21

  ==> Algorithm <==

  SCF Algorithm Type is DF.
  DIIS enabled.
  MOM disabled.
  Fractional occupation disabled.
  Guess Type is CORE.
  Energy threshold   = 1.00e-08
  Density threshold  = 1.00e-08
  Integral threshold = 0.00e+00

  ==> Primary Basis <==

  Basis Set: AUG-CC-PVTZ
    Number of shells: 115
    Number of basis function: 345
    Number of Cartesian functions: 400
    Spherical Harmonics?: true
    Max angular momentum: 3

  ==> Pre-Iterations <==

   -------------------------------------------------------
    Irrep   Nso     Nmo     Nalpha   Nbeta   Ndocc  Nsocc
   -------------------------------------------------------
     A        345     345       0       0       0       0
   -------------------------------------------------------
    Total     345     345      21      21      21       0
   -------------------------------------------------------

 OEINTS: Wrapper to libmints.
   by Justin Turney

   Calculation information:
      Number of atoms:                  10
      Number of AO shells:             115
      Number of SO shells:             115
      Number of primitives:            205
      Number of atomic orbitals:       400
      Number of basis functions:       345

      Number of irreps:                  1
      Number of functions per irrep: [ 345 ]

      Overlap, kinetic, potential, dipole, and quadrupole integrals
        stored in file 35.

  ==> Integral Setup <==

  ==> DFJK: Density-Fitted J/K Matrices <==

    J tasked:                  Yes
    K tasked:                  Yes
    wK tasked:                  No
    OpenMP threads:              4
    Integrals threads:           4
    Memory (MB):              5006
    Algorithm:                Core
    Integral Cache:           SAVE
    Schwarz Cutoff:          0E+00
    Fitting Condition:       1E-12

   => Auxiliary Basis Set <=

  Basis Set: aug-cc-pvtz-jkfit
    Number of shells: 220
    Number of basis function: 750
    Number of Cartesian functions: 930
    Spherical Harmonics?: true
    Max angular momentum: 4

  Minimum eigenvalue in the overlap matrix is 1.6029449130E-05.
  Using Symmetric Orthogonalization.
  SCF Guess: Core (One-Electron) Hamiltonian.

  Guess energy:  -250.34755210833566

  ==> Iterations <==

                        Total Energy        Delta E     RMS |[F,P]|

   @RHF iter   1:  -230.39523828815010   -2.30395e+02   4.42914e-02 
   @RHF iter   2:  -166.92068986413796    6.34745e+01   2.86049e-02 DIIS
   @RHF iter   3:  -264.75911764335012   -9.78384e+01   1.85942e-02 DIIS
   @RHF iter   4:  -263.60165036468084    1.15747e+00   1.80919e-02 DIIS
   @RHF iter   5:  -276.85978871187586   -1.32581e+01   1.54322e-02 DIIS
   @RHF iter   6:  -302.71480114072619   -2.58550e+01   3.94146e-03 DIIS
   @RHF iter   7:  -303.28099018432516   -5.66189e-01   1.61535e-03 DIIS
   @RHF iter   8:  -303.40591462773193   -1.24924e-01   2.31865e-04 DIIS
   @RHF iter   9:  -303.41043041961814   -4.51579e-03   8.82093e-05 DIIS
   @RHF iter  10:  -303.41110431864371   -6.73899e-04   3.31766e-05 DIIS
   @RHF iter  11:  -303.41118554497922   -8.12263e-05   1.41203e-05 DIIS
   @RHF iter  12:  -303.41120107790721   -1.55329e-05   5.07301e-06 DIIS
   @RHF iter  13:  -303.41120392252697   -2.84462e-06   1.97250e-06 DIIS
   @RHF iter  14:  -303.41120430537399   -3.82847e-07   6.50360e-07 DIIS
   @RHF iter  15:  -303.41120434804964   -4.26757e-08   1.28488e-07 DIIS
   @RHF iter  16:  -303.41120435055018   -2.50054e-09   3.83606e-08 DIIS
   @RHF iter  17:  -303.41120435079227   -2.42096e-10   1.25107e-08 DIIS
   @RHF iter  18:  -303.41120435081683   -2.45564e-11   4.18269e-09 DIIS

  ==> Post-Iterations <==

	Orbital Energies (a.u.)
	-----------------------

	Doubly Occupied:                                                      

	   1A    -20.330680     2A    -20.321608     3A    -20.318835  
	   4A    -11.164440     5A    -11.065873     6A     -1.201073  
	   7A     -1.120602     8A     -1.098191     9A     -0.817797  
	  10A     -0.546937    11A     -0.484625    12A     -0.453491  
	  13A     -0.437163    14A     -0.432234    15A     -0.386149  
	  16A     -0.380075    17A     -0.349306    18A     -0.280520  
	  19A     -0.240982    20A     -0.226360    21A     -0.222404  

	Virtual:                                                              

	  22A      0.124997    23A      0.137326    24A      0.137396  
	  25A      0.160073    26A      0.167610    27A      0.181315  
	  28A      0.227631    29A      0.235324    30A      0.238852  
	  31A      0.249368    32A      0.253958    33A      0.263107  
	  34A      0.302732    35A      0.312832    36A      0.317092  
	  37A      0.322785    38A      0.334322    39A      0.339771  
	  40A      0.349295    41A      0.351163    42A      0.364206  
	  43A      0.384509    44A      0.385847    45A      0.395140  
	  46A      0.415652    47A      0.416556    48A      0.451167  
	  49A      0.454636    50A      0.454980    51A      0.479314  
	  52A      0.485167    53A      0.486432    54A      0.488013  
	  55A      0.507462    56A      0.514050    57A      0.522415  
	  58A      0.531901    59A      0.552119    60A      0.570995  
	  61A      0.574137    62A      0.577083    63A      0.583308  
	  64A      0.590541    65A      0.594127    66A      0.621104  
	  67A      0.635630    68A      0.654869    69A      0.665364  
	  70A      0.673384    71A      0.685166    72A      0.688013  
	  73A      0.695135    74A      0.695258    75A      0.708021  
	  76A      0.758224    77A      0.771158    78A      0.796924  
	  79A      0.831590    80A      0.840383    81A      0.847577  
	  82A      0.872240    83A      0.882975    84A      0.901793  
	  85A      0.915882    86A      0.933821    87A      0.946083  
	  88A      0.949560    89A      0.970349    90A      0.972238  
	  91A      0.989597    92A      1.001129    93A      1.011488  
	  94A      1.022508    95A      1.026413    96A      1.036791  
	  97A      1.050125    98A      1.060827    99A      1.064903  
	 100A      1.070672   101A      1.082936   102A      1.095026  
	 103A      1.123998   104A      1.132417   105A      1.138676  
	 106A      1.141365   107A      1.165482   108A      1.169204  
	 109A      1.194148   110A      1.196781   111A      1.198370  
	 112A      1.225996   113A      1.241952   114A      1.258444  
	 115A      1.271857   116A      1.274035   117A      1.283405  
	 118A      1.295341   119A      1.310997   120A      1.328350  
	 121A      1.340875   122A      1.346993   123A      1.350867  
	 124A      1.358279   125A      1.384841   126A      1.390356  
	 127A      1.415864   128A      1.425516   129A      1.442970  
	 130A      1.460363   131A      1.491606   132A      1.501406  
	 133A      1.505212   134A      1.512903   135A      1.564915  
	 136A      1.591682   137A      1.601224   138A      1.613415  
	 139A      1.626151   140A      1.653133   141A      1.654924  
	 142A      1.667570   143A      1.683726   144A      1.701775  
	 145A      1.721699   146A      1.756841   147A      1.761022  
	 148A      1.774430   149A      1.774906   150A      1.790732  
	 151A      1.798704   152A      1.846114   153A      1.847423  
	 154A      1.850297   155A      1.869544   156A      1.885779  
	 157A      1.902037   158A      1.916703   159A      1.953977  
	 160A      1.964185   161A      1.991871   162A      1.996918  
	 163A      2.044519   164A      2.058820   165A      2.060531  
	 166A      2.091032   167A      2.136374   168A      2.150541  
	 169A      2.169086   170A      2.187547   171A      2.253736  
	 172A      2.266054   173A      2.314344   174A      2.318676  
	 175A      2.341833   176A      2.366725   177A      2.389180  
	 178A      2.417677   179A      2.472742   180A      2.537871  
	 181A      2.556132   182A      2.563469   183A      2.591266  
	 184A      2.609679   185A      2.642582   186A      2.698368  
	 187A      2.712563   188A      2.716628   189A      2.727044  
	 190A      2.750513   191A      2.758914   192A      2.773569  
	 193A      2.791368   194A      2.810696   195A      2.820128  
	 196A      2.826782   197A      2.855355   198A      2.890677  
	 199A      2.908926   200A      2.938185   201A      2.954991  
	 202A      2.968099   203A      3.030335   204A      3.059780  
	 205A      3.063956   206A      3.091518   207A      3.115610  
	 208A      3.149574   209A      3.159782   210A      3.175971  
	 211A      3.192537   212A      3.203687   213A      3.234148  
	 214A      3.249566   215A      3.260898   216A      3.274404  
	 217A      3.349155   218A      3.469069   219A      3.471953  
	 220A      3.493786   221A      3.539102   222A      3.558115  
	 223A      3.641791   224A      3.671165   225A      3.683441  
	 226A      3.730850   227A      3.776587   228A      3.788393  
	 229A      3.809967   230A      3.855254   231A      3.856509  
	 232A      3.972582   233A      4.000333   234A      4.031924  
	 235A      4.036132   236A      4.081051   237A      4.114284  
	 238A      4.128257   239A      4.173442   240A      4.210930  
	 241A      4.231089   242A      4.247937   243A      4.263403  
	 244A      4.306906   245A      4.327159   246A      4.350229  
	 247A      4.365384   248A      4.375741   249A      4.393733  
	 250A      4.424668   251A      4.463745   252A      4.484153  
	 253A      4.508943   254A      4.538196   255A      4.556205  
	 256A      4.567735   257A      4.606736   258A      4.649253  
	 259A      4.658628   260A      4.686017   261A      4.731027  
	 262A      4.760806   263A      4.791234   264A      4.841464  
	 265A      4.850705   266A      4.893260   267A      4.961680  
	 268A      4.967863   269A      5.016556   270A      5.079622  
	 271A      5.114356   272A      5.118131   273A      5.185692  
	 274A      5.226056   275A      5.228155   276A      5.271713  
	 277A      5.293184   278A      5.300616   279A      5.323655  
	 280A      5.373601   281A      5.446025   282A      5.466474  
	 283A      5.477757   284A      5.495439   285A      5.550087  
	 286A      5.618398   287A      5.625218   288A      5.753378  
	 289A      5.765680   290A      5.786918   291A      5.817171  
	 292A      5.854224   293A      5.898924   294A      5.973805  
	 295A      6.137619   296A      6.222203   297A      6.276540  
	 298A      6.316297   299A      6.386890   300A      6.623767  
	 301A      6.635469   302A      6.769851   303A      6.850765  
	 304A      6.889617   305A      7.025572   306A      7.064023  
	 307A      7.086598   308A      7.106782   309A      7.147931  
	 310A      7.170637   311A      7.184745   312A      7.219803  
	 313A      7.318437   314A      7.333586   315A      7.359192  
	 316A      7.396449   317A      7.405560   318A      7.406513  
	 319A      7.510527   320A      7.529901   321A      7.553651  
	 322A      7.582811   323A      7.598219   324A      7.621028  
	 325A      7.631387   326A      7.690127   327A      7.737477  
	 328A      7.769840   329A      7.776724   330A      7.855020  
	 331A      7.901491   332A      7.976468   333A      8.044023  
	 334A      8.066878   335A      8.188865   336A      8.203917  
	 337A      8.224623   338A      8.401109   339A      8.450232  
	 340A      9.176244   341A     14.769416   342A     15.460484  
	 343A     16.989105   344A     17.368476   345A     18.884957  

	Final Occupation by Irrep:
	          A 
	DOCC [    21 ]

  Energy converged.

  @RHF Final Energy:  -303.41120435081683

   => Energetics <=

    Nuclear Repulsion Energy =            175.6326922927725036
    One-Electron Energy =                -774.3291047412861872
    Two-Electron Energy =                 295.2852080976977618
    DFT Exchange-Correlation Energy =       0.0000000000000000
    Empirical Dispersion Energy =           0.0000000000000000
    Total Energy =                       -303.4112043508159218



Properties will be evaluated at   0.000000,   0.000000,   0.000000 Bohr
  ==> Properties <==


Properties computed using the SCF density density matrix
  Nuclear Dipole Moment: (a.u.)
     X:     3.0768      Y:     2.0880      Z:    -0.7635

  Electronic Dipole Moment: (a.u.)
     X:    -1.6671      Y:    -1.1947      Z:     0.4039

  Dipole Moment: (a.u.)
     X:     1.4097      Y:     0.8933      Z:    -0.3596     Total:     1.7073

  Dipole Moment: (Debye)
     X:     3.5832      Y:     2.2706      Z:    -0.9141     Total:     4.3394


  Saving occupied orbitals to File 180.

  Saving SAPT 2-DIMER file.

*** tstop() called on node32.bme.utexas.edu at Fri Aug 29 11:57:42 2014
Module time:
	user time   =     204.44 seconds =       3.41 minutes
	system time =       2.62 seconds =       0.04 minutes
	total time  =         55 seconds =       0.92 minutes
Total time:
	user time   =     204.44 seconds =       3.41 minutes
	system time =       2.62 seconds =       0.04 minutes
	total time  =         55 seconds =       0.92 minutes

  //>>>>>>>>>>>>>>>>>>>>>>>>>>>>>>>>>>>//
  //            Monomer A HF           //
  //<<<<<<<<<<<<<<<<<<<<<<<<<<<<<<<<<<<//


  No DF_BASIS_SCF auxiliary basis selected, defaulting to aug-cc-pvtz-jkfit


*** tstart() called on node32.bme.utexas.edu
*** at Fri Aug 29 11:57:42 2014


         ---------------------------------------------------------
                                   SCF
            by Justin Turney, Rob Parrish, and Andy Simmonett
                              RHF Reference
                        4 Threads,   7000 MiB Core
         ---------------------------------------------------------

  ==> Geometry <==

    Molecular point group: c1
    Full point group: C1

    Geometry (in Angstrom), charge = -1, multiplicity = 1:

       Center              X                  Y                   Z       
    ------------   -----------------  -----------------  -----------------
           C          1.766879231269     1.114214385804    -0.451591708633
           C          0.499536231269     0.291505385804    -0.131318708633
           O          0.563952231269    -0.946542614196    -0.346124708633
           O         -0.470357768731     0.960033385804     0.315145291367
           H          2.100774231269     1.628622385804     0.449930291367
           H          2.567010231269     0.482812385804    -0.832271708633
           H          1.522684231269     1.882316385804    -1.185914708633
           O(Gh)     -2.001361668731    -1.208839214196     0.519775391367
           H(Gh)     -1.758357668731    -0.269010214196     0.579681391367
           H(Gh)     -1.140281668731    -1.491358214196     0.171642391367

  Running in c1 symmetry.

  Nuclear repulsion =  111.881303510200595

  Charge       = -1
  Multiplicity = 1
  Electrons    = 32
  Nalpha       = 16
  Nbeta        = 16

  ==> Algorithm <==

  SCF Algorithm Type is DF.
  DIIS enabled.
  MOM disabled.
  Fractional occupation disabled.
  Guess Type is CORE.
  Energy threshold   = 1.00e-08
  Density threshold  = 1.00e-08
  Integral threshold = 0.00e+00

  ==> Primary Basis <==

  Basis Set: AUG-CC-PVTZ
    Number of shells: 115
    Number of basis function: 345
    Number of Cartesian functions: 400
    Spherical Harmonics?: true
    Max angular momentum: 3

  ==> Pre-Iterations <==

   -------------------------------------------------------
    Irrep   Nso     Nmo     Nalpha   Nbeta   Ndocc  Nsocc
   -------------------------------------------------------
     A        345     345       0       0       0       0
   -------------------------------------------------------
    Total     345     345      16      16      16       0
   -------------------------------------------------------

 OEINTS: Wrapper to libmints.
   by Justin Turney

   Calculation information:
      Number of atoms:                  10
      Number of AO shells:             115
      Number of SO shells:             115
      Number of primitives:            205
      Number of atomic orbitals:       400
      Number of basis functions:       345

      Number of irreps:                  1
      Number of functions per irrep: [ 345 ]

      Overlap, kinetic, potential, dipole, and quadrupole integrals
        stored in file 35.

  ==> Integral Setup <==

  ==> DFJK: Density-Fitted J/K Matrices <==

    J tasked:                  Yes
    K tasked:                  Yes
    wK tasked:                  No
    OpenMP threads:              4
    Integrals threads:           4
    Memory (MB):              5006
    Algorithm:                Core
    Integral Cache:           LOAD
    Schwarz Cutoff:          0E+00
    Fitting Condition:       1E-12

   => Auxiliary Basis Set <=

  Basis Set: aug-cc-pvtz-jkfit
    Number of shells: 220
    Number of basis function: 750
    Number of Cartesian functions: 930
    Spherical Harmonics?: true
    Max angular momentum: 4

  Minimum eigenvalue in the overlap matrix is 1.6029449130E-05.
  Using Symmetric Orthogonalization.
  SCF Guess: Core (One-Electron) Hamiltonian.

  Guess energy:  -187.34837129957060

  ==> Iterations <==

                        Total Energy        Delta E     RMS |[F,P]|

   @RHF iter   1:  -168.79373342537804   -1.68794e+02   3.77576e-02 
   @RHF iter   2:  -148.90729662482477    1.98864e+01   2.21537e-02 DIIS
   @RHF iter   3:  -198.60360328709277   -4.96963e+01   1.71257e-02 DIIS
   @RHF iter   4:  -226.36270108835544   -2.77591e+01   3.77713e-03 DIIS
   @RHF iter   5:  -227.27433461912091   -9.11634e-01   9.88867e-04 DIIS
   @RHF iter   6:  -227.31998595978627   -4.56513e-02   3.77985e-04 DIIS
   @RHF iter   7:  -227.32715419773365   -7.16824e-03   1.35023e-04 DIIS
   @RHF iter   8:  -227.32853510486808   -1.38091e-03   4.13044e-05 DIIS
   @RHF iter   9:  -227.32866371858557   -1.28614e-04   1.76313e-05 DIIS
   @RHF iter  10:  -227.32868031359163   -1.65950e-05   6.59072e-06 DIIS
   @RHF iter  11:  -227.32868362086191   -3.30727e-06   2.14963e-06 DIIS
   @RHF iter  12:  -227.32868407096873   -4.50107e-07   5.23206e-07 DIIS
   @RHF iter  13:  -227.32868410692873   -3.59600e-08   1.87710e-07 DIIS
   @RHF iter  14:  -227.32868411320089   -6.27216e-09   5.50787e-08 DIIS
   @RHF iter  15:  -227.32868411388409   -6.83201e-10   1.43297e-08 DIIS
   @RHF iter  16:  -227.32868411392838   -4.42810e-11   4.04234e-09 DIIS

  ==> Post-Iterations <==

	Orbital Energies (a.u.)
	-----------------------

	Doubly Occupied:                                                      

	   1A    -20.286547     2A    -20.283542     3A    -11.129955  
	   4A    -11.043566     5A     -1.158451     6A     -1.058107  
	   7A     -0.793158     8A     -0.510465     9A     -0.416059  
	  10A     -0.412622    11A     -0.411271    12A     -0.358679  
	  13A     -0.314939    14A     -0.200826    15A     -0.192834  
	  16A     -0.186773  

	Virtual:                                                              

	  17A      0.132215    18A      0.143431    19A      0.143545  
	  20A      0.145344    21A      0.163402    22A      0.187849  
	  23A      0.229381    24A      0.244345    25A      0.248582  
	  26A      0.255989    27A      0.259836    28A      0.264362  
	  29A      0.274722    30A      0.283194    31A      0.310104  
	  32A      0.324140    33A      0.325467    34A      0.331252  
	  35A      0.358025    36A      0.362697    37A      0.371935  
	  38A      0.375922    39A      0.393517    40A      0.400713  
	  41A      0.425586    42A      0.433239    43A      0.445793  
	  44A      0.465601    45A      0.470986    46A      0.491838  
	  47A      0.496072    48A      0.499219    49A      0.502098  
	  50A      0.518753    51A      0.523599    52A      0.532595  
	  53A      0.539018    54A      0.548118    55A      0.559117  
	  56A      0.572327    57A      0.581532    58A      0.594630  
	  59A      0.597197    60A      0.601745    61A      0.613092  
	  62A      0.633148    63A      0.637721    64A      0.649099  
	  65A      0.658790    66A      0.683502    67A      0.699809  
	  68A      0.706837    69A      0.710616    70A      0.728382  
	  71A      0.739054    72A      0.784494    73A      0.814727  
	  74A      0.842737    75A      0.865477    76A      0.871528  
	  77A      0.896941    78A      0.896962    79A      0.930596  
	  80A      0.940741    81A      0.956868    82A      0.968126  
	  83A      0.970198    84A      0.984553    85A      1.000900  
	  86A      1.010858    87A      1.019701    88A      1.030209  
	  89A      1.042205    90A      1.048145    91A      1.049764  
	  92A      1.055723    93A      1.070780    94A      1.073968  
	  95A      1.085434    96A      1.089846    97A      1.101042  
	  98A      1.113646    99A      1.114007   100A      1.152088  
	 101A      1.157732   102A      1.161804   103A      1.178381  
	 104A      1.192933   105A      1.206676   106A      1.217957  
	 107A      1.231361   108A      1.232038   109A      1.267386  
	 110A      1.272816   111A      1.282260   112A      1.292493  
	 113A      1.294104   114A      1.325154   115A      1.333568  
	 116A      1.338577   117A      1.363633   118A      1.366488  
	 119A      1.374168   120A      1.381268   121A      1.383143  
	 122A      1.415716   123A      1.444846   124A      1.447201  
	 125A      1.478025   126A      1.491188   127A      1.509929  
	 128A      1.527998   129A      1.584217   130A      1.617618  
	 131A      1.623275   132A      1.642442   133A      1.644590  
	 134A      1.683662   135A      1.684078   136A      1.690707  
	 137A      1.711313   138A      1.718097   139A      1.745297  
	 140A      1.763184   141A      1.785713   142A      1.803679  
	 143A      1.809792   144A      1.835388   145A      1.842496  
	 146A      1.872300   147A      1.872391   148A      1.892673  
	 149A      1.910464   150A      1.910827   151A      1.938129  
	 152A      1.943897   153A      1.964961   154A      1.974697  
	 155A      1.986975   156A      2.006248   157A      2.035213  
	 158A      2.039048   159A      2.068989   160A      2.090493  
	 161A      2.094718   162A      2.101832   163A      2.129187  
	 164A      2.177429   165A      2.198595   166A      2.229552  
	 167A      2.279556   168A      2.283262   169A      2.317132  
	 170A      2.340524   171A      2.379594   172A      2.394271  
	 173A      2.418496   174A      2.476695   175A      2.544993  
	 176A      2.608553   177A      2.610678   178A      2.645249  
	 179A      2.665327   180A      2.673889   181A      2.706797  
	 182A      2.741156   183A      2.752689   184A      2.769247  
	 185A      2.800375   186A      2.808128   187A      2.835017  
	 188A      2.837411   189A      2.839840   190A      2.848920  
	 191A      2.868518   192A      2.886967   193A      2.947152  
	 194A      2.951866   195A      2.978001   196A      3.007509  
	 197A      3.020832   198A      3.094004   199A      3.104771  
	 200A      3.142744   201A      3.155128   202A      3.175257  
	 203A      3.194533   204A      3.215340   205A      3.219282  
	 206A      3.231601   207A      3.251942   208A      3.266684  
	 209A      3.295180   210A      3.323326   211A      3.416862  
	 212A      3.474659   213A      3.519088   214A      3.531812  
	 215A      3.565599   216A      3.617388   217A      3.640435  
	 218A      3.692672   219A      3.699956   220A      3.726938  
	 221A      3.760635   222A      3.762519   223A      3.797739  
	 224A      3.807612   225A      3.814058   226A      3.832376  
	 227A      3.882920   228A      3.890977   229A      3.980936  
	 230A      4.028601   231A      4.054833   232A      4.066571  
	 233A      4.071890   234A      4.111727   235A      4.139457  
	 236A      4.146630   237A      4.162376   238A      4.209436  
	 239A      4.265926   240A      4.266881   241A      4.275256  
	 242A      4.351625   243A      4.371223   244A      4.382211  
	 245A      4.421335   246A      4.502132   247A      4.528672  
	 248A      4.561599   249A      4.583576   250A      4.636357  
	 251A      4.691362   252A      4.729359   253A      4.735243  
	 254A      4.793259   255A      4.813084   256A      4.834991  
	 257A      4.866928   258A      4.878343   259A      4.930889  
	 260A      4.982510   261A      4.999882   262A      5.042809  
	 263A      5.118845   264A      5.134283   265A      5.135819  
	 266A      5.151731   267A      5.192957   268A      5.222444  
	 269A      5.259825   270A      5.261049   271A      5.278793  
	 272A      5.340441   273A      5.401258   274A      5.472670  
	 275A      5.493921   276A      5.516979   277A      5.538832  
	 278A      5.577490   279A      5.629547   280A      5.799644  
	 281A      5.802139   282A      5.813435   283A      5.854069  
	 284A      5.871635   285A      5.903334   286A      5.926923  
	 287A      5.990664   288A      6.163774   289A      6.213908  
	 290A      6.253139   291A      6.297649   292A      6.340032  
	 293A      6.409984   294A      6.513707   295A      6.525608  
	 296A      6.681212   297A      6.873991   298A      6.908399  
	 299A      6.969144   300A      7.091125   301A      7.133912  
	 302A      7.134688   303A      7.184888   304A      7.211768  
	 305A      7.227494   306A      7.283165   307A      7.374763  
	 308A      7.377936   309A      7.427903   310A      7.447360  
	 311A      7.481926   312A      7.574495   313A      7.584641  
	 314A      7.610717   315A      7.684568   316A      7.808199  
	 317A      7.834791   318A      7.882504   319A      7.931868  
	 320A      8.012946   321A      8.019813   322A      8.098827  
	 323A      8.140115   324A      8.239936   325A      8.250213  
	 326A      8.256106   327A      8.395757   328A      8.519929  
	 329A      8.535989   330A      9.130379   331A      9.207405  
	 332A      9.952465   333A     10.107186   334A     10.265317  
	 335A     10.681428   336A     11.512265   337A     11.947031  
	 338A     12.463959   339A     14.012556   340A     14.123831  
	 341A     14.816928   342A     15.511593   343A     17.397763  
	 344A     18.917070   345A     67.005213  

	Final Occupation by Irrep:
	          A 
	DOCC [    16 ]

  Energy converged.

  @RHF Final Energy:  -227.32868411392838

   => Energetics <=

    Nuclear Repulsion Energy =            111.8813035102005955
    One-Electron Energy =                -540.9043904561001455
    Two-Electron Energy =                 201.6944028319707911
    DFT Exchange-Correlation Energy =       0.0000000000000000
    Empirical Dispersion Energy =           0.0000000000000000
    Total Energy =                       -227.3286841139287446



Properties will be evaluated at   0.000000,   0.000000,   0.000000 Bohr
  ==> Properties <==


Properties computed using the SCF density density matrix
  Nuclear Dipole Moment: (a.u.)
     X:    38.8107      Y:    23.6896      Z:   -10.0412

  Electronic Dipole Moment: (a.u.)
     X:   -38.6967      Y:   -23.5848      Z:    10.0171

  Dipole Moment: (a.u.)
     X:     0.1140      Y:     0.1048      Z:    -0.0240     Total:     0.1567

  Dipole Moment: (Debye)
     X:     0.2897      Y:     0.2664      Z:    -0.0611     Total:     0.3983


  Saving occupied orbitals to File 180.

  Saving SAPT 2-MONOMER_A file.

*** tstop() called on node32.bme.utexas.edu at Fri Aug 29 11:58:27 2014
Module time:
	user time   =     165.29 seconds =       2.75 minutes
	system time =       2.20 seconds =       0.04 minutes
	total time  =         45 seconds =       0.75 minutes
Total time:
	user time   =     369.75 seconds =       6.16 minutes
	system time =       4.82 seconds =       0.08 minutes
	total time  =        100 seconds =       1.67 minutes

  //>>>>>>>>>>>>>>>>>>>>>>>>>>>>>>>>>>>//
  //            Monomer B HF           //
  //<<<<<<<<<<<<<<<<<<<<<<<<<<<<<<<<<<<//


  No DF_BASIS_SCF auxiliary basis selected, defaulting to aug-cc-pvtz-jkfit


*** tstart() called on node32.bme.utexas.edu
*** at Fri Aug 29 11:58:27 2014


         ---------------------------------------------------------
                                   SCF
            by Justin Turney, Rob Parrish, and Andy Simmonett
                              RHF Reference
                        4 Threads,   7000 MiB Core
         ---------------------------------------------------------

  ==> Geometry <==

    Molecular point group: c1
    Full point group: C1

    Geometry (in Angstrom), charge = 0, multiplicity = 1:

       Center              X                  Y                   Z       
    ------------   -----------------  -----------------  -----------------
           C(Gh)      1.766879231269     1.114214385804    -0.451591708633
           C(Gh)      0.499536231269     0.291505385804    -0.131318708633
           O(Gh)      0.563952231269    -0.946542614196    -0.346124708633
           O(Gh)     -0.470357768731     0.960033385804     0.315145291367
           H(Gh)      2.100774231269     1.628622385804     0.449930291367
           H(Gh)      2.567010231269     0.482812385804    -0.832271708633
           H(Gh)      1.522684231269     1.882316385804    -1.185914708633
           O         -2.001361668731    -1.208839214196     0.519775391367
           H         -1.758357668731    -0.269010214196     0.579681391367
           H         -1.140281668731    -1.491358214196     0.171642391367

  Running in c1 symmetry.

  Nuclear repulsion =    9.083719929703802

  Charge       = 0
  Multiplicity = 1
  Electrons    = 10
  Nalpha       = 5
  Nbeta        = 5

  ==> Algorithm <==

  SCF Algorithm Type is DF.
  DIIS enabled.
  MOM disabled.
  Fractional occupation disabled.
  Guess Type is CORE.
  Energy threshold   = 1.00e-08
  Density threshold  = 1.00e-08
  Integral threshold = 0.00e+00

  ==> Primary Basis <==

  Basis Set: AUG-CC-PVTZ
    Number of shells: 115
    Number of basis function: 345
    Number of Cartesian functions: 400
    Spherical Harmonics?: true
    Max angular momentum: 3

  ==> Pre-Iterations <==

   -------------------------------------------------------
    Irrep   Nso     Nmo     Nalpha   Nbeta   Ndocc  Nsocc
   -------------------------------------------------------
     A        345     345       0       0       0       0
   -------------------------------------------------------
    Total     345     345       5       5       5       0
   -------------------------------------------------------

 OEINTS: Wrapper to libmints.
   by Justin Turney

   Calculation information:
      Number of atoms:                  10
      Number of AO shells:             115
      Number of SO shells:             115
      Number of primitives:            205
      Number of atomic orbitals:       400
      Number of basis functions:       345

      Number of irreps:                  1
      Number of functions per irrep: [ 345 ]

      Overlap, kinetic, potential, dipole, and quadrupole integrals
        stored in file 35.

  ==> Integral Setup <==

  ==> DFJK: Density-Fitted J/K Matrices <==

    J tasked:                  Yes
    K tasked:                  Yes
    wK tasked:                  No
    OpenMP threads:              4
    Integrals threads:           4
    Memory (MB):              5006
    Algorithm:                Core
    Integral Cache:           LOAD
    Schwarz Cutoff:          0E+00
    Fitting Condition:       1E-12

   => Auxiliary Basis Set <=

  Basis Set: aug-cc-pvtz-jkfit
    Number of shells: 220
    Number of basis function: 750
    Number of Cartesian functions: 930
    Spherical Harmonics?: true
    Max angular momentum: 4

  Minimum eigenvalue in the overlap matrix is 1.6029449130E-05.
  Using Symmetric Orthogonalization.
  SCF Guess: Core (One-Electron) Hamiltonian.

  Guess energy:   -60.20842388408367

  ==> Iterations <==

                        Total Energy        Delta E     RMS |[F,P]|

   @RHF iter   1:   -61.25383105152481   -6.12538e+01   2.34602e-02 
   @RHF iter   2:   -61.26563480459394   -1.18038e-02   8.23568e-03 DIIS
   @RHF iter   3:   -72.49107470778263   -1.12254e+01   1.01040e-02 DIIS
   @RHF iter   4:   -75.08011163576053   -2.58904e+00   4.77649e-03 DIIS
   @RHF iter   5:   -76.02580627289881   -9.45695e-01   6.59081e-04 DIIS
   @RHF iter   6:   -76.05548292261275   -2.96766e-02   1.49374e-04 DIIS
   @RHF iter   7:   -76.05628830644466   -8.05384e-04   2.19266e-05 DIIS
   @RHF iter   8:   -76.05630882152924   -2.05151e-05   3.70320e-06 DIIS
   @RHF iter   9:   -76.05630956735817   -7.45829e-07   5.94053e-07 DIIS
   @RHF iter  10:   -76.05630960383597   -3.64778e-08   1.14098e-07 DIIS
   @RHF iter  11:   -76.05630960539584   -1.55987e-09   3.39304e-08 DIIS
   @RHF iter  12:   -76.05630960549077   -9.49285e-11   5.62185e-09 DIIS

  ==> Post-Iterations <==

	Orbital Energies (a.u.)
	-----------------------

	Doubly Occupied:                                                      

	   1A    -20.573775     2A     -1.353449     3A     -0.690153  
	   4A     -0.601508     5A     -0.511975  

	Virtual:                                                              

	   6A      0.015013     7A      0.037066     8A      0.041756  
	   9A      0.042017    10A      0.060485    11A      0.072244  
	  12A      0.085754    13A      0.092852    14A      0.100345  
	  15A      0.115761    16A      0.119739    17A      0.122681  
	  18A      0.151540    19A      0.155080    20A      0.169816  
	  21A      0.181099    22A      0.186056    23A      0.196373  
	  24A      0.199740    25A      0.212383    26A      0.215335  
	  27A      0.219877    28A      0.230371    29A      0.236813  
	  30A      0.241600    31A      0.256105    32A      0.292127  
	  33A      0.298132    34A      0.300664    35A      0.315203  
	  36A      0.318713    37A      0.329619    38A      0.334677  
	  39A      0.341602    40A      0.361180    41A      0.366407  
	  42A      0.372010    43A      0.386878    44A      0.391573  
	  45A      0.409073    46A      0.417061    47A      0.419818  
	  48A      0.425373    49A      0.447162    50A      0.461245  
	  51A      0.474048    52A      0.486789    53A      0.496090  
	  54A      0.514837    55A      0.517084    56A      0.525343  
	  57A      0.534235    58A      0.553685    59A      0.579008  
	  60A      0.589632    61A      0.603138    62A      0.610221  
	  63A      0.617894    64A      0.643301    65A      0.663942  
	  66A      0.670055    67A      0.684910    68A      0.696997  
	  69A      0.716035    70A      0.730961    71A      0.741420  
	  72A      0.767819    73A      0.769522    74A      0.788753  
	  75A      0.808180    76A      0.831524    77A      0.839495  
	  78A      0.853566    79A      0.867890    80A      0.868693  
	  81A      0.879857    82A      0.904941    83A      0.912219  
	  84A      0.931687    85A      0.932806    86A      0.960766  
	  87A      0.967707    88A      0.978852    89A      0.980996  
	  90A      1.006572    91A      1.011221    92A      1.025384  
	  93A      1.031537    94A      1.050249    95A      1.058909  
	  96A      1.064144    97A      1.079782    98A      1.095670  
	  99A      1.103191   100A      1.104634   101A      1.109016  
	 102A      1.127123   103A      1.169448   104A      1.172282  
	 105A      1.188020   106A      1.193541   107A      1.204192  
	 108A      1.211530   109A      1.233902   110A      1.239688  
	 111A      1.245784   112A      1.248607   113A      1.280105  
	 114A      1.281796   115A      1.286799   116A      1.313166  
	 117A      1.332259   118A      1.342782   119A      1.343926  
	 120A      1.371158   121A      1.377004   122A      1.396095  
	 123A      1.412395   124A      1.418490   125A      1.441437  
	 126A      1.462116   127A      1.480951   128A      1.522955  
	 129A      1.572947   130A      1.583535   131A      1.599135  
	 132A      1.615915   133A      1.642891   134A      1.650853  
	 135A      1.663002   136A      1.671229   137A      1.712002  
	 138A      1.732586   139A      1.760617   140A      1.775087  
	 141A      1.801226   142A      1.816382   143A      1.834026  
	 144A      1.864126   145A      1.870875   146A      1.884288  
	 147A      1.948766   148A      1.959374   149A      1.966926  
	 150A      1.974105   151A      2.013675   152A      2.058629  
	 153A      2.065121   154A      2.074179   155A      2.100290  
	 156A      2.119840   157A      2.133826   158A      2.156269  
	 159A      2.165783   160A      2.168611   161A      2.206597  
	 162A      2.321545   163A      2.336959   164A      2.394186  
	 165A      2.415278   166A      2.422410   167A      2.426632  
	 168A      2.453301   169A      2.470967   170A      2.538029  
	 171A      2.538726   172A      2.567634   173A      2.571567  
	 174A      2.583895   175A      2.594252   176A      2.611757  
	 177A      2.622166   178A      2.654955   179A      2.667785  
	 180A      2.686439   181A      2.691948   182A      2.704221  
	 183A      2.716237   184A      2.726169   185A      2.763196  
	 186A      2.774807   187A      2.783682   188A      2.789976  
	 189A      2.803712   190A      2.848381   191A      2.873296  
	 192A      2.880225   193A      2.902946   194A      2.915485  
	 195A      2.932670   196A      2.987746   197A      3.007400  
	 198A      3.043411   199A      3.089412   200A      3.169065  
	 201A      3.207250   202A      3.227555   203A      3.234318  
	 204A      3.259827   205A      3.369199   206A      3.431270  
	 207A      3.458810   208A      3.541914   209A      3.570017  
	 210A      3.615783   211A      3.685999   212A      3.809580  
	 213A      3.859156   214A      3.865902   215A      3.923323  
	 216A      3.996365   217A      4.047021   218A      4.051150  
	 219A      4.074452   220A      4.096891   221A      4.128962  
	 222A      4.146594   223A      4.149649   224A      4.181850  
	 225A      4.208961   226A      4.243475   227A      4.265048  
	 228A      4.299295   229A      4.303770   230A      4.408682  
	 231A      4.421332   232A      4.425595   233A      4.452942  
	 234A      4.481857   235A      4.500731   236A      4.516978  
	 237A      4.527571   238A      4.571854   239A      4.600210  
	 240A      4.640840   241A      4.649807   242A      4.676040  
	 243A      4.704190   244A      4.782786   245A      4.816562  
	 246A      4.868106   247A      4.876383   248A      4.985760  
	 249A      5.008510   250A      5.030565   251A      5.034116  
	 252A      5.048569   253A      5.094273   254A      5.124357  
	 255A      5.131672   256A      5.166028   257A      5.235328  
	 258A      5.262447   259A      5.310960   260A      5.338247  
	 261A      5.346698   262A      5.381162   263A      5.428761  
	 264A      5.433956   265A      5.469688   266A      5.473004  
	 267A      5.508850   268A      5.511293   269A      5.548125  
	 270A      5.580988   271A      5.648064   272A      5.682262  
	 273A      5.731404   274A      5.884952   275A      6.023759  
	 276A      6.164336   277A      6.178336   278A      6.204831  
	 279A      6.218280   280A      6.400521   281A      6.406169  
	 282A      6.550387   283A      6.605891   284A      6.686050  
	 285A      6.827725   286A      6.853081   287A      7.082948  
	 288A      7.103219   289A      7.128828   290A      7.150836  
	 291A      7.314020   292A      7.333961   293A      7.351946  
	 294A      7.402465   295A      7.439375   296A      7.466172  
	 297A      7.548943   298A      7.710568   299A      7.718674  
	 300A      7.755109   301A      7.784178   302A      7.794932  
	 303A      7.802235   304A      7.807587   305A      7.846542  
	 306A      7.869083   307A      7.910116   308A      7.935525  
	 309A      7.986993   310A      8.069469   311A      8.107027  
	 312A      8.176915   313A      8.185707   314A      8.187814  
	 315A      8.262455   316A      8.339618   317A      8.632446  
	 318A      8.801608   319A      8.926919   320A      8.998302  
	 321A      9.586168   322A      9.686005   323A      9.866333  
	 324A      9.878863   325A     10.004870   326A     10.059528  
	 327A     10.133589   328A     10.134607   329A     10.244091  
	 330A     10.335337   331A     10.476904   332A     10.517545  
	 333A     11.564690   334A     11.809447   335A     11.883705  
	 336A     12.121424   337A     12.873479   338A     12.945454  
	 339A     13.715112   340A     13.994999   341A     16.757256  
	 342A     49.557656   343A     52.803467   344A     63.577889  
	 345A     67.539766  

	Final Occupation by Irrep:
	          A 
	DOCC [     5 ]

  Energy converged.

  @RHF Final Energy:   -76.05630960549077

   => Energetics <=

    Nuclear Repulsion Energy =              9.0837199297038023
    One-Electron Energy =                -122.8183263169750177
    Two-Electron Energy =                  37.6782967817803751
    DFT Exchange-Correlation Energy =       0.0000000000000000
    Empirical Dispersion Energy =           0.0000000000000000
    Total Energy =                        -76.0563096054908385



Properties will be evaluated at   0.000000,   0.000000,   0.000000 Bohr
  ==> Properties <==


Properties computed using the SCF density density matrix
  Nuclear Dipole Moment: (a.u.)
     X:   -35.7338      Y:   -21.6016      Z:     9.2777

  Electronic Dipole Moment: (a.u.)
     X:    36.4433      Y:    22.0236      Z:    -9.4629

  Dipole Moment: (a.u.)
     X:     0.7094      Y:     0.4220      Z:    -0.1853     Total:     0.8460

  Dipole Moment: (Debye)
     X:     1.8032      Y:     1.0725      Z:    -0.4709     Total:     2.1502


  Saving occupied orbitals to File 180.

  Saving SAPT 2-MONOMER_B file.

*** tstop() called on node32.bme.utexas.edu at Fri Aug 29 11:58:56 2014
Module time:
	user time   =     107.60 seconds =       1.79 minutes
	system time =       1.94 seconds =       0.03 minutes
	total time  =         29 seconds =       0.48 minutes
Total time:
	user time   =     477.37 seconds =       7.96 minutes
	system time =       6.76 seconds =       0.11 minutes
	total time  =        129 seconds =       2.15 minutes
  No DF_BASIS_SAPT auxiliary basis selected, defaulting to aug-cc-pvtz-ri

  //>>>>>>>>>>>>>>>>>>>>>>>>>>>>>>>>>>>//
  //               SAPT2+              //
  //<<<<<<<<<<<<<<<<<<<<<<<<<<<<<<<<<<<//


*** tstart() called on node32.bme.utexas.edu
*** at Fri Aug 29 11:58:56 2014

        SAPT2+  
    Ed Hohenstein
     6 June 2009

      Orbital Information
  --------------------------
    NSO        =       345
    NMO        =       345
    NRI        =       760
    NOCC A     =        16
    NOCC B     =         5
    FOCC A     =         4
    FOCC B     =         1
    NVIR A     =       329
    NVIR B     =       340

    Estimated memory usage: 1413.1 MB

    Elst10,r            =    -0.058815993007 H
    Exch10 (S^2)        =     0.048657058223 H
    Exch10              =     0.049315545584 H
    Ind20,r (A<-B)      =    -0.017469012667 H
    Ind20,r (B<-A)      =    -0.010822304315 H
    Ind20,r             =    -0.028291316982 H
    Exch-Ind20,r (A<-B) =     0.011965256143 H
    Exch-Ind20,r (B<-A) =     0.005639770950 H
    Exch-Ind20,r        =     0.017605027093 H
    Disp20              =    -0.016317461831 H
    Exch-Disp20         =     0.004174755013 H
    Elst12,r            =    -0.001557574182 H
    Exch11              =     0.000631113465 H
    Exch12              =     0.008858044189 H
    Ind22               =    -0.006353110992 H
    Disp21              =     0.001157168814 H
    Disp22 (SDQ)        =    -0.000944265961 H

    (i =   1 of   4)        584 seconds
    (i =   2 of   4)       1187 seconds
    (i =   3 of   4)       1784 seconds
    (i =   4 of   4)       2379 seconds

    Disp220 (T)         =    -0.001745547138 H

    (i =   1 of  12)        174 seconds
    (i =   2 of  12)        348 seconds
    (i =   3 of  12)        522 seconds
    (i =   4 of  12)        697 seconds
    (i =   5 of  12)        869 seconds
    (i =   6 of  12)       1044 seconds
    (i =   7 of  12)       1218 seconds
    (i =   8 of  12)       1392 seconds
    (i =   9 of  12)       1567 seconds
    (i =  10 of  12)       1742 seconds
    (i =  11 of  12)       1916 seconds
    (i =  12 of  12)       2087 seconds

    Disp202 (T)         =    -0.001474910032 H

    Disp22 (T)          =    -0.003220457171 H

    SAPT Results  
  -----------------------------------------------------------------------
    Electrostatics         -60.37356719 mH     -37.88498696 kcal mol^-1
      Elst10,r             -58.81599301 mH     -36.90759436 kcal mol^-1
      Elst12,r              -1.55757418 mH      -0.97739260 kcal mol^-1

    Exchange                58.80470324 mH      36.90050993 kcal mol^-1
      Exch10                49.31554558 mH      30.94597335 kcal mol^-1
      Exch10(S^2)           48.65705822 mH      30.53276628 kcal mol^-1
      Exch11(S^2)            0.63111347 mH       0.39602969 kcal mol^-1
      Exch12(S^2)            8.85804419 mH       5.55850688 kcal mol^-1

    Induction              -19.10990209 mH     -11.99164510 kcal mol^-1
      Ind20,r              -28.29131698 mH     -17.75307017 kcal mol^-1
      Ind22                 -6.35311099 mH      -3.98663750 kcal mol^-1
      Exch-Ind20,r          17.60502709 mH      11.04732175 kcal mol^-1
      Exch-Ind22             3.95339288 mH       2.48079159 kcal mol^-1
      delta HF,r (2)        -6.02389408 mH      -3.78005077 kcal mol^-1

    Dispersion             -15.15026114 mH      -9.50693279 kcal mol^-1
      Disp20               -16.31746183 mH     -10.23936231 kcal mol^-1
      Disp21                 1.15716881 mH       0.72613442 kcal mol^-1
      Disp22 (SDQ)          -0.94426596 mH      -0.59253586 kcal mol^-1
      Disp22 (T)            -3.22045717 mH      -2.02086747 kcal mol^-1
      Exch-Disp20            4.17475501 mH       2.61969843 kcal mol^-1

    Total HF               -26.21063140 mH     -16.44742020 kcal mol^-1
    Total SAPT0            -38.35333822 mH     -24.06708409 kcal mol^-1
    Total SAPT2            -32.82147285 mH     -20.59578602 kcal mol^-1
    Total SAPT2+           -35.82902717 mH     -22.48305493 kcal mol^-1

*** tstop() called on node32.bme.utexas.edu at Fri Aug 29 13:40:31 2014
Module time:
	user time   =   22562.67 seconds =     376.04 minutes
	system time =     157.43 seconds =       2.62 minutes
	total time  =       6095 seconds =     101.58 minutes
Total time:
	user time   =   23040.06 seconds =     384.00 minutes
	system time =     164.20 seconds =       2.74 minutes
	total time  =       6224 seconds =     103.73 minutes

*** PSI4 exiting successfully. Buy a developer a beer!
