
    -----------------------------------------------------------------------
          Psi4: An Open-Source Ab Initio Electronic Structure Package
                               Psi4 1.4a2.dev224 

                         Git: Rev {master} e453b16 


    R. M. Parrish, L. A. Burns, D. G. A. Smith, A. C. Simmonett,
    A. E. DePrince III, E. G. Hohenstein, U. Bozkaya, A. Yu. Sokolov,
    R. Di Remigio, R. M. Richard, J. F. Gonthier, A. M. James,
    H. R. McAlexander, A. Kumar, M. Saitow, X. Wang, B. P. Pritchard,
    P. Verma, H. F. Schaefer III, K. Patkowski, R. A. King, E. F. Valeev,
    F. A. Evangelista, J. M. Turney, T. D. Crawford, and C. D. Sherrill,
    J. Chem. Theory Comput. 13(7) pp 3185--3197 (2017).
    (doi: 10.1021/acs.jctc.7b00174)


                         Additional Contributions by
    P. Kraus, H. Kruse, M. H. Lechner, M. C. Schieber, R. A. Shaw,
    A. Alenaizan, R. Galvelis, Z. L. Glick, S. Lehtola, and J. P. Misiewicz

    -----------------------------------------------------------------------


    Psi4 started on: Thursday, 23 April 2020 10:52PM

    Process ID: 73448
    Host:       node43.bme.utexas.edu
    PSIDATADIR: /home/liuchw/anaconda3/envs/psi4env/share/psi4
    Memory:     500.0 MiB
    Threads:    8
    
  ==> Input File <==

--------------------------------------------------------------------------
#Generated by lconvert.py for sapt job

memory 50 GB

molecule  {
0 1
  C      -0.862230   -0.933550   -0.246020
  C      -3.193910    0.461080   -0.019760
  S      -2.332740   -0.567710   -1.229450
  H      -1.136270   -1.462460    0.664020
  H      -0.216530   -1.567910   -0.847800
  H      -0.331130   -0.015790   -0.003650
  H      -3.400560   -0.108030    0.883810
  H      -2.602360    1.342710    0.216650
  H      -4.133320    0.774680   -0.467680
--
0 1
  O      -4.250130   -4.175390    1.242410
  H      -4.075630   -3.745890    0.394380
  H      -4.743810   -4.962120    1.004550
units angstrom
no_reorient
symmetry c1
}

set {
scf_type DF
basis aug-cc-pvtz
freeze_core True
guess SAD
}
energy('sapt2+')
--------------------------------------------------------------------------

  Memory set to  46.566 GiB by Python driver.

Scratch directory: /scratch/liuchw/

  //>>>>>>>>>>>>>>>>>>>>>>>>>>>>>>>>>>>//
  //              Dimer HF             //
  //<<<<<<<<<<<<<<<<<<<<<<<<<<<<<<<<<<<//


*** tstart() called on node43.bme.utexas.edu
*** at Thu Apr 23 22:52:05 2020

   => Loading Basis Set <=

    Name: AUG-CC-PVTZ
    Role: ORBITAL
    Keyword: BASIS
    atoms 1-2        entry C          line   239 file /home/liuchw/anaconda3/envs/psi4env/share/psi4/basis/aug-cc-pvtz.gbs 
    atoms 3          entry S          line   906 file /home/liuchw/anaconda3/envs/psi4env/share/psi4/basis/aug-cc-pvtz.gbs 
    atoms 4-9, 11-12 entry H          line    40 file /home/liuchw/anaconda3/envs/psi4env/share/psi4/basis/aug-cc-pvtz.gbs 
    atoms 10         entry O          line   331 file /home/liuchw/anaconda3/envs/psi4env/share/psi4/basis/aug-cc-pvtz.gbs 


         ---------------------------------------------------------
                                   SCF
               by Justin Turney, Rob Parrish, Andy Simmonett
                          and Daniel G. A. Smith
                              RHF Reference
                        8 Threads,  47683 MiB Core
         ---------------------------------------------------------

  ==> Geometry <==

    Molecular point group: c1
    Full point group: C1

    Geometry (in Angstrom), charge = 0, multiplicity = 1:

       Center              X                  Y                   Z               Mass       
    ------------   -----------------  -----------------  -----------------  -----------------
         C            1.787262542166     0.321318099244     0.013464904358    12.000000000000
         C           -0.544417457834     1.715948099244     0.239724904358    12.000000000000
         S            0.316752542166     0.687158099244    -0.969965095642    31.972071174400
         H            1.513222542166    -0.207591900756     0.923504904358     1.007825032230
         H            2.432962542166    -0.313041900756    -0.588315095642     1.007825032230
         H            2.318362542166     1.239078099244     0.255834904358     1.007825032230
         H           -0.751067457834     1.146838099244     1.143294904358     1.007825032230
         H            0.047132542166     2.597578099244     0.476134904358     1.007825032230
         H           -1.483827457834     2.029548099244    -0.208195095642     1.007825032230
         O           -1.600637457834    -2.920521900756     1.501894904358    15.994914619570
         H           -1.426137457834    -2.491021900756     0.653864904358     1.007825032230
         H           -2.094317457834    -3.707251900756     1.264034904358     1.007825032230

  Running in c1 symmetry.

  Rotational constants: A =      0.19056  B =      0.04948  C =      0.04475 [cm^-1]
  Rotational constants: A =   5712.94249  B =   1483.35885  C =   1341.44611 [MHz]
  Nuclear repulsion =  157.466072048386536

  Charge       = 0
  Multiplicity = 1
  Electrons    = 44
  Nalpha       = 22
  Nbeta        = 22

  ==> Algorithm <==

  SCF Algorithm Type is DF.
  DIIS enabled.
  MOM disabled.
  Fractional occupation disabled.
  Guess Type is SAD.
  Energy threshold   = 1.00e-08
  Density threshold  = 1.00e-08
  Integral threshold = 0.00e+00

  ==> Primary Basis <==

  Basis Set: AUG-CC-PVTZ
    Blend: AUG-CC-PVTZ
    Number of shells: 130
    Number of basis function: 372
    Number of Cartesian functions: 424
    Spherical Harmonics?: true
    Max angular momentum: 3

   => Loading Basis Set <=

    Name: (AUG-CC-PVTZ AUX)
    Role: JKFIT
    Keyword: DF_BASIS_SCF
    atoms 1-2        entry C          line   162 file /home/liuchw/anaconda3/envs/psi4env/share/psi4/basis/aug-cc-pvtz-jkfit.gbs 
    atoms 3          entry S          line   730 file /home/liuchw/anaconda3/envs/psi4env/share/psi4/basis/aug-cc-pvtz-jkfit.gbs 
    atoms 4-9, 11-12 entry H          line    70 file /home/liuchw/anaconda3/envs/psi4env/share/psi4/basis/aug-cc-pvtz-jkfit.gbs 
    atoms 10         entry O          line   286 file /home/liuchw/anaconda3/envs/psi4env/share/psi4/basis/aug-cc-pvtz-jkfit.gbs 

  ==> Pre-Iterations <==

   -------------------------------------------------------
    Irrep   Nso     Nmo     Nalpha   Nbeta   Ndocc  Nsocc
   -------------------------------------------------------
     A        372     372       0       0       0       0
   -------------------------------------------------------
    Total     372     372      22      22      22       0
   -------------------------------------------------------

  ==> Integral Setup <==

  ==> DiskDFJK: Density-Fitted J/K Matrices <==

    J tasked:                  Yes
    K tasked:                  Yes
    wK tasked:                  No
    OpenMP threads:              8
    Integrals threads:           8
    Memory [MiB]:            35762
    Algorithm:                Core
    Integral Cache:           SAVE
    Schwarz Cutoff:          1E-12
    Fitting Condition:       1E-10

   => Auxiliary Basis Set <=

  Basis Set: (AUG-CC-PVTZ AUX)
    Blend: AUG-CC-PVTZ-JKFIT
    Number of shells: 244
    Number of basis function: 826
    Number of Cartesian functions: 1013
    Spherical Harmonics?: true
    Max angular momentum: 4

  Minimum eigenvalue in the overlap matrix is 2.3862512230E-05.
  Using Symmetric Orthogonalization.

  SCF Guess: Superposition of Atomic Densities via on-the-fly atomic UHF.

  ==> Iterations <==

                           Total Energy        Delta E     RMS |[F,P]|

   @DF-RHF iter SAD:  -551.69946393754708   -5.51699e+02   0.00000e+00 
   @DF-RHF iter   1:  -552.68230635242060   -9.82842e-01   1.64699e-03 DIIS
   @DF-RHF iter   2:  -552.81753256529237   -1.35226e-01   9.65226e-04 DIIS
   @DF-RHF iter   3:  -552.86293266983500   -4.54001e-02   1.35503e-04 DIIS
   @DF-RHF iter   4:  -552.86512631577000   -2.19365e-03   4.27016e-05 DIIS
   @DF-RHF iter   5:  -552.86533283499477   -2.06519e-04   1.10861e-05 DIIS
   @DF-RHF iter   6:  -552.86534747448979   -1.46395e-05   2.82869e-06 DIIS
   @DF-RHF iter   7:  -552.86534882843227   -1.35394e-06   6.53086e-07 DIIS
   @DF-RHF iter   8:  -552.86534892559678   -9.71645e-08   1.99663e-07 DIIS
   @DF-RHF iter   9:  -552.86534893263092   -7.03415e-09   5.00602e-08 DIIS
   @DF-RHF iter  10:  -552.86534893309249   -4.61569e-10   1.31314e-08 DIIS
   @DF-RHF iter  11:  -552.86534893312660   -3.41061e-11   3.17220e-09 DIIS
  Energy and wave function converged.


  ==> Post-Iterations <==

    Orbital Energies [Eh]
    ---------------------

    Doubly Occupied:                                                      

       1A    -91.946600     2A    -20.564960     3A    -11.250104  
       4A    -11.250094     5A     -8.946998     6A     -6.628360  
       7A     -6.627408     8A     -6.626411     9A     -1.348000  
      10A     -1.064122    11A     -0.952231    12A     -0.808099  
      13A     -0.710328    14A     -0.607760    15A     -0.604886  
      16A     -0.582297    17A     -0.577575    18A     -0.566413  
      19A     -0.506992    20A     -0.493385    21A     -0.437103  
      22A     -0.338434  

    Virtual:                                                              

      23A      0.028975    24A      0.036555    25A      0.037820  
      26A      0.046438    27A      0.056129    28A      0.062836  
      29A      0.068647    30A      0.070996    31A      0.086444  
      32A      0.111383    33A      0.117245    34A      0.127287  
      35A      0.135581    36A      0.136543    37A      0.142517  
      38A      0.143738    39A      0.146149    40A      0.147164  
      41A      0.160894    42A      0.176640    43A      0.183707  
      44A      0.184418    45A      0.202005    46A      0.203331  
      47A      0.216275    48A      0.232854    49A      0.233022  
      50A      0.234145    51A      0.252370    52A      0.259825  
      53A      0.277417    54A      0.284047    55A      0.305354  
      56A      0.306000    57A      0.308852    58A      0.320784  
      59A      0.326399    60A      0.327911    61A      0.335756  
      62A      0.340564    63A      0.351232    64A      0.355075  
      65A      0.356734    66A      0.367818    67A      0.370379  
      68A      0.380164    69A      0.387756    70A      0.388203  
      71A      0.401719    72A      0.409948    73A      0.409973  
      74A      0.419630    75A      0.437540    76A      0.438096  
      77A      0.438519    78A      0.445172    79A      0.447078  
      80A      0.452286    81A      0.461530    82A      0.468421  
      83A      0.481417    84A      0.482793    85A      0.488227  
      86A      0.498028    87A      0.510784    88A      0.530866  
      89A      0.536717    90A      0.554015    91A      0.561738  
      92A      0.564149    93A      0.565418    94A      0.616665  
      95A      0.629073    96A      0.634370    97A      0.671932  
      98A      0.698122    99A      0.708629   100A      0.717354  
     101A      0.723983   102A      0.730893   103A      0.736809  
     104A      0.743668   105A      0.751896   106A      0.765592  
     107A      0.766071   108A      0.780304   109A      0.810041  
     110A      0.828034   111A      0.832050   112A      0.846379  
     113A      0.853152   114A      0.856789   115A      0.858934  
     116A      0.870386   117A      0.876349   118A      0.888378  
     119A      0.889565   120A      0.896830   121A      0.900695  
     122A      0.916172   123A      0.929680   124A      0.933294  
     125A      0.934757   126A      0.941398   127A      0.952189  
     128A      0.955222   129A      0.964333   130A      0.973822  
     131A      0.981593   132A      0.985377   133A      0.989001  
     134A      1.001873   135A      1.016438   136A      1.021347  
     137A      1.024071   138A      1.025555   139A      1.037355  
     140A      1.053280   141A      1.057122   142A      1.072220  
     143A      1.077537   144A      1.079645   145A      1.097379  
     146A      1.110414   147A      1.116862   148A      1.124943  
     149A      1.134141   150A      1.155663   151A      1.172082  
     152A      1.177949   153A      1.181346   154A      1.197863  
     155A      1.198325   156A      1.231359   157A      1.234602  
     158A      1.243834   159A      1.247726   160A      1.260541  
     161A      1.268420   162A      1.277507   163A      1.303019  
     164A      1.307512   165A      1.315619   166A      1.320885  
     167A      1.327890   168A      1.347066   169A      1.362537  
     170A      1.376868   171A      1.414714   172A      1.421161  
     173A      1.440391   174A      1.442526   175A      1.474035  
     176A      1.485672   177A      1.534758   178A      1.558304  
     179A      1.573653   180A      1.575580   181A      1.597864  
     182A      1.600561   183A      1.618663   184A      1.627726  
     185A      1.632021   186A      1.654397   187A      1.656954  
     188A      1.681922   189A      1.682118   190A      1.712399  
     191A      1.720771   192A      1.754682   193A      1.761921  
     194A      1.775189   195A      1.780350   196A      1.788654  
     197A      1.821410   198A      1.826144   199A      1.831709  
     200A      1.834831   201A      1.843884   202A      1.851027  
     203A      1.854769   204A      1.898534   205A      1.937089  
     206A      1.950559   207A      1.989539   208A      2.008417  
     209A      2.020839   210A      2.074662   211A      2.096289  
     212A      2.098621   213A      2.104854   214A      2.128493  
     215A      2.155853   216A      2.197893   217A      2.213124  
     218A      2.217986   219A      2.228195   220A      2.237856  
     221A      2.264661   222A      2.305701   223A      2.338240  
     224A      2.354738   225A      2.355945   226A      2.393194  
     227A      2.409356   228A      2.410451   229A      2.456234  
     230A      2.456878   231A      2.467409   232A      2.486071  
     233A      2.494150   234A      2.523053   235A      2.565469  
     236A      2.605145   237A      2.633537   238A      2.657252  
     239A      2.677824   240A      2.720633   241A      2.723995  
     242A      2.735374   243A      2.771164   244A      2.785906  
     245A      2.811548   246A      2.860498   247A      2.862076  
     248A      2.918265   249A      2.923659   250A      3.037819  
     251A      3.085748   252A      3.099722   253A      3.300395  
     254A      3.384433   255A      3.417884   256A      3.453664  
     257A      3.508935   258A      3.536642   259A      3.545045  
     260A      3.574952   261A      3.607863   262A      3.613234  
     263A      3.638490   264A      3.642082   265A      3.661060  
     266A      3.668704   267A      3.671000   268A      3.690246  
     269A      3.733369   270A      3.774691   271A      3.794237  
     272A      3.798219   273A      3.858442   274A      3.889287  
     275A      3.900607   276A      3.952114   277A      3.960624  
     278A      3.961788   279A      4.028269   280A      4.054780  
     281A      4.058694   282A      4.097650   283A      4.103683  
     284A      4.112906   285A      4.119841   286A      4.144533  
     287A      4.166749   288A      4.190461   289A      4.203352  
     290A      4.204828   291A      4.207609   292A      4.232995  
     293A      4.250974   294A      4.268082   295A      4.271232  
     296A      4.283848   297A      4.310184   298A      4.395605  
     299A      4.403242   300A      4.412889   301A      4.419787  
     302A      4.480281   303A      4.503484   304A      4.505071  
     305A      4.535070   306A      4.542063   307A      4.561060  
     308A      4.566860   309A      4.601348   310A      4.677741  
     311A      4.749350   312A      4.779251   313A      4.801023  
     314A      4.814360   315A      4.824265   316A      4.863331  
     317A      4.926165   318A      4.941682   319A      4.948187  
     320A      4.951583   321A      4.981599   322A      5.032768  
     323A      5.125017   324A      5.125427   325A      5.151501  
     326A      5.170825   327A      5.183402   328A      5.184263  
     329A      5.211802   330A      5.248287   331A      5.262693  
     332A      5.271520   333A      5.334672   334A      5.340467  
     335A      5.524400   336A      5.550676   337A      5.558961  
     338A      5.570893   339A      5.580917   340A      5.583676  
     341A      5.641219   342A      5.658193   343A      5.707613  
     344A      5.713992   345A      5.895072   346A      6.033310  
     347A      6.044807   348A      6.074566   349A      6.107560  
     350A      6.143902   351A      6.207098   352A      6.539049  
     353A      6.666236   354A      6.677226   355A      6.708263  
     356A      6.726944   357A      6.769984   358A      6.915588  
     359A      7.143350   360A      7.268701   361A      7.311289  
     362A      7.327038   363A      7.357419   364A      7.377775  
     365A      7.547512   366A      7.664818   367A      7.911985  
     368A      7.934984   369A      8.808871   370A     15.802341  
     371A     17.105090   372A     17.167716  

    Final Occupation by Irrep:
              A 
    DOCC [    22 ]

  @DF-RHF Final Energy:  -552.86534893312660

   => Energetics <=

    Nuclear Repulsion Energy =            157.4660720483865362
    One-Electron Energy =               -1073.7857212836340750
    Two-Electron Energy =                 363.4543003021209415
    Total Energy =                       -552.8653489331265973

Computation Completed


Properties will be evaluated at   0.000000,   0.000000,   0.000000 [a0]

Properties computed using the SCF density matrix

  Nuclear Dipole Moment: [e a0]
     X:     0.5222      Y:     0.2798      Z:     3.6566

  Electronic Dipole Moment: [e a0]
     X:    -0.5292      Y:    -0.2829      Z:    -3.7093

  Dipole Moment: [e a0]
     X:    -0.0070      Y:    -0.0031      Z:    -0.0527     Total:     0.0532

  Dipole Moment: [D]
     X:    -0.0179      Y:    -0.0078      Z:    -0.1339     Total:     0.1353


*** tstop() called on node43.bme.utexas.edu at Thu Apr 23 22:52:15 2020
Module time:
	user time   =      63.80 seconds =       1.06 minutes
	system time =       2.16 seconds =       0.04 minutes
	total time  =         10 seconds =       0.17 minutes
Total time:
	user time   =      63.80 seconds =       1.06 minutes
	system time =       2.16 seconds =       0.04 minutes
	total time  =         10 seconds =       0.17 minutes

  //>>>>>>>>>>>>>>>>>>>>>>>>>>>>>>>>>>>//
  //            Monomer A HF           //
  //<<<<<<<<<<<<<<<<<<<<<<<<<<<<<<<<<<<//


*** tstart() called on node43.bme.utexas.edu
*** at Thu Apr 23 22:52:15 2020

   => Loading Basis Set <=

    Name: AUG-CC-PVTZ
    Role: ORBITAL
    Keyword: BASIS
    atoms 1-2        entry C          line   239 file /home/liuchw/anaconda3/envs/psi4env/share/psi4/basis/aug-cc-pvtz.gbs 
    atoms 3          entry S          line   906 file /home/liuchw/anaconda3/envs/psi4env/share/psi4/basis/aug-cc-pvtz.gbs 
    atoms 4-9, 11-12 entry H          line    40 file /home/liuchw/anaconda3/envs/psi4env/share/psi4/basis/aug-cc-pvtz.gbs 
    atoms 10         entry O          line   331 file /home/liuchw/anaconda3/envs/psi4env/share/psi4/basis/aug-cc-pvtz.gbs 


         ---------------------------------------------------------
                                   SCF
               by Justin Turney, Rob Parrish, Andy Simmonett
                          and Daniel G. A. Smith
                              RHF Reference
                        8 Threads,  47683 MiB Core
         ---------------------------------------------------------

  ==> Geometry <==

    Molecular point group: c1
    Full point group: C1

    Geometry (in Angstrom), charge = 0, multiplicity = 1:

       Center              X                  Y                   Z               Mass       
    ------------   -----------------  -----------------  -----------------  -----------------
         C            1.787262542166     0.321318099244     0.013464904358    12.000000000000
         C           -0.544417457834     1.715948099244     0.239724904358    12.000000000000
         S            0.316752542166     0.687158099244    -0.969965095642    31.972071174400
         H            1.513222542166    -0.207591900756     0.923504904358     1.007825032230
         H            2.432962542166    -0.313041900756    -0.588315095642     1.007825032230
         H            2.318362542166     1.239078099244     0.255834904358     1.007825032230
         H           -0.751067457834     1.146838099244     1.143294904358     1.007825032230
         H            0.047132542166     2.597578099244     0.476134904358     1.007825032230
         H           -1.483827457834     2.029548099244    -0.208195095642     1.007825032230
      Gh(O)          -1.600637457834    -2.920521900756     1.501894904358    15.994914619570
      Gh(H)          -1.426137457834    -2.491021900756     0.653864904358     1.007825032230
      Gh(H)          -2.094317457834    -3.707251900756     1.264034904358     1.007825032230

  Running in c1 symmetry.

  Rotational constants: A =      0.19056  B =      0.04948  C =      0.04475 [cm^-1]
  Rotational constants: A =   5712.94249  B =   1483.35885  C =   1341.44611 [MHz]
  Nuclear repulsion =  111.204610993488814

  Charge       = 0
  Multiplicity = 1
  Electrons    = 34
  Nalpha       = 17
  Nbeta        = 17

  ==> Algorithm <==

  SCF Algorithm Type is DF.
  DIIS enabled.
  MOM disabled.
  Fractional occupation disabled.
  Guess Type is SAD.
  Energy threshold   = 1.00e-08
  Density threshold  = 1.00e-08
  Integral threshold = 0.00e+00

  ==> Primary Basis <==

  Basis Set: AUG-CC-PVTZ
    Blend: AUG-CC-PVTZ
    Number of shells: 130
    Number of basis function: 372
    Number of Cartesian functions: 424
    Spherical Harmonics?: true
    Max angular momentum: 3

   => Loading Basis Set <=

    Name: (AUG-CC-PVTZ AUX)
    Role: JKFIT
    Keyword: DF_BASIS_SCF
    atoms 1-2        entry C          line   162 file /home/liuchw/anaconda3/envs/psi4env/share/psi4/basis/aug-cc-pvtz-jkfit.gbs 
    atoms 3          entry S          line   730 file /home/liuchw/anaconda3/envs/psi4env/share/psi4/basis/aug-cc-pvtz-jkfit.gbs 
    atoms 4-9, 11-12 entry H          line    70 file /home/liuchw/anaconda3/envs/psi4env/share/psi4/basis/aug-cc-pvtz-jkfit.gbs 
    atoms 10         entry O          line   286 file /home/liuchw/anaconda3/envs/psi4env/share/psi4/basis/aug-cc-pvtz-jkfit.gbs 

  ==> Pre-Iterations <==

   -------------------------------------------------------
    Irrep   Nso     Nmo     Nalpha   Nbeta   Ndocc  Nsocc
   -------------------------------------------------------
     A        372     372       0       0       0       0
   -------------------------------------------------------
    Total     372     372      17      17      17       0
   -------------------------------------------------------

  ==> Integral Setup <==

  ==> DiskDFJK: Density-Fitted J/K Matrices <==

    J tasked:                  Yes
    K tasked:                  Yes
    wK tasked:                  No
    OpenMP threads:              8
    Integrals threads:           8
    Memory [MiB]:            35762
    Algorithm:                Core
    Integral Cache:           LOAD
    Schwarz Cutoff:          1E-12
    Fitting Condition:       1E-10

   => Auxiliary Basis Set <=

  Basis Set: (AUG-CC-PVTZ AUX)
    Blend: AUG-CC-PVTZ-JKFIT
    Number of shells: 244
    Number of basis function: 826
    Number of Cartesian functions: 1013
    Spherical Harmonics?: true
    Max angular momentum: 4

  Minimum eigenvalue in the overlap matrix is 2.3862512230E-05.
  Using Symmetric Orthogonalization.

  SCF Guess: Superposition of Atomic Densities via on-the-fly atomic UHF.

  ==> Iterations <==

                           Total Energy        Delta E     RMS |[F,P]|

   @DF-RHF iter SAD:  -476.22080248190548   -4.76221e+02   0.00000e+00 
   @DF-RHF iter   1:  -476.70411764062919   -4.83315e-01   1.06674e-03 DIIS
   @DF-RHF iter   2:  -476.78766754339881   -8.35499e-02   4.39583e-04 DIIS
   @DF-RHF iter   3:  -476.80180936435806   -1.41418e-02   1.02829e-04 DIIS
   @DF-RHF iter   4:  -476.80332684106418   -1.51748e-03   2.42485e-05 DIIS
   @DF-RHF iter   5:  -476.80341171749865   -8.48764e-05   4.82857e-06 DIIS
   @DF-RHF iter   6:  -476.80341622752292   -4.51002e-06   1.14705e-06 DIIS
   @DF-RHF iter   7:  -476.80341650753775   -2.80015e-07   3.97800e-07 DIIS
   @DF-RHF iter   8:  -476.80341653713720   -2.95994e-08   9.09686e-08 DIIS
   @DF-RHF iter   9:  -476.80341653901849   -1.88129e-09   2.29194e-08 DIIS
   @DF-RHF iter  10:  -476.80341653914365   -1.25169e-10   4.21201e-09 DIIS
  Energy and wave function converged.


  ==> Post-Iterations <==

    Orbital Energies [Eh]
    ---------------------

    Doubly Occupied:                                                      

       1A    -91.943711     2A    -11.249161     3A    -11.249151  
       4A     -8.944108     5A     -6.625458     6A     -6.624503  
       7A     -6.623485     8A     -1.062300     9A     -0.951177  
      10A     -0.806431    11A     -0.606763    12A     -0.603736  
      13A     -0.576500    14A     -0.565626    15A     -0.491875  
      16A     -0.434758    17A     -0.335365  

    Virtual:                                                              

      18A      0.026582    19A      0.036626    20A      0.037450  
      21A      0.045299    22A      0.053964    23A      0.062537  
      24A      0.063674    25A      0.073244    26A      0.087351  
      27A      0.106049    28A      0.119345    29A      0.122336  
      30A      0.134019    31A      0.135596    32A      0.139224  
      33A      0.140939    34A      0.145223    35A      0.145847  
      36A      0.149093    37A      0.155452    38A      0.171255  
      39A      0.176331    40A      0.193168    41A      0.205034  
      42A      0.216412    43A      0.232209    44A      0.235045  
      45A      0.235885    46A      0.260854    47A      0.261882  
      48A      0.280085    49A      0.290943    50A      0.309561  
      51A      0.311105    52A      0.316039    53A      0.320992  
      54A      0.328013    55A      0.329356    56A      0.337879  
      57A      0.338293    58A      0.353221    59A      0.355521  
      60A      0.359485    61A      0.367588    62A      0.367734  
      63A      0.373044    64A      0.386948    65A      0.388716  
      66A      0.395039    67A      0.403036    68A      0.409956  
      69A      0.412253    70A      0.422613    71A      0.437041  
      72A      0.440134    73A      0.441247    74A      0.444500  
      75A      0.452305    76A      0.454082    77A      0.465015  
      78A      0.477724    79A      0.478664    80A      0.486220  
      81A      0.489850    82A      0.507986    83A      0.536286  
      84A      0.537254    85A      0.552275    86A      0.555904  
      87A      0.565021    88A      0.566555    89A      0.617372  
      90A      0.634432    91A      0.644971    92A      0.670269  
      93A      0.680083    94A      0.704829    95A      0.710018  
      96A      0.722057    97A      0.727691    98A      0.737710  
      99A      0.766206   100A      0.780454   101A      0.783158  
     102A      0.794374   103A      0.811780   104A      0.814173  
     105A      0.816000   106A      0.833223   107A      0.834930  
     108A      0.850226   109A      0.857226   110A      0.861062  
     111A      0.864895   112A      0.870162   113A      0.871747  
     114A      0.879640   115A      0.890062   116A      0.899388  
     117A      0.901759   118A      0.912296   119A      0.927632  
     120A      0.930365   121A      0.934572   122A      0.942684  
     123A      0.957006   124A      0.973200   125A      0.982605  
     126A      0.982773   127A      0.995425   128A      0.998943  
     129A      1.005682   130A      1.013709   131A      1.021132  
     132A      1.025305   133A      1.029823   134A      1.041309  
     135A      1.050459   136A      1.056264   137A      1.077516  
     138A      1.079072   139A      1.097280   140A      1.098659  
     141A      1.105068   142A      1.118479   143A      1.130522  
     144A      1.136566   145A      1.155703   146A      1.172326  
     147A      1.175846   148A      1.195257   149A      1.196178  
     150A      1.208101   151A      1.232097   152A      1.238210  
     153A      1.251492   154A      1.254132   155A      1.274365  
     156A      1.280958   157A      1.306882   158A      1.309685  
     159A      1.314516   160A      1.323596   161A      1.334695  
     162A      1.350498   163A      1.357168   164A      1.379080  
     165A      1.382831   166A      1.417987   167A      1.432930  
     168A      1.442862   169A      1.475359   170A      1.480890  
     171A      1.497244   172A      1.503479   173A      1.557946  
     174A      1.562740   175A      1.579322   176A      1.609017  
     177A      1.614451   178A      1.624605   179A      1.646314  
     180A      1.657572   181A      1.680527   182A      1.686237  
     183A      1.711992   184A      1.719022   185A      1.724033  
     186A      1.743824   187A      1.752785   188A      1.759643  
     189A      1.762370   190A      1.778092   191A      1.780481  
     192A      1.790565   193A      1.822829   194A      1.827096  
     195A      1.832858   196A      1.847379   197A      1.849212  
     198A      1.860645   199A      1.874567   200A      1.894499  
     201A      1.938598   202A      1.948660   203A      1.990036  
     204A      2.016005   205A      2.075661   206A      2.091940  
     207A      2.096554   208A      2.105987   209A      2.110041  
     210A      2.142680   211A      2.206125   212A      2.215477  
     213A      2.216427   214A      2.231175   215A      2.240113  
     216A      2.284768   217A      2.354405   218A      2.355377  
     219A      2.389567   220A      2.403299   221A      2.411826  
     222A      2.413898   223A      2.486679   224A      2.495847  
     225A      2.521494   226A      2.543238   227A      2.550713  
     228A      2.559624   229A      2.588269   230A      2.602631  
     231A      2.615809   232A      2.627834   233A      2.643840  
     234A      2.669679   235A      2.680026   236A      2.732915  
     237A      2.773886   238A      2.788128   239A      2.869367  
     240A      2.906451   241A      2.916053   242A      3.037642  
     243A      3.081242   244A      3.101571   245A      3.164153  
     246A      3.172856   247A      3.209734   248A      3.301326  
     249A      3.321647   250A      3.365600   251A      3.387717  
     252A      3.419587   253A      3.455555   254A      3.512991  
     255A      3.533494   256A      3.543103   257A      3.559555  
     258A      3.576146   259A      3.608876   260A      3.614357  
     261A      3.640046   262A      3.643530   263A      3.660968  
     264A      3.672187   265A      3.679360   266A      3.691164  
     267A      3.734272   268A      3.775777   269A      3.799628  
     270A      3.860227   271A      3.889774   272A      3.902868  
     273A      3.953248   274A      3.961016   275A      3.962774  
     276A      4.032500   277A      4.060086   278A      4.098398  
     279A      4.104080   280A      4.120889   281A      4.144530  
     282A      4.167318   283A      4.195136   284A      4.204043  
     285A      4.208805   286A      4.233599   287A      4.252649  
     288A      4.267281   289A      4.281224   290A      4.381241  
     291A      4.418999   292A      4.440552   293A      4.479571  
     294A      4.481857   295A      4.504124   296A      4.506450  
     297A      4.538665   298A      4.561629   299A      4.568776  
     300A      4.600951   301A      4.613220   302A      4.669422  
     303A      4.679178   304A      4.693969   305A      4.781107  
     306A      4.803355   307A      4.814972   308A      4.824324  
     309A      4.884066   310A      4.889909   311A      4.912006  
     312A      4.927998   313A      4.941893   314A      4.948719  
     315A      4.954100   316A      4.982836   317A      5.033222  
     318A      5.126121   319A      5.126365   320A      5.183996  
     321A      5.184222   322A      5.211384   323A      5.224238  
     324A      5.249160   325A      5.272362   326A      5.335511  
     327A      5.545143   328A      5.551510   329A      5.560641  
     330A      5.571369   331A      5.581611   332A      5.584490  
     333A      5.607188   334A      5.641088   335A      5.649403  
     336A      5.661668   337A      5.714976   338A      5.841394  
     339A      5.897555   340A      6.034067   341A      6.045046  
     342A      6.074984   343A      6.108122   344A      6.112133  
     345A      6.144736   346A      6.384391   347A      6.631471  
     348A      6.667066   349A      6.677149   350A      6.709788  
     351A      6.759465   352A      7.060219   353A      7.667539  
     354A      7.683460   355A      7.820735   356A      8.047320  
     357A      8.158562   358A      8.287315   359A      8.729260  
     360A      8.827099   361A      9.634627   362A      9.835340  
     363A     10.000084   364A     10.235220   365A     11.223639  
     366A     11.613182   367A     12.078847   368A     13.534516  
     369A     13.799737   370A     17.105967   371A     17.168220  
     372A     64.580921  

    Final Occupation by Irrep:
              A 
    DOCC [    17 ]

  @DF-RHF Final Energy:  -476.80341653914365

   => Energetics <=

    Nuclear Repulsion Energy =            111.2046109934888136
    One-Electron Energy =                -876.6278356552739979
    Two-Electron Energy =                 288.6198081226415297
    Total Energy =                       -476.8034165391436545

Computation Completed


Properties will be evaluated at   0.000000,   0.000000,   0.000000 [a0]

Properties computed using the SCF density matrix

  Nuclear Dipole Moment: [e a0]
     X:    31.3730      Y:    56.1448      Z:   -22.6730

  Electronic Dipole Moment: [e a0]
     X:   -31.1945      Y:   -55.9504      Z:    23.3142

  Dipole Moment: [e a0]
     X:     0.1785      Y:     0.1944      Z:     0.6412     Total:     0.6934

  Dipole Moment: [D]
     X:     0.4537      Y:     0.4941      Z:     1.6297     Total:     1.7624


*** tstop() called on node43.bme.utexas.edu at Thu Apr 23 22:52:21 2020
Module time:
	user time   =      37.18 seconds =       0.62 minutes
	system time =       1.31 seconds =       0.02 minutes
	total time  =          6 seconds =       0.10 minutes
Total time:
	user time   =     101.05 seconds =       1.68 minutes
	system time =       3.48 seconds =       0.06 minutes
	total time  =         16 seconds =       0.27 minutes

  //>>>>>>>>>>>>>>>>>>>>>>>>>>>>>>>>>>>//
  //            Monomer B HF           //
  //<<<<<<<<<<<<<<<<<<<<<<<<<<<<<<<<<<<//


*** tstart() called on node43.bme.utexas.edu
*** at Thu Apr 23 22:52:21 2020

   => Loading Basis Set <=

    Name: AUG-CC-PVTZ
    Role: ORBITAL
    Keyword: BASIS
    atoms 1-2        entry C          line   239 file /home/liuchw/anaconda3/envs/psi4env/share/psi4/basis/aug-cc-pvtz.gbs 
    atoms 3          entry S          line   906 file /home/liuchw/anaconda3/envs/psi4env/share/psi4/basis/aug-cc-pvtz.gbs 
    atoms 4-9, 11-12 entry H          line    40 file /home/liuchw/anaconda3/envs/psi4env/share/psi4/basis/aug-cc-pvtz.gbs 
    atoms 10         entry O          line   331 file /home/liuchw/anaconda3/envs/psi4env/share/psi4/basis/aug-cc-pvtz.gbs 


         ---------------------------------------------------------
                                   SCF
               by Justin Turney, Rob Parrish, Andy Simmonett
                          and Daniel G. A. Smith
                              RHF Reference
                        8 Threads,  47683 MiB Core
         ---------------------------------------------------------

  ==> Geometry <==

    Molecular point group: c1
    Full point group: C1

    Geometry (in Angstrom), charge = 0, multiplicity = 1:

       Center              X                  Y                   Z               Mass       
    ------------   -----------------  -----------------  -----------------  -----------------
      Gh(C)           1.787262542166     0.321318099244     0.013464904358    12.000000000000
      Gh(C)          -0.544417457834     1.715948099244     0.239724904358    12.000000000000
      Gh(S)           0.316752542166     0.687158099244    -0.969965095642    31.972071174400
      Gh(H)           1.513222542166    -0.207591900756     0.923504904358     1.007825032230
      Gh(H)           2.432962542166    -0.313041900756    -0.588315095642     1.007825032230
      Gh(H)           2.318362542166     1.239078099244     0.255834904358     1.007825032230
      Gh(H)          -0.751067457834     1.146838099244     1.143294904358     1.007825032230
      Gh(H)           0.047132542166     2.597578099244     0.476134904358     1.007825032230
      Gh(H)          -1.483827457834     2.029548099244    -0.208195095642     1.007825032230
         O           -1.600637457834    -2.920521900756     1.501894904358    15.994914619570
         H           -1.426137457834    -2.491021900756     0.653864904358     1.007825032230
         H           -2.094317457834    -3.707251900756     1.264034904358     1.007825032230

  Running in c1 symmetry.

  Rotational constants: A =      0.19056  B =      0.04948  C =      0.04475 [cm^-1]
  Rotational constants: A =   5712.94249  B =   1483.35885  C =   1341.44611 [MHz]
  Nuclear repulsion =    9.144808381078290

  Charge       = 0
  Multiplicity = 1
  Electrons    = 10
  Nalpha       = 5
  Nbeta        = 5

  ==> Algorithm <==

  SCF Algorithm Type is DF.
  DIIS enabled.
  MOM disabled.
  Fractional occupation disabled.
  Guess Type is SAD.
  Energy threshold   = 1.00e-08
  Density threshold  = 1.00e-08
  Integral threshold = 0.00e+00

  ==> Primary Basis <==

  Basis Set: AUG-CC-PVTZ
    Blend: AUG-CC-PVTZ
    Number of shells: 130
    Number of basis function: 372
    Number of Cartesian functions: 424
    Spherical Harmonics?: true
    Max angular momentum: 3

   => Loading Basis Set <=

    Name: (AUG-CC-PVTZ AUX)
    Role: JKFIT
    Keyword: DF_BASIS_SCF
    atoms 1-2        entry C          line   162 file /home/liuchw/anaconda3/envs/psi4env/share/psi4/basis/aug-cc-pvtz-jkfit.gbs 
    atoms 3          entry S          line   730 file /home/liuchw/anaconda3/envs/psi4env/share/psi4/basis/aug-cc-pvtz-jkfit.gbs 
    atoms 4-9, 11-12 entry H          line    70 file /home/liuchw/anaconda3/envs/psi4env/share/psi4/basis/aug-cc-pvtz-jkfit.gbs 
    atoms 10         entry O          line   286 file /home/liuchw/anaconda3/envs/psi4env/share/psi4/basis/aug-cc-pvtz-jkfit.gbs 

  ==> Pre-Iterations <==

   -------------------------------------------------------
    Irrep   Nso     Nmo     Nalpha   Nbeta   Ndocc  Nsocc
   -------------------------------------------------------
     A        372     372       0       0       0       0
   -------------------------------------------------------
    Total     372     372       5       5       5       0
   -------------------------------------------------------

  ==> Integral Setup <==

  ==> DiskDFJK: Density-Fitted J/K Matrices <==

    J tasked:                  Yes
    K tasked:                  Yes
    wK tasked:                  No
    OpenMP threads:              8
    Integrals threads:           8
    Memory [MiB]:            35762
    Algorithm:                Core
    Integral Cache:           LOAD
    Schwarz Cutoff:          1E-12
    Fitting Condition:       1E-10

   => Auxiliary Basis Set <=

  Basis Set: (AUG-CC-PVTZ AUX)
    Blend: AUG-CC-PVTZ-JKFIT
    Number of shells: 244
    Number of basis function: 826
    Number of Cartesian functions: 1013
    Spherical Harmonics?: true
    Max angular momentum: 4

  Minimum eigenvalue in the overlap matrix is 2.3862512230E-05.
  Using Symmetric Orthogonalization.

  SCF Guess: Superposition of Atomic Densities via on-the-fly atomic UHF.

  ==> Iterations <==

                           Total Energy        Delta E     RMS |[F,P]|

   @DF-RHF iter SAD:   -75.47248436014428   -7.54725e+01   0.00000e+00 
   @DF-RHF iter   1:   -75.97559398892975   -5.03110e-01   1.25865e-03 DIIS
   @DF-RHF iter   2:   -76.02800162956467   -5.24076e-02   8.61445e-04 DIIS
   @DF-RHF iter   3:   -76.05971687225599   -3.17152e-02   5.85446e-05 DIIS
   @DF-RHF iter   4:   -76.06010977444339   -3.92902e-04   1.41125e-05 DIIS
   @DF-RHF iter   5:   -76.06013473151971   -2.49571e-05   3.21573e-06 DIIS
   @DF-RHF iter   6:   -76.06013678444980   -2.05293e-06   7.04332e-07 DIIS
   @DF-RHF iter   7:   -76.06013689256083   -1.08111e-07   1.26287e-07 DIIS
   @DF-RHF iter   8:   -76.06013689560751   -3.04668e-09   2.12296e-08 DIIS
   @DF-RHF iter   9:   -76.06013689567531   -6.78000e-11   5.23065e-09 DIIS
  Energy and wave function converged.


  ==> Post-Iterations <==

    Orbital Energies [Eh]
    ---------------------

    Doubly Occupied:                                                      

       1A    -20.568438     2A     -1.351308     3A     -0.713693  
       4A     -0.585143     5A     -0.510110  

    Virtual:                                                              

       6A      0.018538     7A      0.033508     8A      0.035645  
       9A      0.042913    10A      0.055022    11A      0.063240  
      12A      0.063913    13A      0.070239    14A      0.076477  
      15A      0.092726    16A      0.108955    17A      0.109775  
      18A      0.121027    19A      0.123880    20A      0.132215  
      21A      0.137036    22A      0.140082    23A      0.143946  
      24A      0.156580    25A      0.172597    26A      0.176740  
      27A      0.183254    28A      0.188947    29A      0.199439  
      30A      0.221881    31A      0.238955    32A      0.249633  
      33A      0.254150    34A      0.260604    35A      0.262692  
      36A      0.281878    37A      0.294095    38A      0.294726  
      39A      0.297636    40A      0.304270    41A      0.310706  
      42A      0.317872    43A      0.328884    44A      0.330868  
      45A      0.335111    46A      0.339114    47A      0.353018  
      48A      0.354998    49A      0.371355    50A      0.380287  
      51A      0.381496    52A      0.386381    53A      0.396621  
      54A      0.399073    55A      0.402787    56A      0.418943  
      57A      0.422849    58A      0.429780    59A      0.451884  
      60A      0.453217    61A      0.460658    62A      0.474812  
      63A      0.477569    64A      0.480872    65A      0.502730  
      66A      0.509882    67A      0.530916    68A      0.531465  
      69A      0.550035    70A      0.557069    71A      0.564244  
      72A      0.574191    73A      0.577705    74A      0.582141  
      75A      0.597705    76A      0.603403    77A      0.606061  
      78A      0.620888    79A      0.631951    80A      0.644319  
      81A      0.656536    82A      0.669383    83A      0.689545  
      84A      0.697338    85A      0.701609    86A      0.709072  
      87A      0.722015    88A      0.727919    89A      0.739893  
      90A      0.756815    91A      0.761754    92A      0.768169  
      93A      0.775824    94A      0.858299    95A      0.878149  
      96A      0.894362    97A      0.917290    98A      0.926801  
      99A      0.928312   100A      0.945437   101A      0.960756  
     102A      0.967258   103A      0.989522   104A      0.994886  
     105A      0.995744   106A      1.001570   107A      1.010808  
     108A      1.015708   109A      1.022498   110A      1.027990  
     111A      1.046845   112A      1.054557   113A      1.055005  
     114A      1.062680   115A      1.065170   116A      1.080409  
     117A      1.086318   118A      1.086715   119A      1.092008  
     120A      1.099177   121A      1.099700   122A      1.101682  
     123A      1.111011   124A      1.124562   125A      1.132358  
     126A      1.135620   127A      1.136754   128A      1.153326  
     129A      1.169510   130A      1.172133   131A      1.191777  
     132A      1.197032   133A      1.199860   134A      1.206437  
     135A      1.213396   136A      1.238874   137A      1.246455  
     138A      1.248652   139A      1.263901   140A      1.276148  
     141A      1.279431   142A      1.291114   143A      1.300275  
     144A      1.307074   145A      1.315433   146A      1.325025  
     147A      1.340305   148A      1.344531   149A      1.350335  
     150A      1.353758   151A      1.397331   152A      1.401191  
     153A      1.409084   154A      1.416050   155A      1.425860  
     156A      1.428993   157A      1.455673   158A      1.459986  
     159A      1.473947   160A      1.478607   161A      1.488371  
     162A      1.529835   163A      1.530267   164A      1.562493  
     165A      1.596287   166A      1.600813   167A      1.617828  
     168A      1.632975   169A      1.707680   170A      1.741281  
     171A      1.755137   172A      1.761285   173A      1.769363  
     174A      1.826651   175A      1.845294   176A      1.846552  
     177A      1.856130   178A      1.867071   179A      1.893972  
     180A      1.904130   181A      1.936311   182A      1.943411  
     183A      1.965248   184A      1.990054   185A      2.003435  
     186A      2.014303   187A      2.019811   188A      2.046347  
     189A      2.051429   190A      2.072259   191A      2.103305  
     192A      2.111068   193A      2.114917   194A      2.122004  
     195A      2.149199   196A      2.152499   197A      2.163904  
     198A      2.204027   199A      2.259972   200A      2.286133  
     201A      2.334058   202A      2.334836   203A      2.356331  
     204A      2.392651   205A      2.403417   206A      2.410339  
     207A      2.438951   208A      2.447965   209A      2.453235  
     210A      2.457554   211A      2.467659   212A      2.472955  
     213A      2.491347   214A      2.511996   215A      2.515260  
     216A      2.544393   217A      2.581206   218A      2.617187  
     219A      2.713909   220A      2.714264   221A      2.724817  
     222A      2.734835   223A      2.747021   224A      2.806795  
     225A      2.852908   226A      2.858393   227A      2.907438  
     228A      2.935805   229A      2.942013   230A      3.202771  
     231A      3.225248   232A      3.255546   233A      3.275910  
     234A      3.434222   235A      3.476651   236A      3.589124  
     237A      3.666755   238A      3.695026   239A      3.766312  
     240A      3.789175   241A      3.799308   242A      3.814651  
     243A      3.831409   244A      3.921733   245A      4.001424  
     246A      4.028246   247A      4.039922   248A      4.066185  
     249A      4.068161   250A      4.100304   251A      4.105291  
     252A      4.124364   253A      4.141944   254A      4.159216  
     255A      4.171437   256A      4.187856   257A      4.198460  
     258A      4.212560   259A      4.224811   260A      4.255520  
     261A      4.272779   262A      4.290819   263A      4.301874  
     264A      4.383908   265A      4.396559   266A      4.399840  
     267A      4.412357   268A      4.416901   269A      4.447814  
     270A      4.458168   271A      4.479061   272A      4.515537  
     273A      4.517860   274A      4.525014   275A      4.542568  
     276A      4.550752   277A      4.553148   278A      4.581329  
     279A      4.641549   280A      4.669264   281A      4.690941  
     282A      4.696635   283A      4.738850   284A      4.755994  
     285A      4.779850   286A      4.842734   287A      4.852927  
     288A      4.881588   289A      4.894180   290A      4.906551  
     291A      4.917465   292A      4.934145   293A      4.938446  
     294A      4.973233   295A      4.980832   296A      4.983641  
     297A      5.092261   298A      5.147645   299A      5.166980  
     300A      5.209567   301A      5.258840   302A      5.278550  
     303A      5.283625   304A      5.315758   305A      5.332308  
     306A      5.353965   307A      5.355949   308A      5.367486  
     309A      5.376061   310A      5.438277   311A      5.476662  
     312A      5.484623   313A      5.493132   314A      5.500562  
     315A      5.520896   316A      5.559438   317A      5.618954  
     318A      5.662758   319A      5.698263   320A      5.702157  
     321A      5.717973   322A      5.723198   323A      5.834004  
     324A      5.935620   325A      6.143117   326A      6.163358  
     327A      6.176031   328A      6.177598   329A      6.203486  
     330A      6.229138   331A      6.237455   332A      6.238445  
     333A      6.261180   334A      6.536288   335A      6.680851  
     336A      6.714969   337A      6.715898   338A      6.733630  
     339A      6.770443   340A      6.912476   341A      7.125530  
     342A      7.140169   343A      7.178259   344A      7.265793  
     345A      7.308055   346A      7.323915   347A      7.354406  
     348A      7.373691   349A      7.544146   350A      7.740455  
     351A      7.782085   352A      7.787610   353A      7.811004  
     354A      7.829662   355A      7.907113   356A      7.930313  
     357A      7.931830   358A      8.154672   359A      8.161820  
     360A      8.191614   361A      8.324293   362A      8.805299  
     363A     10.355935   364A     10.376677   365A     15.018821  
     366A     15.799592   367A     24.379111   368A     25.099771  
     369A     25.542451   370A     51.562742   371A     51.632164  
     372A    141.719454  

    Final Occupation by Irrep:
              A 
    DOCC [     5 ]

  @DF-RHF Final Energy:   -76.06013689567531

   => Energetics <=

    Nuclear Repulsion Energy =              9.1448083810782901
    One-Electron Energy =                -122.9525052850845981
    Two-Electron Energy =                  37.7475600083309928
    Total Energy =                        -76.0601368956753134

Computation Completed


Properties will be evaluated at   0.000000,   0.000000,   0.000000 [a0]

Properties computed using the SCF density matrix

  Nuclear Dipole Moment: [e a0]
     X:   -30.8508      Y:   -55.8649      Z:    26.3297

  Electronic Dipole Moment: [e a0]
     X:    30.6388      Y:    55.6272      Z:   -27.0484

  Dipole Moment: [e a0]
     X:    -0.2121      Y:    -0.2378      Z:    -0.7188     Total:     0.7862

  Dipole Moment: [D]
     X:    -0.5390      Y:    -0.6043      Z:    -1.8269     Total:     1.9984


*** tstop() called on node43.bme.utexas.edu at Thu Apr 23 22:52:25 2020
Module time:
	user time   =      29.07 seconds =       0.48 minutes
	system time =       0.93 seconds =       0.02 minutes
	total time  =          4 seconds =       0.07 minutes
Total time:
	user time   =     130.16 seconds =       2.17 minutes
	system time =       4.42 seconds =       0.07 minutes
	total time  =         20 seconds =       0.33 minutes
  Constructing Basis Sets for SAPT...

   => Loading Basis Set <=

    Name: (AUG-CC-PVTZ AUX)
    Role: RIFIT
    Keyword: DF_BASIS_SAPT
    atoms 1-2        entry C          line   148 file /home/liuchw/anaconda3/envs/psi4env/share/psi4/basis/aug-cc-pvtz-ri.gbs 
    atoms 3          entry S          line   666 file /home/liuchw/anaconda3/envs/psi4env/share/psi4/basis/aug-cc-pvtz-ri.gbs 
    atoms 4-9, 11-12 entry H          line    30 file /home/liuchw/anaconda3/envs/psi4env/share/psi4/basis/aug-cc-pvtz-ri.gbs 
    atoms 10         entry O          line   264 file /home/liuchw/anaconda3/envs/psi4env/share/psi4/basis/aug-cc-pvtz-ri.gbs 


  //>>>>>>>>>>>>>>>>>>>>>>>>>>>>>>>>>>>//
  //               SAPT2+              //
  //<<<<<<<<<<<<<<<<<<<<<<<<<<<<<<<<<<<//


*** tstart() called on node43.bme.utexas.edu
*** at Thu Apr 23 22:52:26 2020

        SAPT2+  
    Ed Hohenstein
     6 June 2009

      Orbital Information
  --------------------------
    NSO        =       372
    NMO        =       372
    NRI        =       833
    NOCC A     =        17
    NOCC B     =         5
    FOCC A     =         7
    FOCC B     =         1
    NVIR A     =       355
    NVIR B     =       367

    Estimated memory usage: 1831.8 MB

    Natural Orbital Cutoff:   1.000E-06
    Disp(T3) Truncation:            Yes
    CCD (vv|vv) Truncation:         Yes
    MBPT T2 Truncation:             Yes

    Monomer A: 123 virtual orbitals dropped
    Monomer B: 289 virtual orbitals dropped

    Elst10,r            =    -0.001758163880 [Eh]
    Exch10 (S^2)        =     0.000084164495 [Eh]
    Exch10              =     0.000084171383 [Eh]
    Ind20,r (A<-B)      =    -0.000116501629 [Eh]
    Ind20,r (B<-A)      =    -0.000019069229 [Eh]
    Ind20,r             =    -0.000135570858 [Eh]
    Exch-Ind20,r (A<-B) =     0.000026886954 [Eh]
    Exch-Ind20,r (B<-A) =     0.000000800054 [Eh]
    Exch-Ind20,r        =     0.000027687008 [Eh]
    Disp20              =    -0.000518769042 [Eh]
    Disp20 (NO)         =    -0.000485281669 [Eh]
    Exch-Disp20         =     0.000010739147 [Eh]
    Elst12,r            =     0.000134648813 [Eh]
    Exch11              =     0.000002789893 [Eh]
    Exch12              =     0.000011736737 [Eh]
    Ind22               =    -0.000003124158 [Eh]
    Disp21              =     0.000051381959 [Eh]
    Disp22 (SDQ)        =     0.000011318092 [Eh]

    (i =   1 of   4)         13 seconds
    (i =   2 of   4)         27 seconds
    (i =   3 of   4)         40 seconds
    (i =   4 of   4)         54 seconds

    Disp220 (T)         =    -0.000039090674 [Eh]

    (i =   1 of  10)          1 seconds
    (i =   2 of  10)          2 seconds
    (i =   3 of  10)          3 seconds
    (i =   4 of  10)          4 seconds
    (i =   5 of  10)          5 seconds
    (i =   6 of  10)          6 seconds
    (i =   7 of  10)          7 seconds
    (i =   8 of  10)          8 seconds
    (i =   9 of  10)          9 seconds
    (i =  10 of  10)         10 seconds

    Disp202 (T)         =    -0.000050463725 [Eh]

    Disp22 (T)          =    -0.000089554399 [Eh]

    Est. Disp220 (T)    =    -0.000041788168 [Eh]
    Est. Disp202 (T)    =    -0.000053946027 [Eh]

    Est. Disp22 (T)     =    -0.000095734195 [Eh]

    SAPT Results 
  --------------------------------------------------------------------------------------------------------
    Electrostatics                 -1.62351507 [mEh]      -1.01877109 [kcal/mol]      -4.26253822 [kJ/mol]
      Elst10,r                     -1.75816388 [mEh]      -1.10326449 [kcal/mol]      -4.61605863 [kJ/mol]
      Elst12,r                      0.13464881 [mEh]       0.08449341 [kcal/mol]       0.35352041 [kJ/mol]

    Exchange                        0.09869801 [mEh]       0.06193394 [kcal/mol]       0.25913160 [kJ/mol]
      Exch10                        0.08417138 [mEh]       0.05281834 [kcal/mol]       0.22099194 [kJ/mol]
      Exch10(S^2)                   0.08416450 [mEh]       0.05281402 [kcal/mol]       0.22097385 [kJ/mol]
      Exch11(S^2)                   0.00278989 [mEh]       0.00175068 [kcal/mol]       0.00732486 [kJ/mol]
      Exch12(S^2)                   0.01173674 [mEh]       0.00736491 [kcal/mol]       0.03081480 [kJ/mol]

    Induction                      -0.12399194 [mEh]      -0.07780611 [kcal/mol]      -0.32554078 [kJ/mol]
      Ind20,r                      -0.13557086 [mEh]      -0.08507200 [kcal/mol]      -0.35594124 [kJ/mol]
      Ind22                        -0.00312416 [mEh]      -0.00196044 [kcal/mol]      -0.00820248 [kJ/mol]
      Exch-Ind20,r                  0.02768701 [mEh]       0.01737386 [kcal/mol]       0.07269223 [kJ/mol]
      Exch-Ind22                    0.00063803 [mEh]       0.00040037 [kcal/mol]       0.00167515 [kJ/mol]
      delta HF,r (2)               -0.01362196 [mEh]      -0.00854791 [kcal/mol]      -0.03576445 [kJ/mol]

    Dispersion                     -0.54106404 [mEh]      -0.33952281 [kcal/mol]      -1.42056344 [kJ/mol]
      Disp20                       -0.51876904 [mEh]      -0.32553249 [kcal/mol]      -1.36202793 [kJ/mol]
      Disp21                        0.05138196 [mEh]       0.03224267 [kcal/mol]       0.13490332 [kJ/mol]
      Disp22 (SDQ)                  0.01131809 [mEh]       0.00710221 [kcal/mol]       0.02971565 [kJ/mol]
      Disp22 (T)                   -0.08955440 [mEh]      -0.05619623 [kcal/mol]      -0.23512504 [kJ/mol]
      Est. Disp22 (T)              -0.09573419 [mEh]      -0.06007411 [kcal/mol]      -0.25135009 [kJ/mol]
      Exch-Disp20                   0.01073915 [mEh]       0.00673892 [kcal/mol]       0.02819563 [kJ/mol]

  Total HF                         -1.79549831 [mEh]      -1.12669220 [kcal/mol]      -4.71408016 [kJ/mol]
  Total SAPT0                      -2.30352820 [mEh]      -1.44548577 [kcal/mol]      -6.04791246 [kJ/mol]
  Total SAPT2                      -2.15683889 [mEh]      -1.35343683 [kcal/mol]      -5.66277972 [kJ/mol]
  Total SAPT2+                     -2.18987303 [mEh]      -1.37416607 [kcal/mol]      -5.74951085 [kJ/mol]

  Special recipe for scaled SAPT0 (see Manual):
    Electrostatics sSAPT0          -1.75816388 [mEh]      -1.10326449 [kcal/mol]      -4.61605863 [kJ/mol]
    Exchange sSAPT0                 0.08417138 [mEh]       0.05281834 [kcal/mol]       0.22099194 [kJ/mol]
    Induction sSAPT0               -0.12149901 [mEh]      -0.07624178 [kcal/mol]      -0.31899561 [kJ/mol]
    Dispersion sSAPT0              -0.50802726 [mEh]      -0.31879192 [kcal/mol]      -1.33382538 [kJ/mol]
  Total sSAPT0                     -2.30351877 [mEh]      -1.44547985 [kcal/mol]      -6.04788769 [kJ/mol]
  --------------------------------------------------------------------------------------------------------

*** tstop() called on node43.bme.utexas.edu at Thu Apr 23 22:55:32 2020
Module time:
	user time   =    1341.51 seconds =      22.36 minutes
	system time =      48.22 seconds =       0.80 minutes
	total time  =        186 seconds =       3.10 minutes
Total time:
	user time   =    1472.58 seconds =      24.54 minutes
	system time =      52.70 seconds =       0.88 minutes
	total time  =        207 seconds =       3.45 minutes

    Psi4 stopped on: Thursday, 23 April 2020 10:55PM
    Psi4 wall time for execution: 0:03:26.12

*** Psi4 exiting successfully. Buy a developer a beer!
