    -----------------------------------------------------------------------
          PSI4: An Open-Source Ab Initio Electronic Structure Package
                              PSI 4.0.0-beta4 Driver

    J. M. Turney, A. C. Simmonett, R. M. Parrish, E. G. Hohenstein,
    F. A. Evangelista, J. T. Fermann, B. J. Mintz, L. A. Burns, J. J. Wilke,
    M. L. Abrams, N. J. Russ, M. L. Leininger, C. L. Janssen, E. T. Seidl,
    W. D. Allen, H. F. Schaefer, R. A. King, E. F. Valeev, C. D. Sherrill,
    and T. D. Crawford, WIREs Comput. Mol. Sci., (2011) (doi: 10.1002/wcms.93)

                         Additional Contributions by
    A. E. DePrince, M. Saitow, U. Bozkaya, A. Yu. Sokolov
    -----------------------------------------------------------------------

    Process ID:  20188
    PSI4DATADIR: /home/xzhu216/psi4/psi4-install/share/psi

    Using LocalCommunicator (Number of processes = 1)

    Memory level set to 256.000 MB

  ==> Input File <==

--------------------------------------------------------------------------
#psi4
#
memory 30 gb

molecule DimethylSulfide_Water {
0 1
    C    -0.862225000    -0.933550000    -0.246023000
    C    -3.193911000     0.461076000    -0.019761000
    S    -2.332736000    -0.567707000    -1.229453000
    H    -1.136269000    -1.462459000     0.664019000
    H    -0.216531000    -1.567905000    -0.847797000
    H    -0.331129000    -0.015786000    -0.003648000
    H    -3.400557000    -0.108030000     0.883809000
    H    -2.602364000     1.342711000     0.216653000
    H    -4.133316000     0.774676000    -0.467680000
--
0 1
    O    -3.571012454    -2.977340574     0.858068332
    H    -3.396506454    -2.547836574     0.010038332
    H    -4.064693454    -3.764068574     0.620215332
units angstrom
no_reorient  #important for SAPT in psi4, default
symmetry c1  #important for SAPT in psi4, default
}

set {
basis aug-cc-pVTZ
scf_type DF
guess SAD
freeze_core True
}
energy('sapt2+')
--------------------------------------------------------------------------

  Memory set to  30.000 GiB by Python script.

  //>>>>>>>>>>>>>>>>>>>>>>>>>>>>>>>>>>>//
  //              Dimer HF             //
  //<<<<<<<<<<<<<<<<<<<<<<<<<<<<<<<<<<<//


  No DF_BASIS_SCF auxiliary basis selected, defaulting to aug-cc-pvtz-jkfit


*** tstart() called on node138.bme.utexas.edu
*** at Tue Sep  2 16:34:13 2014


         ---------------------------------------------------------
                                   SCF
            by Justin Turney, Rob Parrish, and Andy Simmonett
                              RHF Reference
                        4 Threads,  30000 MiB Core
         ---------------------------------------------------------

  ==> Geometry <==

    Molecular point group: c1
    Full point group: C1

    Geometry (in Angstrom), charge = 0, multiplicity = 1:

       Center              X                  Y                   Z       
    ------------   -----------------  -----------------  -----------------
           C          1.634430622427     0.051697716449     0.099959179602
           C         -0.697255377573     1.446323716449     0.326221179602
           S          0.163919622427     0.417540716449    -0.883470820398
           H          1.360386622427    -0.477211283551     1.010001179602
           H          2.280124622427    -0.582657283551    -0.501814820398
           H          2.165526622427     0.969461716449     0.342334179602
           H         -0.903901377573     0.877217716449     1.229791179602
           H         -0.105708377573     2.327958716449     0.562635179602
           H         -1.636660377573     1.759923716449    -0.121697820398
           O         -1.074356831573    -1.992092857551     1.204050511602
           H         -0.899850831573    -1.562588857551     0.356020511602
           H         -1.568037831573    -2.778820857551     0.966197511602

  Running in c1 symmetry.

  Nuclear repulsion =  171.963124560326492

  Charge       = 0
  Multiplicity = 1
  Electrons    = 44
  Nalpha       = 22
  Nbeta        = 22

  ==> Algorithm <==

  SCF Algorithm Type is DF.
  DIIS enabled.
  MOM disabled.
  Fractional occupation disabled.
  Guess Type is SAD.
  Energy threshold   = 1.00e-08
  Density threshold  = 1.00e-08
  Integral threshold = 0.00e+00

  ==> Primary Basis <==

  Basis Set: AUG-CC-PVTZ
    Number of shells: 130
    Number of basis function: 372
    Number of Cartesian functions: 424
    Spherical Harmonics?: true
    Max angular momentum: 3

  ==> Pre-Iterations <==

   -------------------------------------------------------
    Irrep   Nso     Nmo     Nalpha   Nbeta   Ndocc  Nsocc
   -------------------------------------------------------
     A        372     372       0       0       0       0
   -------------------------------------------------------
    Total     372     372      22      22      22       0
   -------------------------------------------------------

 OEINTS: Wrapper to libmints.
   by Justin Turney

   Calculation information:
      Number of atoms:                  12
      Number of AO shells:             130
      Number of SO shells:             130
      Number of primitives:            242
      Number of atomic orbitals:       424
      Number of basis functions:       372

      Number of irreps:                  1
      Number of functions per irrep: [ 372 ]

      Overlap, kinetic, potential, dipole, and quadrupole integrals
        stored in file 35.

  ==> Integral Setup <==

  ==> DFJK: Density-Fitted J/K Matrices <==

    J tasked:                  Yes
    K tasked:                  Yes
    wK tasked:                  No
    OpenMP threads:              4
    Integrals threads:           4
    Memory (MB):             21457
    Algorithm:                Core
    Integral Cache:           SAVE
    Schwarz Cutoff:          0E+00
    Fitting Condition:       1E-12

   => Auxiliary Basis Set <=

  Basis Set: aug-cc-pvtz-jkfit
    Number of shells: 244
    Number of basis function: 826
    Number of Cartesian functions: 1013
    Spherical Harmonics?: true
    Max angular momentum: 4

  Minimum eigenvalue in the overlap matrix is 2.2551416973E-05.
  Using Symmetric Orthogonalization.
  SCF Guess: Superposition of Atomic Densities via on-the-fly atomic UHF.

  Guess energy:  -377.24071405433972

  ==> Iterations <==

                        Total Energy        Delta E     RMS |[F,P]|

   @RHF iter   0:  -553.60913753198292   -5.53609e+02   9.33795e-03 
   @RHF iter   1:  -552.76469227313567    8.44445e-01   1.04294e-03 
   @RHF iter   2:  -552.84874230957143   -8.40500e-02   5.13808e-04 DIIS
   @RHF iter   3:  -552.86411161067588   -1.53693e-02   1.68223e-04 DIIS
   @RHF iter   4:  -552.86744266008043   -3.33105e-03   3.39818e-05 DIIS
   @RHF iter   5:  -552.86767776769227   -2.35108e-04   1.04425e-05 DIIS
   @RHF iter   6:  -552.86770002530307   -2.22576e-05   3.73655e-06 DIIS
   @RHF iter   7:  -552.86770269166686   -2.66636e-06   1.37369e-06 DIIS
   @RHF iter   8:  -552.86770319269147   -5.01025e-07   3.78164e-07 DIIS
   @RHF iter   9:  -552.86770324009194   -4.74005e-08   1.30066e-07 DIIS
   @RHF iter  10:  -552.86770324498059   -4.88865e-09   4.21578e-08 DIIS
   @RHF iter  11:  -552.86770324556858   -5.87988e-10   1.36108e-08 DIIS
   @RHF iter  12:  -552.86770324561201   -4.34284e-11   4.80144e-09 DIIS

  ==> Post-Iterations <==

	Orbital Energies (a.u.)
	-----------------------

	Doubly Occupied:                                                      

	   1A    -91.951805     2A    -20.554991     3A    -11.250749  
	   4A    -11.250739     5A     -8.952273     6A     -6.633642  
	   7A     -6.632702     8A     -6.631744     9A     -1.340408  
	  10A     -1.067667    11A     -0.953480    12A     -0.811362  
	  13A     -0.705668    14A     -0.607276    15A     -0.605992  
	  16A     -0.578879    17A     -0.576097    18A     -0.567591  
	  19A     -0.499278    20A     -0.495283    21A     -0.441096  
	  22A     -0.345612  

	Virtual:                                                              

	  23A      0.030122    24A      0.037751    25A      0.038061  
	  26A      0.047238    27A      0.058121    28A      0.062614  
	  29A      0.068966    30A      0.077256    31A      0.089664  
	  32A      0.114429    33A      0.115766    34A      0.126174  
	  35A      0.130839    36A      0.140154    37A      0.142624  
	  38A      0.146326    39A      0.149716    40A      0.149776  
	  41A      0.168155    42A      0.181741    43A      0.189284  
	  44A      0.203986    45A      0.213721    46A      0.217774  
	  47A      0.222030    48A      0.233951    49A      0.237194  
	  50A      0.259807    51A      0.268225    52A      0.275032  
	  53A      0.282493    54A      0.299706    55A      0.313329  
	  56A      0.319377    57A      0.322161    58A      0.325734  
	  59A      0.328993    60A      0.341135    61A      0.349803  
	  62A      0.350274    63A      0.362833    64A      0.363513  
	  65A      0.376667    66A      0.384365    67A      0.386029  
	  68A      0.406618    69A      0.408895    70A      0.409014  
	  71A      0.416589    72A      0.425219    73A      0.428300  
	  74A      0.436094    75A      0.437570    76A      0.441364  
	  77A      0.449962    78A      0.451654    79A      0.459426  
	  80A      0.476843    81A      0.484518    82A      0.490931  
	  83A      0.491159    84A      0.505897    85A      0.518507  
	  86A      0.518757    87A      0.533238    88A      0.538543  
	  89A      0.545822    90A      0.566592    91A      0.567975  
	  92A      0.586622    93A      0.607548    94A      0.613681  
	  95A      0.648310    96A      0.665147    97A      0.695560  
	  98A      0.700208    99A      0.712803   100A      0.715536  
	 101A      0.725772   102A      0.740197   103A      0.762480  
	 104A      0.766489   105A      0.793305   106A      0.793827  
	 107A      0.805941   108A      0.811643   109A      0.815841  
	 110A      0.829079   111A      0.843118   112A      0.854183  
	 113A      0.859120   114A      0.867969   115A      0.872279  
	 116A      0.879778   117A      0.884076   118A      0.892164  
	 119A      0.908539   120A      0.911439   121A      0.932721  
	 122A      0.933265   123A      0.940601   124A      0.950506  
	 125A      0.969844   126A      0.977225   127A      0.980581  
	 128A      0.994582   129A      1.000906   130A      1.014429  
	 131A      1.018687   132A      1.023214   133A      1.031190  
	 134A      1.052923   135A      1.053216   136A      1.069130  
	 137A      1.070322   138A      1.077611   139A      1.078904  
	 140A      1.094420   141A      1.098181   142A      1.116482  
	 143A      1.149547   144A      1.150956   145A      1.155345  
	 146A      1.161183   147A      1.162797   148A      1.187497  
	 149A      1.198924   150A      1.199960   151A      1.209707  
	 152A      1.229951   153A      1.234305   154A      1.248822  
	 155A      1.262601   156A      1.268251   157A      1.292708  
	 158A      1.294261   159A      1.305601   160A      1.320384  
	 161A      1.325309   162A      1.352177   163A      1.356684  
	 164A      1.368374   165A      1.379619   166A      1.390642  
	 167A      1.416697   168A      1.418227   169A      1.428359  
	 170A      1.436906   171A      1.453051   172A      1.480306  
	 173A      1.508580   174A      1.511498   175A      1.528322  
	 176A      1.535175   177A      1.577159   178A      1.599047  
	 179A      1.603757   180A      1.608742   181A      1.643306  
	 182A      1.651187   183A      1.656170   184A      1.673272  
	 185A      1.677734   186A      1.691170   187A      1.719772  
	 188A      1.725012   189A      1.725886   190A      1.755840  
	 191A      1.767376   192A      1.773297   193A      1.783969  
	 194A      1.802665   195A      1.812702   196A      1.831003  
	 197A      1.842299   198A      1.852554   199A      1.869794  
	 200A      1.869873   201A      1.891504   202A      1.909453  
	 203A      1.914292   204A      1.957955   205A      1.971989  
	 206A      2.002407   207A      2.012983   208A      2.067802  
	 209A      2.083812   210A      2.102162   211A      2.108100  
	 212A      2.115829   213A      2.138782   214A      2.186874  
	 215A      2.235751   216A      2.240341   217A      2.254195  
	 218A      2.264845   219A      2.286993   220A      2.288611  
	 221A      2.314435   222A      2.357729   223A      2.376090  
	 224A      2.392352   225A      2.414731   226A      2.432690  
	 227A      2.480612   228A      2.497106   229A      2.525325  
	 230A      2.527502   231A      2.589584   232A      2.598728  
	 233A      2.609829   234A      2.621491   235A      2.635979  
	 236A      2.666034   237A      2.710752   238A      2.753499  
	 239A      2.767735   240A      2.769442   241A      2.786980  
	 242A      2.810192   243A      2.871732   244A      2.898413  
	 245A      2.911398   246A      2.928152   247A      2.956334  
	 248A      2.988185   249A      3.053862   250A      3.090750  
	 251A      3.120028   252A      3.179206   253A      3.321634  
	 254A      3.432001   255A      3.486671   256A      3.515187  
	 257A      3.559594   258A      3.566887   259A      3.600901  
	 260A      3.610378   261A      3.622164   262A      3.627977  
	 263A      3.636175   264A      3.651912   265A      3.686257  
	 266A      3.690152   267A      3.720291   268A      3.742029  
	 269A      3.780129   270A      3.814152   271A      3.863301  
	 272A      3.871400   273A      3.886581   274A      3.924378  
	 275A      3.927287   276A      3.961838   277A      3.967726  
	 278A      3.983458   279A      4.035274   280A      4.065501  
	 281A      4.106113   282A      4.123033   283A      4.125940  
	 284A      4.137381   285A      4.163986   286A      4.171640  
	 287A      4.205442   288A      4.219124   289A      4.223519  
	 290A      4.231240   291A      4.240317   292A      4.280891  
	 293A      4.286596   294A      4.301546   295A      4.318984  
	 296A      4.383263   297A      4.429539   298A      4.438886  
	 299A      4.471205   300A      4.494146   301A      4.496383  
	 302A      4.525662   303A      4.536480   304A      4.552219  
	 305A      4.560426   306A      4.565827   307A      4.606911  
	 308A      4.673715   309A      4.689060   310A      4.689316  
	 311A      4.787779   312A      4.809729   313A      4.822846  
	 314A      4.864753   315A      4.882996   316A      4.929914  
	 317A      4.951034   318A      4.962360   319A      4.967066  
	 320A      4.985028   321A      5.025175   322A      5.058516  
	 323A      5.126183   324A      5.143615   325A      5.179169  
	 326A      5.201602   327A      5.209442   328A      5.209557  
	 329A      5.235588   330A      5.272125   331A      5.284973  
	 332A      5.339694   333A      5.348555   334A      5.465199  
	 335A      5.540544   336A      5.557656   337A      5.574760  
	 338A      5.585328   339A      5.606916   340A      5.620277  
	 341A      5.656016   342A      5.668888   343A      5.729405  
	 344A      5.771640   345A      5.930007   346A      6.040348  
	 347A      6.055527   348A      6.088426   349A      6.116272  
	 350A      6.150398   351A      6.281052   352A      6.599721  
	 353A      6.719167   354A      6.719282   355A      6.751492  
	 356A      6.788826   357A      6.836121   358A      6.979329  
	 359A      7.173414   360A      7.342821   361A      7.355443  
	 362A      7.380273   363A      7.424908   364A      7.464854  
	 365A      7.704618   366A      7.979405   367A      8.010380  
	 368A      8.239707   369A      8.868251   370A     16.093672  
	 371A     17.153338   372A     17.240537  

	Final Occupation by Irrep:
	          A 
	DOCC [    22 ]

  Energy converged.

  @RHF Final Energy:  -552.86770324561201

   => Energetics <=

    Nuclear Repulsion Energy =            171.9631245603264915
    One-Electron Energy =               -1102.7529875446455208
    Two-Electron Energy =                 377.9221597387071370
    DFT Exchange-Correlation Energy =       0.0000000000000000
    Empirical Dispersion Energy =           0.0000000000000000
    Total Energy =                       -552.8677032456118923



Properties will be evaluated at   0.000000,   0.000000,   0.000000 Bohr
  ==> Properties <==


Properties computed using the SCF density density matrix
  Nuclear Dipole Moment: (a.u.)
     X:     0.6478      Y:     0.5014      Z:     3.5856

  Electronic Dipole Moment: (a.u.)
     X:    -0.6074      Y:    -0.4258      Z:    -3.6346

  Dipole Moment: (a.u.)
     X:     0.0403      Y:     0.0756      Z:    -0.0490     Total:     0.0987

  Dipole Moment: (Debye)
     X:     0.1025      Y:     0.1920      Z:    -0.1246     Total:     0.2508


  Saving occupied orbitals to File 180.

  Saving SAPT 2-DIMER file.

*** tstop() called on node138.bme.utexas.edu at Tue Sep  2 16:35:56 2014
Module time:
	user time   =     217.63 seconds =       3.63 minutes
	system time =       2.14 seconds =       0.04 minutes
	total time  =        103 seconds =       1.72 minutes
Total time:
	user time   =     217.63 seconds =       3.63 minutes
	system time =       2.14 seconds =       0.04 minutes
	total time  =        103 seconds =       1.72 minutes

  //>>>>>>>>>>>>>>>>>>>>>>>>>>>>>>>>>>>//
  //            Monomer A HF           //
  //<<<<<<<<<<<<<<<<<<<<<<<<<<<<<<<<<<<//


  No DF_BASIS_SCF auxiliary basis selected, defaulting to aug-cc-pvtz-jkfit


*** tstart() called on node138.bme.utexas.edu
*** at Tue Sep  2 16:35:56 2014


         ---------------------------------------------------------
                                   SCF
            by Justin Turney, Rob Parrish, and Andy Simmonett
                              RHF Reference
                        4 Threads,  30000 MiB Core
         ---------------------------------------------------------

  ==> Geometry <==

    Molecular point group: c1
    Full point group: C1

    Geometry (in Angstrom), charge = 0, multiplicity = 1:

       Center              X                  Y                   Z       
    ------------   -----------------  -----------------  -----------------
           C          1.634430622427     0.051697716449     0.099959179602
           C         -0.697255377573     1.446323716449     0.326221179602
           S          0.163919622427     0.417540716449    -0.883470820398
           H          1.360386622427    -0.477211283551     1.010001179602
           H          2.280124622427    -0.582657283551    -0.501814820398
           H          2.165526622427     0.969461716449     0.342334179602
           H         -0.903901377573     0.877217716449     1.229791179602
           H         -0.105708377573     2.327958716449     0.562635179602
           H         -1.636660377573     1.759923716449    -0.121697820398
           O(Gh)     -1.074356831573    -1.992092857551     1.204050511602
           H(Gh)     -0.899850831573    -1.562588857551     0.356020511602
           H(Gh)     -1.568037831573    -2.778820857551     0.966197511602

  Running in c1 symmetry.

  Nuclear repulsion =  111.204614212270599

  Charge       = 0
  Multiplicity = 1
  Electrons    = 34
  Nalpha       = 17
  Nbeta        = 17

  ==> Algorithm <==

  SCF Algorithm Type is DF.
  DIIS enabled.
  MOM disabled.
  Fractional occupation disabled.
  Guess Type is SAD.
  Energy threshold   = 1.00e-08
  Density threshold  = 1.00e-08
  Integral threshold = 0.00e+00

  ==> Primary Basis <==

  Basis Set: AUG-CC-PVTZ
    Number of shells: 130
    Number of basis function: 372
    Number of Cartesian functions: 424
    Spherical Harmonics?: true
    Max angular momentum: 3

  ==> Pre-Iterations <==

   -------------------------------------------------------
    Irrep   Nso     Nmo     Nalpha   Nbeta   Ndocc  Nsocc
   -------------------------------------------------------
     A        372     372       0       0       0       0
   -------------------------------------------------------
    Total     372     372      17      17      17       0
   -------------------------------------------------------

 OEINTS: Wrapper to libmints.
   by Justin Turney

   Calculation information:
      Number of atoms:                  12
      Number of AO shells:             130
      Number of SO shells:             130
      Number of primitives:            242
      Number of atomic orbitals:       424
      Number of basis functions:       372

      Number of irreps:                  1
      Number of functions per irrep: [ 372 ]

      Overlap, kinetic, potential, dipole, and quadrupole integrals
        stored in file 35.

  ==> Integral Setup <==

  ==> DFJK: Density-Fitted J/K Matrices <==

    J tasked:                  Yes
    K tasked:                  Yes
    wK tasked:                  No
    OpenMP threads:              4
    Integrals threads:           4
    Memory (MB):             21457
    Algorithm:                Core
    Integral Cache:           LOAD
    Schwarz Cutoff:          0E+00
    Fitting Condition:       1E-12

   => Auxiliary Basis Set <=

  Basis Set: aug-cc-pvtz-jkfit
    Number of shells: 244
    Number of basis function: 826
    Number of Cartesian functions: 1013
    Spherical Harmonics?: true
    Max angular momentum: 4

  Minimum eigenvalue in the overlap matrix is 2.2551416973E-05.
  Using Symmetric Orthogonalization.
  SCF Guess: Superposition of Atomic Densities via on-the-fly atomic UHF.

  Guess energy:  -325.54234854944821

  ==> Iterations <==

                        Total Energy        Delta E     RMS |[F,P]|

   @RHF iter   0:  -477.54237991698631   -4.77542e+02   8.09185e-03 
   @RHF iter   1:  -476.73899930462755    8.03381e-01   6.74711e-04 
   @RHF iter   2:  -476.79468198329096   -5.56827e-02   2.32653e-04 DIIS
   @RHF iter   3:  -476.80217972059927   -7.49774e-03   9.96118e-05 DIIS
   @RHF iter   4:  -476.80334513775620   -1.16542e-03   2.15912e-05 DIIS
   @RHF iter   5:  -476.80344392740358   -9.87896e-05   6.44015e-06 DIIS
   @RHF iter   6:  -476.80345389846241   -9.97106e-06   2.43244e-06 DIIS
   @RHF iter   7:  -476.80345574798935   -1.84953e-06   8.89689e-07 DIIS
   @RHF iter   8:  -476.80345603251283   -2.84523e-07   2.79145e-07 DIIS
   @RHF iter   9:  -476.80345605814216   -2.56293e-08   8.25096e-08 DIIS
   @RHF iter  10:  -476.80345605999082   -1.84866e-09   3.06224e-08 DIIS
   @RHF iter  11:  -476.80345606025082   -2.60002e-10   1.02523e-08 DIIS
   @RHF iter  12:  -476.80345606028084   -3.00133e-11   2.26618e-09 DIIS

  ==> Post-Iterations <==

	Orbital Energies (a.u.)
	-----------------------

	Doubly Occupied:                                                      

	   1A    -91.943821     2A    -11.249152     3A    -11.249142  
	   4A     -8.944118     5A     -6.625478     6A     -6.624523  
	   7A     -6.623493     8A     -1.062285     9A     -0.951164  
	  10A     -0.806418    11A     -0.606751    12A     -0.603722  
	  13A     -0.576486    14A     -0.565614    15A     -0.491861  
	  16A     -0.434742    17A     -0.335373  

	Virtual:                                                              

	  18A      0.027255    19A      0.037259    20A      0.038576  
	  21A      0.044614    22A      0.057279    23A      0.062291  
	  24A      0.063481    25A      0.078597    26A      0.091498  
	  27A      0.106601    28A      0.118657    29A      0.124374  
	  30A      0.131324    31A      0.136473    32A      0.139375  
	  33A      0.142791    34A      0.144114    35A      0.147521  
	  36A      0.160685    37A      0.166327    38A      0.180650  
	  39A      0.192206    40A      0.204056    41A      0.209687  
	  42A      0.221494    43A      0.231132    44A      0.239493  
	  45A      0.267436    46A      0.269727    47A      0.276262  
	  48A      0.286701    49A      0.300851    50A      0.313188  
	  51A      0.325380    52A      0.326525    53A      0.328849  
	  54A      0.334392    55A      0.339431    56A      0.345438  
	  57A      0.351319    58A      0.357304    59A      0.360748  
	  60A      0.374684    61A      0.383213    62A      0.384868  
	  63A      0.386616    64A      0.402230    65A      0.405220  
	  66A      0.409239    67A      0.415308    68A      0.426192  
	  69A      0.436248    70A      0.438852    71A      0.441310  
	  72A      0.444253    73A      0.449310    74A      0.452449  
	  75A      0.476775    76A      0.482527    77A      0.487556  
	  78A      0.495436    79A      0.508272    80A      0.514436  
	  81A      0.522199    82A      0.536868    83A      0.545311  
	  84A      0.549418    85A      0.553258    86A      0.572734  
	  87A      0.573867    88A      0.594804    89A      0.617403  
	  90A      0.649994    91A      0.669344    92A      0.696435  
	  93A      0.699334    94A      0.718567    95A      0.720456  
	  96A      0.730545    97A      0.750750    98A      0.762117  
	  99A      0.774002   100A      0.789811   101A      0.797778  
	 102A      0.816277   103A      0.823430   104A      0.836272  
	 105A      0.839242   106A      0.850662   107A      0.855959  
	 108A      0.859848   109A      0.860994   110A      0.864765  
	 111A      0.875525   112A      0.880514   113A      0.896359  
	 114A      0.898429   115A      0.917523   116A      0.921049  
	 117A      0.930100   118A      0.932228   119A      0.947069  
	 120A      0.958274   121A      0.974802   122A      0.977299  
	 123A      0.982953   124A      0.987790   125A      1.011230  
	 126A      1.015583   127A      1.018565   128A      1.019691  
	 129A      1.046776   130A      1.062475   131A      1.064658  
	 132A      1.078482   133A      1.085351   134A      1.088314  
	 135A      1.100159   136A      1.118475   137A      1.124424  
	 138A      1.131169   139A      1.139579   140A      1.158130  
	 141A      1.159819   142A      1.162342   143A      1.183407  
	 144A      1.203375   145A      1.205181   146A      1.214536  
	 147A      1.232822   148A      1.233614   149A      1.262356  
	 150A      1.272733   151A      1.284550   152A      1.296460  
	 153A      1.309792   154A      1.328440   155A      1.330921  
	 156A      1.343349   157A      1.357454   158A      1.365987  
	 159A      1.386161   160A      1.386306   161A      1.393461  
	 162A      1.418172   163A      1.434906   164A      1.436220  
	 165A      1.442750   166A      1.467306   167A      1.487075  
	 168A      1.520067   169A      1.535357   170A      1.544090  
	 171A      1.558178   172A      1.587980   173A      1.591516  
	 174A      1.601679   175A      1.623380   176A      1.634895  
	 177A      1.650550   178A      1.680434   179A      1.698350  
	 180A      1.711501   181A      1.713091   182A      1.721176  
	 183A      1.731709   184A      1.746142   185A      1.764832  
	 186A      1.773103   187A      1.789297   188A      1.802457  
	 189A      1.808009   190A      1.817683   191A      1.830803  
	 192A      1.839850   193A      1.844436   194A      1.845151  
	 195A      1.869200   196A      1.884388   197A      1.902009  
	 198A      1.921932   199A      1.940970   200A      1.953647  
	 201A      1.964166   202A      2.011652   203A      2.035761  
	 204A      2.083545   205A      2.085634   206A      2.105357  
	 207A      2.112414   208A      2.121305   209A      2.188952  
	 210A      2.209243   211A      2.242117   212A      2.253111  
	 213A      2.263162   214A      2.270909   215A      2.312992  
	 216A      2.313949   217A      2.367207   218A      2.397997  
	 219A      2.438199   220A      2.460165   221A      2.494280  
	 222A      2.501315   223A      2.570084   224A      2.578198  
	 225A      2.584062   226A      2.616430   227A      2.623410  
	 228A      2.635207   229A      2.683800   230A      2.691552  
	 231A      2.716682   232A      2.750943   233A      2.773869  
	 234A      2.782140   235A      2.784069   236A      2.810483  
	 237A      2.823045   238A      2.896982   239A      2.915024  
	 240A      2.986639   241A      3.018866   242A      3.079427  
	 243A      3.114329   244A      3.125668   245A      3.222511  
	 246A      3.272087   247A      3.304173   248A      3.327278  
	 249A      3.392569   250A      3.434309   251A      3.502467  
	 252A      3.508320   253A      3.561327   254A      3.571368  
	 255A      3.574163   256A      3.609382   257A      3.610388  
	 258A      3.616987   259A      3.635816   260A      3.637160  
	 261A      3.658820   262A      3.659661   263A      3.693619  
	 264A      3.696683   265A      3.742763   266A      3.748044  
	 267A      3.784809   268A      3.813274   269A      3.874167  
	 270A      3.877873   271A      3.904175   272A      3.937591  
	 273A      3.964171   274A      3.969152   275A      3.985291  
	 276A      4.042851   277A      4.069397   278A      4.119813  
	 279A      4.126249   280A      4.145962   281A      4.170732  
	 282A      4.173642   283A      4.210172   284A      4.246695  
	 285A      4.247434   286A      4.253040   287A      4.278215  
	 288A      4.296390   289A      4.302907   290A      4.444775  
	 291A      4.452807   292A      4.496437   293A      4.513366  
	 294A      4.519046   295A      4.534202   296A      4.548512  
	 297A      4.561988   298A      4.567214   299A      4.599841  
	 300A      4.631456   301A      4.686106   302A      4.692523  
	 303A      4.738029   304A      4.787173   305A      4.818086  
	 306A      4.845521   307A      4.850250   308A      4.912885  
	 309A      4.927904   310A      4.954760   311A      4.961631  
	 312A      4.967805   313A      4.972963   314A      4.993815  
	 315A      5.007492   316A      5.050767   317A      5.074442  
	 318A      5.127877   319A      5.158034   320A      5.191887  
	 321A      5.202198   322A      5.221784   323A      5.262183  
	 324A      5.287406   325A      5.338365   326A      5.391040  
	 327A      5.555062   328A      5.571692   329A      5.573683  
	 330A      5.580670   331A      5.590049   332A      5.627747  
	 333A      5.645635   334A      5.661205   335A      5.677866  
	 336A      5.715956   337A      5.789556   338A      5.913222  
	 339A      5.940009   340A      6.042224   341A      6.055098  
	 342A      6.081359   343A      6.117451   344A      6.151308  
	 345A      6.254218   346A      6.457454   347A      6.695989  
	 348A      6.728823   349A      6.730623   350A      6.764248  
	 351A      6.795309   352A      7.100192   353A      7.761988  
	 354A      7.857048   355A      8.082664   356A      8.183694  
	 357A      8.198923   358A      8.316681   359A      8.861499  
	 360A      8.916570   361A      9.702483   362A      9.925122  
	 363A     10.068586   364A     10.337068   365A     11.244450  
	 366A     11.700718   367A     12.132351   368A     13.620649  
	 369A     13.961136   370A     17.155083   371A     17.241268  
	 372A     65.298796  

	Final Occupation by Irrep:
	          A 
	DOCC [    17 ]

  Energy converged.

  @RHF Final Energy:  -476.80345606028084

   => Energetics <=

    Nuclear Repulsion Energy =            111.2046142122705987
    One-Electron Energy =                -876.6278525903053378
    Two-Electron Energy =                 288.6197823177537316
    DFT Exchange-Correlation Energy =       0.0000000000000000
    Empirical Dispersion Energy =           0.0000000000000000
    Total Energy =                       -476.8034560602810075



Properties will be evaluated at   0.000000,   0.000000,   0.000000 Bohr
  ==> Properties <==


Properties computed using the SCF density density matrix
  Nuclear Dipole Moment: (a.u.)
     X:    21.5533      Y:    38.8215      Z:   -17.1156

  Electronic Dipole Moment: (a.u.)
     X:   -21.3747      Y:   -38.6269      Z:    17.7567

  Dipole Moment: (a.u.)
     X:     0.1786      Y:     0.1947      Z:     0.6411     Total:     0.6934

  Dipole Moment: (Debye)
     X:     0.4540      Y:     0.4948      Z:     1.6294     Total:     1.7623


  Saving occupied orbitals to File 180.

  Saving SAPT 2-MONOMER_A file.

*** tstop() called on node138.bme.utexas.edu at Tue Sep  2 16:37:26 2014
Module time:
	user time   =     181.95 seconds =       3.03 minutes
	system time =       1.35 seconds =       0.02 minutes
	total time  =         90 seconds =       1.50 minutes
Total time:
	user time   =     399.60 seconds =       6.66 minutes
	system time =       3.49 seconds =       0.06 minutes
	total time  =        193 seconds =       3.22 minutes

  //>>>>>>>>>>>>>>>>>>>>>>>>>>>>>>>>>>>//
  //            Monomer B HF           //
  //<<<<<<<<<<<<<<<<<<<<<<<<<<<<<<<<<<<//


  No DF_BASIS_SCF auxiliary basis selected, defaulting to aug-cc-pvtz-jkfit


*** tstart() called on node138.bme.utexas.edu
*** at Tue Sep  2 16:37:26 2014


         ---------------------------------------------------------
                                   SCF
            by Justin Turney, Rob Parrish, and Andy Simmonett
                              RHF Reference
                        4 Threads,  30000 MiB Core
         ---------------------------------------------------------

  ==> Geometry <==

    Molecular point group: c1
    Full point group: C1

    Geometry (in Angstrom), charge = 0, multiplicity = 1:

       Center              X                  Y                   Z       
    ------------   -----------------  -----------------  -----------------
           C(Gh)      1.634430622427     0.051697716449     0.099959179602
           C(Gh)     -0.697255377573     1.446323716449     0.326221179602
           S(Gh)      0.163919622427     0.417540716449    -0.883470820398
           H(Gh)      1.360386622427    -0.477211283551     1.010001179602
           H(Gh)      2.280124622427    -0.582657283551    -0.501814820398
           H(Gh)      2.165526622427     0.969461716449     0.342334179602
           H(Gh)     -0.903901377573     0.877217716449     1.229791179602
           H(Gh)     -0.105708377573     2.327958716449     0.562635179602
           H(Gh)     -1.636660377573     1.759923716449    -0.121697820398
           O         -1.074356831573    -1.992092857551     1.204050511602
           H         -0.899850831573    -1.562588857551     0.356020511602
           H         -1.568037831573    -2.778820857551     0.966197511602

  Running in c1 symmetry.

  Nuclear repulsion =    9.144806834248035

  Charge       = 0
  Multiplicity = 1
  Electrons    = 10
  Nalpha       = 5
  Nbeta        = 5

  ==> Algorithm <==

  SCF Algorithm Type is DF.
  DIIS enabled.
  MOM disabled.
  Fractional occupation disabled.
  Guess Type is SAD.
  Energy threshold   = 1.00e-08
  Density threshold  = 1.00e-08
  Integral threshold = 0.00e+00

  ==> Primary Basis <==

  Basis Set: AUG-CC-PVTZ
    Number of shells: 130
    Number of basis function: 372
    Number of Cartesian functions: 424
    Spherical Harmonics?: true
    Max angular momentum: 3

  ==> Pre-Iterations <==

   -------------------------------------------------------
    Irrep   Nso     Nmo     Nalpha   Nbeta   Ndocc  Nsocc
   -------------------------------------------------------
     A        372     372       0       0       0       0
   -------------------------------------------------------
    Total     372     372       5       5       5       0
   -------------------------------------------------------

 OEINTS: Wrapper to libmints.
   by Justin Turney

   Calculation information:
      Number of atoms:                  12
      Number of AO shells:             130
      Number of SO shells:             130
      Number of primitives:            242
      Number of atomic orbitals:       424
      Number of basis functions:       372

      Number of irreps:                  1
      Number of functions per irrep: [ 372 ]

      Overlap, kinetic, potential, dipole, and quadrupole integrals
        stored in file 35.

  ==> Integral Setup <==

  ==> DFJK: Density-Fitted J/K Matrices <==

    J tasked:                  Yes
    K tasked:                  Yes
    wK tasked:                  No
    OpenMP threads:              4
    Integrals threads:           4
    Memory (MB):             21457
    Algorithm:                Core
    Integral Cache:           LOAD
    Schwarz Cutoff:          0E+00
    Fitting Condition:       1E-12

   => Auxiliary Basis Set <=

  Basis Set: aug-cc-pvtz-jkfit
    Number of shells: 244
    Number of basis function: 826
    Number of Cartesian functions: 1013
    Spherical Harmonics?: true
    Max angular momentum: 4

  Minimum eigenvalue in the overlap matrix is 2.2551416973E-05.
  Using Symmetric Orthogonalization.
  SCF Guess: Superposition of Atomic Densities via on-the-fly atomic UHF.

  Guess energy:   -51.69146408382515

  ==> Iterations <==

                        Total Energy        Delta E     RMS |[F,P]|

   @RHF iter   0:   -76.02617352758232   -7.60262e+01   4.58622e-03 
   @RHF iter   1:   -76.02107448004710    5.09905e-03   7.97553e-04 
   @RHF iter   2:   -76.04993426449332   -2.88598e-02   4.56429e-04 DIIS
   @RHF iter   3:   -76.05928609278801   -9.35183e-03   8.20859e-05 DIIS
   @RHF iter   4:   -76.06004097323712   -7.54880e-04   2.58933e-05 DIIS
   @RHF iter   5:   -76.06017327100072   -1.32298e-04   6.61314e-06 DIIS
   @RHF iter   6:   -76.06018369440685   -1.04234e-05   1.21988e-06 DIIS
   @RHF iter   7:   -76.06018402004152   -3.25635e-07   2.38229e-07 DIIS
   @RHF iter   8:   -76.06018403234984   -1.23083e-08   4.74362e-08 DIIS
   @RHF iter   9:   -76.06018403276821   -4.18368e-10   1.10627e-08 DIIS
   @RHF iter  10:   -76.06018403278900   -2.07905e-11   1.86485e-09 DIIS

  ==> Post-Iterations <==

	Orbital Energies (a.u.)
	-----------------------

	Doubly Occupied:                                                      

	   1A    -20.568373     2A     -1.351256     3A     -0.713649  
	   4A     -0.585094     5A     -0.510084  

	Virtual:                                                              

	   6A      0.018651     7A      0.035107     8A      0.035815  
	   9A      0.043579    10A      0.059211    11A      0.064039  
	  12A      0.064465    13A      0.070897    14A      0.080118  
	  15A      0.093524    16A      0.107932    17A      0.116107  
	  18A      0.122124    19A      0.122774    20A      0.135772  
	  21A      0.137337    22A      0.140625    23A      0.146083  
	  24A      0.163004    25A      0.169698    26A      0.180890  
	  27A      0.190082    28A      0.209172    29A      0.212071  
	  30A      0.231851    31A      0.242416    32A      0.255689  
	  33A      0.270740    34A      0.278655    35A      0.292076  
	  36A      0.292782    37A      0.295922    38A      0.304881  
	  39A      0.309238    40A      0.312095    41A      0.321144  
	  42A      0.328605    43A      0.330776    44A      0.338015  
	  45A      0.352347    46A      0.354979    47A      0.367114  
	  48A      0.369939    49A      0.381992    50A      0.387958  
	  51A      0.392677    52A      0.408465    53A      0.412101  
	  54A      0.427491    55A      0.433148    56A      0.434785  
	  57A      0.438902    58A      0.447131    59A      0.466453  
	  60A      0.468958    61A      0.487543    62A      0.505664  
	  63A      0.505789    64A      0.516744    65A      0.516784  
	  66A      0.530964    67A      0.536312    68A      0.548670  
	  69A      0.557023    70A      0.560925    71A      0.581608  
	  72A      0.583898    73A      0.593179    74A      0.601844  
	  75A      0.603212    76A      0.613496    77A      0.621974  
	  78A      0.646156    79A      0.649934    80A      0.662792  
	  81A      0.679863    82A      0.692530    83A      0.696681  
	  84A      0.703605    85A      0.721648    86A      0.735651  
	  87A      0.740927    88A      0.749695    89A      0.765393  
	  90A      0.767655    91A      0.797301    92A      0.805841  
	  93A      0.816252    94A      0.870796    95A      0.893258  
	  96A      0.895963    97A      0.934411    98A      0.962917  
	  99A      0.969734   100A      0.984968   101A      0.993642  
	 102A      0.998688   103A      1.003982   104A      1.010173  
	 105A      1.029932   106A      1.031934   107A      1.035647  
	 108A      1.056049   109A      1.056081   110A      1.064482  
	 111A      1.064788   112A      1.075978   113A      1.085204  
	 114A      1.087748   115A      1.095128   116A      1.098042  
	 117A      1.107689   118A      1.115505   119A      1.116154  
	 120A      1.128614   121A      1.143997   122A      1.147779  
	 123A      1.152088   124A      1.167967   125A      1.169032  
	 126A      1.188036   127A      1.188907   128A      1.202603  
	 129A      1.204413   130A      1.217346   131A      1.224125  
	 132A      1.237445   133A      1.258593   134A      1.264153  
	 135A      1.264704   136A      1.274685   137A      1.299314  
	 138A      1.299852   139A      1.321658   140A      1.323734  
	 141A      1.335045   142A      1.335977   143A      1.362465  
	 144A      1.377154   145A      1.383934   146A      1.391316  
	 147A      1.409033   148A      1.409913   149A      1.419532  
	 150A      1.424574   151A      1.427273   152A      1.448682  
	 153A      1.455519   154A      1.461076   155A      1.482445  
	 156A      1.484273   157A      1.497543   158A      1.500542  
	 159A      1.523942   160A      1.565660   161A      1.588752  
	 162A      1.589786   163A      1.647198   164A      1.651067  
	 165A      1.675947   166A      1.688250   167A      1.725729  
	 168A      1.731345   169A      1.760379   170A      1.768372  
	 171A      1.786070   172A      1.786913   173A      1.824535  
	 174A      1.847275   175A      1.865166   176A      1.873295  
	 177A      1.905056   178A      1.909824   179A      1.928448  
	 180A      1.939017   181A      1.986745   182A      1.990807  
	 183A      2.010430   184A      2.030642   185A      2.036888  
	 186A      2.054881   187A      2.064869   188A      2.070990  
	 189A      2.097855   190A      2.112429   191A      2.115058  
	 192A      2.143548   193A      2.162900   194A      2.173740  
	 195A      2.182079   196A      2.183651   197A      2.250236  
	 198A      2.275778   199A      2.318322   200A      2.359983  
	 201A      2.379316   202A      2.392882   203A      2.399199  
	 204A      2.406540   205A      2.423841   206A      2.454554  
	 207A      2.458495   208A      2.471641   209A      2.483866  
	 210A      2.503834   211A      2.524826   212A      2.528988  
	 213A      2.562279   214A      2.588455   215A      2.616086  
	 216A      2.652118   217A      2.657971   218A      2.675492  
	 219A      2.733322   220A      2.749518   221A      2.755245  
	 222A      2.866799   223A      2.906962   224A      2.910099  
	 225A      2.913307   226A      2.959300   227A      2.969262  
	 228A      2.991655   229A      3.003957   230A      3.227687  
	 231A      3.292376   232A      3.314732   233A      3.420503  
	 234A      3.436210   235A      3.489811   236A      3.591100  
	 237A      3.761763   238A      3.778327   239A      3.816612  
	 240A      3.845000   241A      3.863532   242A      3.879970  
	 243A      3.924823   244A      3.974792   245A      4.032996  
	 246A      4.061396   247A      4.106226   248A      4.106936  
	 249A      4.116043   250A      4.119936   251A      4.122796  
	 252A      4.176037   253A      4.186472   254A      4.190414  
	 255A      4.210475   256A      4.225119   257A      4.234530  
	 258A      4.238952   259A      4.252900   260A      4.309167  
	 261A      4.338871   262A      4.367474   263A      4.393219  
	 264A      4.416564   265A      4.449530   266A      4.458300  
	 267A      4.464341   268A      4.471827   269A      4.504170  
	 270A      4.505886   271A      4.540749   272A      4.556392  
	 273A      4.564048   274A      4.574815   275A      4.578778  
	 276A      4.598600   277A      4.634263   278A      4.666569  
	 279A      4.671203   280A      4.686588   281A      4.722799  
	 282A      4.732841   283A      4.785323   284A      4.791556  
	 285A      4.809546   286A      4.892866   287A      4.896905  
	 288A      4.914612   289A      4.920024   290A      4.937984  
	 291A      4.977826   292A      4.995823   293A      5.000480  
	 294A      5.022290   295A      5.023406   296A      5.059258  
	 297A      5.110135   298A      5.177354   299A      5.205890  
	 300A      5.241874   301A      5.284534   302A      5.297728  
	 303A      5.320896   304A      5.333919   305A      5.359535  
	 306A      5.367243   307A      5.373717   308A      5.406660  
	 309A      5.446477   310A      5.462285   311A      5.491153  
	 312A      5.514410   313A      5.522816   314A      5.539159  
	 315A      5.541544   316A      5.576327   317A      5.627312  
	 318A      5.706738   319A      5.720033   320A      5.728967  
	 321A      5.745748   322A      5.799016   323A      5.838750  
	 324A      5.968529   325A      6.153120   326A      6.167701  
	 327A      6.183092   328A      6.191959   329A      6.237209  
	 330A      6.247254   331A      6.253856   332A      6.272832  
	 333A      6.282944   334A      6.590490   335A      6.697706  
	 336A      6.733112   337A      6.769624   338A      6.794088  
	 339A      6.824227   340A      6.967738   341A      7.145911  
	 342A      7.157564   343A      7.196670   344A      7.332010  
	 345A      7.344925   346A      7.363611   347A      7.428726  
	 348A      7.457276   349A      7.705144   350A      7.752926  
	 351A      7.820387   352A      7.830373   353A      7.839027  
	 354A      7.848004   355A      7.934526   356A      7.969019  
	 357A      8.022373   358A      8.171910   359A      8.205782  
	 360A      8.235645   361A      8.355168   362A      8.854898  
	 363A     10.369071   364A     10.389774   365A     15.733854  
	 366A     16.088335   367A     24.578364   368A     25.118067  
	 369A     25.572421   370A     51.661779   371A     51.795645  
	 372A    141.791964  

	Final Occupation by Irrep:
	          A 
	DOCC [     5 ]

  Energy converged.

  @RHF Final Energy:   -76.06018403278900

   => Energetics <=

    Nuclear Repulsion Energy =              9.1448068342480351
    One-Electron Energy =                -122.9530688953012003
    Two-Electron Energy =                  37.7480780282642812
    DFT Exchange-Correlation Energy =       0.0000000000000000
    Empirical Dispersion Energy =           0.0000000000000000
    Total Energy =                        -76.0601840327888965



Properties will be evaluated at   0.000000,   0.000000,   0.000000 Bohr
  ==> Properties <==


Properties computed using the SCF density density matrix
  Nuclear Dipole Moment: (a.u.)
     X:   -20.9056      Y:   -38.3202      Z:    20.7012

  Electronic Dipole Moment: (a.u.)
     X:    20.6937      Y:    38.0826      Z:   -21.4198

  Dipole Moment: (a.u.)
     X:    -0.2119      Y:    -0.2375      Z:    -0.7185     Total:     0.7859

  Dipole Moment: (Debye)
     X:    -0.5386      Y:    -0.6037      Z:    -1.8263     Total:     1.9975


  Saving occupied orbitals to File 180.

  Saving SAPT 2-MONOMER_B file.

*** tstop() called on node138.bme.utexas.edu at Tue Sep  2 16:38:11 2014
Module time:
	user time   =     116.98 seconds =       1.95 minutes
	system time =       1.19 seconds =       0.02 minutes
	total time  =         45 seconds =       0.75 minutes
Total time:
	user time   =     516.61 seconds =       8.61 minutes
	system time =       4.68 seconds =       0.08 minutes
	total time  =        238 seconds =       3.97 minutes
  No DF_BASIS_SAPT auxiliary basis selected, defaulting to aug-cc-pvtz-ri

  //>>>>>>>>>>>>>>>>>>>>>>>>>>>>>>>>>>>//
  //               SAPT2+              //
  //<<<<<<<<<<<<<<<<<<<<<<<<<<<<<<<<<<<//


*** tstart() called on node138.bme.utexas.edu
*** at Tue Sep  2 16:38:11 2014

        SAPT2+  
    Ed Hohenstein
     6 June 2009

      Orbital Information
  --------------------------
    NSO        =       372
    NMO        =       372
    NRI        =       833
    NOCC A     =        17
    NOCC B     =         5
    FOCC A     =         7
    FOCC B     =         1
    NVIR A     =       355
    NVIR B     =       367

    Estimated memory usage: 1831.8 MB

    Elst10,r            =    -0.008896740461 H
    Exch10 (S^2)        =     0.007484090903 H
    Exch10              =     0.007514013260 H
    Ind20,r (A<-B)      =    -0.003574456272 H
    Ind20,r (B<-A)      =    -0.000616773508 H
    Ind20,r             =    -0.004191229780 H
    Exch-Ind20,r (A<-B) =     0.002114023621 H
    Exch-Ind20,r (B<-A) =     0.000388104027 H
    Exch-Ind20,r        =     0.002502127648 H
    Disp20              =    -0.005303303993 H
    Exch-Disp20         =     0.000656948287 H
    Elst12,r            =     0.000109834666 H
    Exch11              =     0.000273111901 H
    Exch12              =     0.000599648860 H
    Ind22               =    -0.000303652427 H
    Disp21              =     0.000364984996 H
    Disp22 (SDQ)        =     0.000106775900 H

    (i =   1 of   4)        607 seconds
    (i =   2 of   4)       1214 seconds
    (i =   3 of   4)       1821 seconds
    (i =   4 of   4)       2428 seconds

    Disp220 (T)         =    -0.000395162521 H

    (i =   1 of  10)        199 seconds
    (i =   2 of  10)        398 seconds
    (i =   3 of  10)        597 seconds
    (i =   4 of  10)        796 seconds
    (i =   5 of  10)        994 seconds
    (i =   6 of  10)       1193 seconds
    (i =   7 of  10)       1392 seconds
    (i =   8 of  10)       1591 seconds
    (i =   9 of  10)       1789 seconds
    (i =  10 of  10)       1988 seconds

    Disp202 (T)         =    -0.000509851631 H

    Disp22 (T)          =    -0.000905014152 H

    SAPT Results  
  -----------------------------------------------------------------------
    Electrostatics          -8.78690580 mH      -5.51386686 kcal mol^-1
      Elst10,r              -8.89674046 mH      -5.58278916 kcal mol^-1
      Elst12,r               0.10983467 mH       0.06892230 kcal mol^-1

    Exchange                 8.38677402 mH       5.26278037 kcal mol^-1
      Exch10                 7.51401326 mH       4.71511470 kcal mol^-1
      Exch10(S^2)            7.48409090 mH       4.69633814 kcal mol^-1
      Exch11(S^2)            0.27311190 mH       0.17138031 kcal mol^-1
      Exch12(S^2)            0.59964886 mH       0.37628536 kcal mol^-1

    Induction               -2.80279992 mH      -1.75878357 kcal mol^-1
      Ind20,r               -4.19122978 mH      -2.63003650 kcal mol^-1
      Ind22                 -0.30365243 mH      -0.19054478 kcal mol^-1
      Exch-Ind20,r           2.50212765 mH       1.57010887 kcal mol^-1
      Exch-Ind22             0.18127785 mH       0.11375357 kcal mol^-1
      delta HF,r (2)        -0.99132321 mH      -0.62206473 kcal mol^-1

    Dispersion              -5.07960896 mH      -3.18750288 kcal mol^-1
      Disp20                -5.30330399 mH      -3.32787364 kcal mol^-1
      Disp21                 0.36498500 mH       0.22903155 kcal mol^-1
      Disp22 (SDQ)           0.10677590 mH       0.06700289 kcal mol^-1
      Disp22 (T)            -0.90501415 mH      -0.56790498 kcal mol^-1
      Exch-Disp20            0.65694829 mH       0.41224129 kcal mol^-1

    Total HF                -4.06315254 mH      -2.54966682 kcal mol^-1
    Total SAPT0             -8.70950825 mH      -5.46529917 kcal mol^-1
    Total SAPT2             -7.84928740 mH      -4.92550241 kcal mol^-1
    Total SAPT2+            -8.28254065 mH      -5.19737294 kcal mol^-1

*** tstop() called on node138.bme.utexas.edu at Tue Sep  2 18:30:09 2014
Module time:
	user time   =   25463.99 seconds =     424.40 minutes
	system time =     118.80 seconds =       1.98 minutes
	total time  =       6718 seconds =     111.97 minutes
Total time:
	user time   =   25980.61 seconds =     433.01 minutes
	system time =     123.48 seconds =       2.06 minutes
	total time  =       6956 seconds =     115.93 minutes

*** PSI4 exiting successfully. Buy a developer a beer!
