    -----------------------------------------------------------------------
          PSI4: An Open-Source Ab Initio Electronic Structure Package
                              PSI 4.0.0-beta4 Driver

    J. M. Turney, A. C. Simmonett, R. M. Parrish, E. G. Hohenstein,
    F. A. Evangelista, J. T. Fermann, B. J. Mintz, L. A. Burns, J. J. Wilke,
    M. L. Abrams, N. J. Russ, M. L. Leininger, C. L. Janssen, E. T. Seidl,
    W. D. Allen, H. F. Schaefer, R. A. King, E. F. Valeev, C. D. Sherrill,
    and T. D. Crawford, WIREs Comput. Mol. Sci., (2011) (doi: 10.1002/wcms.93)

                         Additional Contributions by
    A. E. DePrince, M. Saitow, U. Bozkaya, A. Yu. Sokolov
    -----------------------------------------------------------------------

    Process ID:  16188
    PSI4DATADIR: /home/xzhu216/psi4/psi4-install/share/psi

    Using LocalCommunicator (Number of processes = 1)

    Memory level set to 256.000 MB

  ==> Input File <==

--------------------------------------------------------------------------
#psi4
#
memory 7 gb

molecule Imidazole_Water {
0 1
    C    -3.750532000     0.043169000     0.026787000
    C    -2.716760000    -0.864409000     0.104803000
    N    -1.573375000    -0.118082000     0.006370000
    C    -1.950267000     1.181318000    -0.124296000
    N    -3.267326000     1.318933000    -0.116175000
    H    -0.623650000    -0.467406000     0.026910000
    H    -4.806895000    -0.157626000     0.066144000
    H    -2.696200000    -1.932899000     0.217225000
    H    -1.235893000     1.980319000    -0.220912000
--
0 1
    O     1.320554150    -1.160492100     0.066689250
    H     1.904483150    -1.220575100     0.825593250
    H     1.878679150    -1.379787100    -0.682258750
units angstrom
no_reorient  #important for SAPT in psi4, default
symmetry c1  #important for SAPT in psi4, default
}

set {
basis aug-cc-pVTZ
scf_type DF
freeze_core True
}
energy('sapt2+')
--------------------------------------------------------------------------

  Memory set to   7.000 GiB by Python script.

  //>>>>>>>>>>>>>>>>>>>>>>>>>>>>>>>>>>>//
  //              Dimer HF             //
  //<<<<<<<<<<<<<<<<<<<<<<<<<<<<<<<<<<<//


  No DF_BASIS_SCF auxiliary basis selected, defaulting to aug-cc-pvtz-jkfit


*** tstart() called on node141.bme.utexas.edu
*** at Tue Sep  2 16:35:22 2014


         ---------------------------------------------------------
                                   SCF
            by Justin Turney, Rob Parrish, and Andy Simmonett
                              RHF Reference
                        4 Threads,   7000 MiB Core
         ---------------------------------------------------------

  ==> Geometry <==

    Molecular point group: c1
    Full point group: C1

    Geometry (in Angstrom), charge = 0, multiplicity = 1:

       Center              X                  Y                   Z       
    ------------   -----------------  -----------------  -----------------
           C         -1.969010478376     0.050470418869     0.028517060692
           C         -0.935238478376    -0.857107581131     0.106533060692
           N          0.208146521624    -0.110780581131     0.008100060692
           C         -0.168745478376     1.188619418869    -0.122565939308
           N         -1.485804478376     1.326234418869    -0.114444939308
           H          1.157871521624    -0.460104581131     0.028640060692
           H         -3.025373478376    -0.150324581131     0.067874060692
           H         -0.914678478376    -1.925597581131     0.218955060692
           H          0.545628521624     1.987620418869    -0.219181939308
           O          3.102075671624    -1.153190681131     0.068419310692
           H          3.686004671624    -1.213273681131     0.827323310692
           H          3.660200671624    -1.372485681131    -0.680528689308

  Running in c1 symmetry.

  Nuclear repulsion =  218.112606584161227

  Charge       = 0
  Multiplicity = 1
  Electrons    = 46
  Nalpha       = 23
  Nbeta        = 23

  ==> Algorithm <==

  SCF Algorithm Type is DF.
  DIIS enabled.
  MOM disabled.
  Fractional occupation disabled.
  Guess Type is CORE.
  Energy threshold   = 1.00e-08
  Density threshold  = 1.00e-08
  Integral threshold = 0.00e+00

  ==> Primary Basis <==

  Basis Set: AUG-CC-PVTZ
    Number of shells: 138
    Number of basis function: 414
    Number of Cartesian functions: 480
    Spherical Harmonics?: true
    Max angular momentum: 3

  ==> Pre-Iterations <==

   -------------------------------------------------------
    Irrep   Nso     Nmo     Nalpha   Nbeta   Ndocc  Nsocc
   -------------------------------------------------------
     A        414     414       0       0       0       0
   -------------------------------------------------------
    Total     414     414      23      23      23       0
   -------------------------------------------------------

 OEINTS: Wrapper to libmints.
   by Justin Turney

   Calculation information:
      Number of atoms:                  12
      Number of AO shells:             138
      Number of SO shells:             138
      Number of primitives:            246
      Number of atomic orbitals:       480
      Number of basis functions:       414

      Number of irreps:                  1
      Number of functions per irrep: [ 414 ]

      Overlap, kinetic, potential, dipole, and quadrupole integrals
        stored in file 35.

  ==> Integral Setup <==

  ==> DFJK: Density-Fitted J/K Matrices <==

    J tasked:                  Yes
    K tasked:                  Yes
    wK tasked:                  No
    OpenMP threads:              4
    Integrals threads:           4
    Memory (MB):              5006
    Algorithm:                Core
    Integral Cache:           SAVE
    Schwarz Cutoff:          0E+00
    Fitting Condition:       1E-12

   => Auxiliary Basis Set <=

  Basis Set: aug-cc-pvtz-jkfit
    Number of shells: 264
    Number of basis function: 900
    Number of Cartesian functions: 1116
    Spherical Harmonics?: true
    Max angular momentum: 4

  Minimum eigenvalue in the overlap matrix is 5.9718564464E-06.
  Using Symmetric Orthogonalization.
  SCF Guess: Core (One-Electron) Hamiltonian.

  Guess energy:  -243.18958938572152

  ==> Iterations <==

                        Total Energy        Delta E     RMS |[F,P]|

   @RHF iter   1:  -202.34303469233461   -2.02343e+02   3.23067e-02 
   @RHF iter   2:   -66.85069871353127    1.35492e+02   4.27633e-02 DIIS
   @RHF iter   3:  -245.19938581361336   -1.78349e+02   1.58540e-02 DIIS
   @RHF iter   4:  -219.39859706158697    2.58008e+01   2.42899e-02 DIIS
   @RHF iter   5:  -281.94248131930954   -6.25439e+01   1.16472e-02 DIIS
   @RHF iter   6:  -299.62206024872114   -1.76796e+01   3.91077e-03 DIIS
   @RHF iter   7:  -300.68853375990329   -1.06647e+00   1.81181e-03 DIIS
   @RHF iter   8:  -300.94655992452078   -2.58026e-01   4.04936e-04 DIIS
   @RHF iter   9:  -300.96337369198238   -1.68138e-02   1.16830e-04 DIIS
   @RHF iter  10:  -300.96466698290590   -1.29329e-03   4.38246e-05 DIIS
   @RHF iter  11:  -300.96485599708910   -1.89014e-04   1.29462e-05 DIIS
   @RHF iter  12:  -300.96488330916020   -2.73121e-05   3.92424e-06 DIIS
   @RHF iter  13:  -300.96488697458813   -3.66543e-06   2.10853e-06 DIIS
   @RHF iter  14:  -300.96488775216130   -7.77573e-07   6.66144e-07 DIIS
   @RHF iter  15:  -300.96488791794991   -1.65789e-07   2.64971e-07 DIIS
   @RHF iter  16:  -300.96488793825654   -2.03066e-08   7.76194e-08 DIIS
   @RHF iter  17:  -300.96488793991580   -1.65926e-09   3.22959e-08 DIIS
   @RHF iter  18:  -300.96488794012737   -2.11571e-10   1.15499e-08 DIIS
   @RHF iter  19:  -300.96488794015079   -2.34195e-11   4.88073e-09 DIIS

  ==> Post-Iterations <==

	Orbital Energies (a.u.)
	-----------------------

	Doubly Occupied:                                                      

	   1A    -20.603555     2A    -15.603422     3A    -15.532986  
	   4A    -11.281515     5A    -11.246363     6A    -11.230069  
	   7A     -1.390348     8A     -1.325524     9A     -1.151447  
	  10A     -0.990640    11A     -0.812912    12A     -0.785376  
	  13A     -0.753081    14A     -0.744832    15A     -0.633701  
	  16A     -0.588939    17A     -0.584862    18A     -0.582870  
	  19A     -0.556397    20A     -0.548334    21A     -0.425111  
	  22A     -0.385521    23A     -0.304478  

	Virtual:                                                              

	  24A      0.012665    25A      0.037413    26A      0.038050  
	  27A      0.042873    28A      0.051075    29A      0.069386  
	  30A      0.085117    31A      0.090843    32A      0.113083  
	  33A      0.113623    34A      0.116572    35A      0.125688  
	  36A      0.125941    37A      0.131547    38A      0.138736  
	  39A      0.147342    40A      0.150069    41A      0.158632  
	  42A      0.176598    43A      0.180256    44A      0.189287  
	  45A      0.194561    46A      0.203656    47A      0.209199  
	  48A      0.216528    49A      0.224366    50A      0.226092  
	  51A      0.230579    52A      0.253755    53A      0.256426  
	  54A      0.263175    55A      0.266532    56A      0.276210  
	  57A      0.291615    58A      0.301258    59A      0.305647  
	  60A      0.319526    61A      0.320301    62A      0.327413  
	  63A      0.335296    64A      0.342739    65A      0.343667  
	  66A      0.355954    67A      0.358237    68A      0.372823  
	  69A      0.381629    70A      0.399488    71A      0.400946  
	  72A      0.407322    73A      0.409968    74A      0.418622  
	  75A      0.420848    76A      0.438185    77A      0.438472  
	  78A      0.443889    79A      0.447679    80A      0.465363  
	  81A      0.467342    82A      0.478842    83A      0.491883  
	  84A      0.493547    85A      0.501981    86A      0.510914  
	  87A      0.512137    88A      0.517640    89A      0.531497  
	  90A      0.541250    91A      0.567967    92A      0.583346  
	  93A      0.598934    94A      0.608600    95A      0.616046  
	  96A      0.624892    97A      0.635489    98A      0.641241  
	  99A      0.659052   100A      0.667676   101A      0.674918  
	 102A      0.698361   103A      0.703017   104A      0.704228  
	 105A      0.718398   106A      0.722344   107A      0.730409  
	 108A      0.743092   109A      0.744706   110A      0.769639  
	 111A      0.790317   112A      0.796425   113A      0.797707  
	 114A      0.812719   115A      0.823782   116A      0.828253  
	 117A      0.845422   118A      0.857684   119A      0.867722  
	 120A      0.874661   121A      0.886530   122A      0.887056  
	 123A      0.905221   124A      0.922994   125A      0.929568  
	 126A      0.940973   127A      0.946367   128A      0.950209  
	 129A      0.951331   130A      0.962013   131A      0.963954  
	 132A      0.973147   133A      0.991485   134A      0.997360  
	 135A      1.001533   136A      1.015051   137A      1.019438  
	 138A      1.036394   139A      1.038245   140A      1.041900  
	 141A      1.052691   142A      1.057100   143A      1.068192  
	 144A      1.070022   145A      1.086173   146A      1.104695  
	 147A      1.114312   148A      1.121646   149A      1.126268  
	 150A      1.126336   151A      1.129903   152A      1.161838  
	 153A      1.169987   154A      1.173892   155A      1.188355  
	 156A      1.188882   157A      1.213943   158A      1.224868  
	 159A      1.226365   160A      1.241494   161A      1.252413  
	 162A      1.253984   163A      1.269563   164A      1.290126  
	 165A      1.306245   166A      1.310826   167A      1.313722  
	 168A      1.347911   169A      1.355017   170A      1.382999  
	 171A      1.404210   172A      1.426510   173A      1.440204  
	 174A      1.440500   175A      1.465136   176A      1.481863  
	 177A      1.488126   178A      1.502784   179A      1.508126  
	 180A      1.520935   181A      1.529529   182A      1.536229  
	 183A      1.574242   184A      1.577051   185A      1.598700  
	 186A      1.603672   187A      1.616196   188A      1.639951  
	 189A      1.652397   190A      1.681566   191A      1.698195  
	 192A      1.712090   193A      1.720914   194A      1.731967  
	 195A      1.732864   196A      1.764509   197A      1.776084  
	 198A      1.798800   199A      1.815990   200A      1.819961  
	 201A      1.828943   202A      1.846975   203A      1.862790  
	 204A      1.883979   205A      1.923570   206A      1.938007  
	 207A      1.977220   208A      1.993905   209A      2.001934  
	 210A      2.007450   211A      2.025632   212A      2.043563  
	 213A      2.045518   214A      2.067257   215A      2.076780  
	 216A      2.082544   217A      2.105687   218A      2.117118  
	 219A      2.151074   220A      2.191474   221A      2.193915  
	 222A      2.208359   223A      2.230840   224A      2.251517  
	 225A      2.273945   226A      2.277792   227A      2.287210  
	 228A      2.320918   229A      2.330464   230A      2.341311  
	 231A      2.377148   232A      2.396084   233A      2.412198  
	 234A      2.430541   235A      2.440234   236A      2.460571  
	 237A      2.478370   238A      2.506312   239A      2.507555  
	 240A      2.543388   241A      2.553309   242A      2.583972  
	 243A      2.612269   244A      2.618888   245A      2.673734  
	 246A      2.683564   247A      2.699557   248A      2.727206  
	 249A      2.744687   250A      2.762818   251A      2.773073  
	 252A      2.778640   253A      2.798816   254A      2.842820  
	 255A      2.861871   256A      2.887946   257A      2.891561  
	 258A      2.936681   259A      3.000199   260A      3.026102  
	 261A      3.044960   262A      3.076524   263A      3.156724  
	 264A      3.157107   265A      3.228999   266A      3.286720  
	 267A      3.299671   268A      3.344523   269A      3.395322  
	 270A      3.399254   271A      3.426336   272A      3.489340  
	 273A      3.520230   274A      3.545448   275A      3.568869  
	 276A      3.582903   277A      3.609282   278A      3.633402  
	 279A      3.666786   280A      3.712979   281A      3.720121  
	 282A      3.731250   283A      3.762630   284A      3.770207  
	 285A      3.773796   286A      3.783048   287A      3.802708  
	 288A      3.815850   289A      3.841645   290A      3.856223  
	 291A      3.882856   292A      3.917442   293A      3.918884  
	 294A      3.962687   295A      3.978045   296A      4.020399  
	 297A      4.032103   298A      4.063471   299A      4.128791  
	 300A      4.155194   301A      4.155495   302A      4.161109  
	 303A      4.170081   304A      4.182417   305A      4.193429  
	 306A      4.201261   307A      4.218870   308A      4.238756  
	 309A      4.252393   310A      4.268372   311A      4.292307  
	 312A      4.294272   313A      4.311452   314A      4.314738  
	 315A      4.351763   316A      4.391878   317A      4.408739  
	 318A      4.421107   319A      4.450432   320A      4.462328  
	 321A      4.482361   322A      4.520027   323A      4.542352  
	 324A      4.574120   325A      4.575816   326A      4.607587  
	 327A      4.634957   328A      4.660560   329A      4.667554  
	 330A      4.692010   331A      4.733081   332A      4.812842  
	 333A      4.819259   334A      4.836562   335A      4.863932  
	 336A      4.876812   337A      4.933658   338A      4.941488  
	 339A      4.964871   340A      4.996537   341A      5.000609  
	 342A      5.059400   343A      5.059833   344A      5.118515  
	 345A      5.136052   346A      5.137053   347A      5.178316  
	 348A      5.201851   349A      5.227789   350A      5.265623  
	 351A      5.274306   352A      5.352226   353A      5.355692  
	 354A      5.380380   355A      5.397466   356A      5.430221  
	 357A      5.495088   358A      5.554233   359A      5.554305  
	 360A      5.579083   361A      5.602108   362A      5.645477  
	 363A      5.651494   364A      5.709302   365A      5.734526  
	 366A      5.792351   367A      5.804161   368A      5.828831  
	 369A      5.851616   370A      5.870528   371A      5.873427  
	 372A      5.900956   373A      5.955398   374A      5.958038  
	 375A      5.999980   376A      6.060497   377A      6.086849  
	 378A      6.195612   379A      6.233448   380A      6.279179  
	 381A      6.294765   382A      6.311118   383A      6.479258  
	 384A      6.532896   385A      6.567385   386A      6.576663  
	 387A      6.652591   388A      6.702448   389A      6.783042  
	 390A      6.831788   391A      6.836905   392A      6.952532  
	 393A      7.029103   394A      7.097826   395A      7.106162  
	 396A      7.142748   397A      7.177604   398A      7.282288  
	 399A      7.298300   400A      7.336890   401A      7.340483  
	 402A      7.522724   403A      7.547305   404A      7.730593  
	 405A      7.882274   406A      7.896014   407A      7.948304  
	 408A      8.826438   409A     15.983990   410A     16.201398  
	 411A     17.125338   412A     17.706795   413A     18.811612  
	 414A     19.211272  

	Final Occupation by Irrep:
	          A 
	DOCC [    23 ]

  Energy converged.

  @RHF Final Energy:  -300.96488794015079

   => Energetics <=

    Nuclear Repulsion Energy =            218.1126065841612274
    One-Electron Energy =                -842.0304238826187202
    Two-Electron Energy =                 322.9529293583062781
    DFT Exchange-Correlation Energy =       0.0000000000000000
    Empirical Dispersion Energy =           0.0000000000000000
    Total Energy =                       -300.9648879401512431



Properties will be evaluated at   0.000000,   0.000000,   0.000000 Bohr
  ==> Properties <==


Properties computed using the SCF density density matrix
  Nuclear Dipole Moment: (a.u.)
     X:     4.8088      Y:    -2.9473      Z:     0.2285

  Electronic Dipole Moment: (a.u.)
     X:    -2.5083      Y:     1.7347      Z:    -0.1400

  Dipole Moment: (a.u.)
     X:     2.3005      Y:    -1.2125      Z:     0.0885     Total:     2.6019

  Dipole Moment: (Debye)
     X:     5.8472      Y:    -3.0819      Z:     0.2249     Total:     6.6135


  Saving occupied orbitals to File 180.

  Saving SAPT 2-DIMER file.

*** tstop() called on node141.bme.utexas.edu at Tue Sep  2 16:36:34 2014
Module time:
	user time   =     267.41 seconds =       4.46 minutes
	system time =       2.82 seconds =       0.05 minutes
	total time  =         72 seconds =       1.20 minutes
Total time:
	user time   =     267.41 seconds =       4.46 minutes
	system time =       2.82 seconds =       0.05 minutes
	total time  =         72 seconds =       1.20 minutes

  //>>>>>>>>>>>>>>>>>>>>>>>>>>>>>>>>>>>//
  //            Monomer A HF           //
  //<<<<<<<<<<<<<<<<<<<<<<<<<<<<<<<<<<<//


  No DF_BASIS_SCF auxiliary basis selected, defaulting to aug-cc-pvtz-jkfit


*** tstart() called on node141.bme.utexas.edu
*** at Tue Sep  2 16:36:34 2014


         ---------------------------------------------------------
                                   SCF
            by Justin Turney, Rob Parrish, and Andy Simmonett
                              RHF Reference
                        4 Threads,   7000 MiB Core
         ---------------------------------------------------------

  ==> Geometry <==

    Molecular point group: c1
    Full point group: C1

    Geometry (in Angstrom), charge = 0, multiplicity = 1:

       Center              X                  Y                   Z       
    ------------   -----------------  -----------------  -----------------
           C         -1.969010478376     0.050470418869     0.028517060692
           C         -0.935238478376    -0.857107581131     0.106533060692
           N          0.208146521624    -0.110780581131     0.008100060692
           C         -0.168745478376     1.188619418869    -0.122565939308
           N         -1.485804478376     1.326234418869    -0.114444939308
           H          1.157871521624    -0.460104581131     0.028640060692
           H         -3.025373478376    -0.150324581131     0.067874060692
           H         -0.914678478376    -1.925597581131     0.218955060692
           H          0.545628521624     1.987620418869    -0.219181939308
           O(Gh)      3.102075671624    -1.153190681131     0.068419310692
           H(Gh)      3.686004671624    -1.213273681131     0.827323310692
           H(Gh)      3.660200671624    -1.372485681131    -0.680528689308

  Running in c1 symmetry.

  Nuclear repulsion =  163.311236019440315

  Charge       = 0
  Multiplicity = 1
  Electrons    = 36
  Nalpha       = 18
  Nbeta        = 18

  ==> Algorithm <==

  SCF Algorithm Type is DF.
  DIIS enabled.
  MOM disabled.
  Fractional occupation disabled.
  Guess Type is CORE.
  Energy threshold   = 1.00e-08
  Density threshold  = 1.00e-08
  Integral threshold = 0.00e+00

  ==> Primary Basis <==

  Basis Set: AUG-CC-PVTZ
    Number of shells: 138
    Number of basis function: 414
    Number of Cartesian functions: 480
    Spherical Harmonics?: true
    Max angular momentum: 3

  ==> Pre-Iterations <==

   -------------------------------------------------------
    Irrep   Nso     Nmo     Nalpha   Nbeta   Ndocc  Nsocc
   -------------------------------------------------------
     A        414     414       0       0       0       0
   -------------------------------------------------------
    Total     414     414      18      18      18       0
   -------------------------------------------------------

 OEINTS: Wrapper to libmints.
   by Justin Turney

   Calculation information:
      Number of atoms:                  12
      Number of AO shells:             138
      Number of SO shells:             138
      Number of primitives:            246
      Number of atomic orbitals:       480
      Number of basis functions:       414

      Number of irreps:                  1
      Number of functions per irrep: [ 414 ]

      Overlap, kinetic, potential, dipole, and quadrupole integrals
        stored in file 35.

  ==> Integral Setup <==

  ==> DFJK: Density-Fitted J/K Matrices <==

    J tasked:                  Yes
    K tasked:                  Yes
    wK tasked:                  No
    OpenMP threads:              4
    Integrals threads:           4
    Memory (MB):              5006
    Algorithm:                Core
    Integral Cache:           LOAD
    Schwarz Cutoff:          0E+00
    Fitting Condition:       1E-12

   => Auxiliary Basis Set <=

  Basis Set: aug-cc-pvtz-jkfit
    Number of shells: 264
    Number of basis function: 900
    Number of Cartesian functions: 1116
    Spherical Harmonics?: true
    Max angular momentum: 4

  Minimum eigenvalue in the overlap matrix is 5.9718564463E-06.
  Using Symmetric Orthogonalization.
  SCF Guess: Core (One-Electron) Hamiltonian.

  Guess energy:  -177.70622382143134

  ==> Iterations <==

                        Total Energy        Delta E     RMS |[F,P]|

   @RHF iter   1:  -176.98894773817582   -1.76989e+02   2.78780e-02 
   @RHF iter   2:  -166.83296336927017    1.01560e+01   1.29634e-02 DIIS
   @RHF iter   3:  -198.17624153933522   -3.13433e+01   1.59303e-02 DIIS
   @RHF iter   4:  -220.30177266833070   -2.21255e+01   7.32023e-03 DIIS
   @RHF iter   5:  -222.92115464516698   -2.61938e+00   4.51635e-03 DIIS
   @RHF iter   6:  -224.52821941747382   -1.60706e+00   1.79215e-03 DIIS
   @RHF iter   7:  -224.87841092542968   -3.50192e-01   3.05676e-04 DIIS
   @RHF iter   8:  -224.89537752846584   -1.69666e-02   8.28844e-05 DIIS
   @RHF iter   9:  -224.89640133331616   -1.02380e-03   3.62930e-05 DIIS
   @RHF iter  10:  -224.89665606339324   -2.54730e-04   1.63668e-05 DIIS
   @RHF iter  11:  -224.89672072209103   -6.46587e-05   7.81605e-06 DIIS
   @RHF iter  12:  -224.89673322007846   -1.24980e-05   2.63625e-06 DIIS
   @RHF iter  13:  -224.89673560061507   -2.38054e-06   8.95613e-07 DIIS
   @RHF iter  14:  -224.89673586144144   -2.60826e-07   2.18206e-07 DIIS
   @RHF iter  15:  -224.89673587692872   -1.54873e-08   1.01240e-07 DIIS
   @RHF iter  16:  -224.89673587884099   -1.91227e-09   3.78781e-08 DIIS
   @RHF iter  17:  -224.89673587920143   -3.60444e-10   1.86246e-08 DIIS
   @RHF iter  18:  -224.89673587928084   -7.94103e-11   5.66202e-09 DIIS

  ==> Post-Iterations <==

	Orbital Energies (a.u.)
	-----------------------

	Doubly Occupied:                                                      

	   1A    -15.626656     2A    -15.547652     3A    -11.297578  
	   4A    -11.261504     5A    -11.244334     6A     -1.343253  
	   7A     -1.168656     8A     -1.006142     9A     -0.830435  
	  10A     -0.801463    11A     -0.759628    12A     -0.610070  
	  13A     -0.603468    14A     -0.600503    15A     -0.570328  
	  16A     -0.439187    17A     -0.402339    18A     -0.318961  

	Virtual:                                                              

	  19A      0.014947    20A      0.033923    21A      0.040051  
	  22A      0.041962    23A      0.049261    24A      0.063210  
	  25A      0.081297    26A      0.082520    27A      0.098356  
	  28A      0.107847    29A      0.110474    30A      0.117346  
	  31A      0.119577    32A      0.125919    33A      0.134778  
	  34A      0.140438    35A      0.144542    36A      0.144786  
	  37A      0.162014    38A      0.172810    39A      0.175584  
	  40A      0.189541    41A      0.190635    42A      0.207533  
	  43A      0.210301    44A      0.214888    45A      0.222473  
	  46A      0.228069    47A      0.252940    48A      0.263765  
	  49A      0.270477    50A      0.273287    51A      0.274301  
	  52A      0.278514    53A      0.290267    54A      0.308302  
	  55A      0.315376    56A      0.316577    57A      0.320847  
	  58A      0.323545    59A      0.334525    60A      0.335702  
	  61A      0.341671    62A      0.356310    63A      0.362185  
	  64A      0.362501    65A      0.374310    66A      0.388362  
	  67A      0.392398    68A      0.396661    69A      0.404347  
	  70A      0.405306    71A      0.430410    72A      0.430996  
	  73A      0.433832    74A      0.438703    75A      0.452533  
	  76A      0.455183    77A      0.466395    78A      0.485934  
	  79A      0.491625    80A      0.491944    81A      0.495667  
	  82A      0.507527    83A      0.509543    84A      0.515810  
	  85A      0.525233    86A      0.543225    87A      0.573834  
	  88A      0.582225    89A      0.594954    90A      0.604823  
	  91A      0.612270    92A      0.629528    93A      0.637416  
	  94A      0.658678    95A      0.669332    96A      0.683742  
	  97A      0.694364    98A      0.696372    99A      0.712308  
	 100A      0.722110   101A      0.728918   102A      0.734119  
	 103A      0.759540   104A      0.767724   105A      0.783470  
	 106A      0.786076   107A      0.797917   108A      0.803923  
	 109A      0.810447   110A      0.811894   111A      0.817867  
	 112A      0.845357   113A      0.850052   114A      0.857543  
	 115A      0.869364   116A      0.872666   117A      0.887861  
	 118A      0.897650   119A      0.919854   120A      0.923061  
	 121A      0.927303   122A      0.929450   123A      0.934847  
	 124A      0.942268   125A      0.952513   126A      0.954644  
	 127A      0.963313   128A      0.982483   129A      0.991850  
	 130A      0.993555   131A      1.005716   132A      1.008592  
	 133A      1.027689   134A      1.036405   135A      1.041521  
	 136A      1.050767   137A      1.051202   138A      1.063904  
	 139A      1.066930   140A      1.072614   141A      1.084034  
	 142A      1.087236   143A      1.106411   144A      1.116126  
	 145A      1.118720   146A      1.127043   147A      1.132162  
	 148A      1.150271   149A      1.157709   150A      1.183219  
	 151A      1.196820   152A      1.206144   153A      1.213457  
	 154A      1.219181   155A      1.225612   156A      1.246356  
	 157A      1.263099   158A      1.263475   159A      1.289285  
	 160A      1.289728   161A      1.300170   162A      1.325894  
	 163A      1.358119   164A      1.365948   165A      1.381359  
	 166A      1.415638   167A      1.425770   168A      1.427640  
	 169A      1.443192   170A      1.455948   171A      1.471130  
	 172A      1.485562   173A      1.491938   174A      1.503488  
	 175A      1.505316   176A      1.514992   177A      1.541492  
	 178A      1.563310   179A      1.570852   180A      1.577026  
	 181A      1.588485   182A      1.622565   183A      1.665420  
	 184A      1.669374   185A      1.687907   186A      1.698388  
	 187A      1.708704   188A      1.714319   189A      1.730941  
	 190A      1.745867   191A      1.756143   192A      1.764094  
	 193A      1.767046   194A      1.775207   195A      1.818971  
	 196A      1.839509   197A      1.856960   198A      1.859051  
	 199A      1.874307   200A      1.883826   201A      1.910194  
	 202A      1.934805   203A      1.966372   204A      1.973172  
	 205A      1.987502   206A      2.002825   207A      2.027043  
	 208A      2.033347   209A      2.046681   210A      2.050443  
	 211A      2.059413   212A      2.095652   213A      2.106545  
	 214A      2.137044   215A      2.177492   216A      2.182675  
	 217A      2.194394   218A      2.228623   219A      2.253118  
	 220A      2.264759   221A      2.268870   222A      2.305162  
	 223A      2.321620   224A      2.337345   225A      2.361306  
	 226A      2.397946   227A      2.417237   228A      2.431592  
	 229A      2.438431   230A      2.450925   231A      2.491604  
	 232A      2.497018   233A      2.508170   234A      2.521119  
	 235A      2.536386   236A      2.572174   237A      2.577825  
	 238A      2.614943   239A      2.618122   240A      2.678258  
	 241A      2.702836   242A      2.725312   243A      2.741732  
	 244A      2.763908   245A      2.784171   246A      2.805046  
	 247A      2.848940   248A      2.891344   249A      2.899872  
	 250A      2.928309   251A      2.960333   252A      3.021514  
	 253A      3.029259   254A      3.094616   255A      3.113016  
	 256A      3.141050   257A      3.153546   258A      3.186974  
	 259A      3.195518   260A      3.224213   261A      3.275330  
	 262A      3.287931   263A      3.302480   264A      3.333190  
	 265A      3.377916   266A      3.386550   267A      3.407965  
	 268A      3.474988   269A      3.479154   270A      3.509214  
	 271A      3.534276   272A      3.544057   273A      3.568806  
	 274A      3.594232   275A      3.619909   276A      3.651097  
	 277A      3.656044   278A      3.657070   279A      3.707715  
	 280A      3.726330   281A      3.727669   282A      3.749517  
	 283A      3.776196   284A      3.786306   285A      3.805317  
	 286A      3.834351   287A      3.834918   288A      3.874140  
	 289A      3.902456   290A      3.905964   291A      3.949801  
	 292A      3.958655   293A      4.019842   294A      4.064024  
	 295A      4.120788   296A      4.134136   297A      4.144638  
	 298A      4.166823   299A      4.172266   300A      4.185641  
	 301A      4.185950   302A      4.203612   303A      4.226100  
	 304A      4.253813   305A      4.269203   306A      4.279387  
	 307A      4.293153   308A      4.337094   309A      4.374394  
	 310A      4.394609   311A      4.410766   312A      4.444665  
	 313A      4.465640   314A      4.477723   315A      4.500572  
	 316A      4.529271   317A      4.561534   318A      4.575783  
	 319A      4.635888   320A      4.645353   321A      4.677892  
	 322A      4.708340   323A      4.717598   324A      4.783479  
	 325A      4.790723   326A      4.805450   327A      4.835511  
	 328A      4.851928   329A      4.918287   330A      4.920842  
	 331A      4.930936   332A      4.938413   333A      4.951108  
	 334A      4.980158   335A      4.988950   336A      5.032301  
	 337A      5.047538   338A      5.054996   339A      5.134687  
	 340A      5.167891   341A      5.187823   342A      5.200081  
	 343A      5.220350   344A      5.254715   345A      5.327291  
	 346A      5.360334   347A      5.380525   348A      5.403092  
	 349A      5.463910   350A      5.523019   351A      5.562360  
	 352A      5.564377   353A      5.599861   354A      5.607305  
	 355A      5.611674   356A      5.661120   357A      5.667680  
	 358A      5.699386   359A      5.716372   360A      5.781949  
	 361A      5.782960   362A      5.807000   363A      5.842199  
	 364A      5.852917   365A      5.874540   366A      5.885723  
	 367A      5.893100   368A      5.939577   369A      5.977527  
	 370A      6.047668   371A      6.070100   372A      6.162206  
	 373A      6.184238   374A      6.241667   375A      6.264529  
	 376A      6.308442   377A      6.463625   378A      6.472394  
	 379A      6.524307   380A      6.563007   381A      6.636071  
	 382A      6.646924   383A      6.747125   384A      6.815447  
	 385A      6.868172   386A      6.974013   387A      7.019108  
	 388A      7.088318   389A      7.090672   390A      7.141020  
	 391A      7.512861   392A      7.759933   393A      7.816389  
	 394A      8.037306   395A      8.066572   396A      8.167022  
	 397A      8.247962   398A      8.813566   399A      8.840843  
	 400A      9.851470   401A      9.930493   402A      9.961863  
	 403A     10.272531   404A     11.229029   405A     11.666987  
	 406A     12.371049   407A     13.547897   408A     13.802038  
	 409A     15.984605   410A     17.002160   411A     17.691037  
	 412A     18.791363   413A     19.136535   414A     66.029906  

	Final Occupation by Irrep:
	          A 
	DOCC [    18 ]

  Energy converged.

  @RHF Final Energy:  -224.89673587928084

   => Energetics <=

    Nuclear Repulsion Energy =            163.3112360194403152
    One-Electron Energy =                -627.5516307968829324
    Two-Electron Energy =                 239.3436588981624595
    DFT Exchange-Correlation Energy =       0.0000000000000000
    Empirical Dispersion Energy =           0.0000000000000000
    Total Energy =                       -224.8967358792801292



Properties will be evaluated at   0.000000,   0.000000,   0.000000 Bohr
  ==> Properties <==


Properties computed using the SCF density density matrix
  Nuclear Dipole Moment: (a.u.)
     X:   -55.9701      Y:    19.3728      Z:    -1.0832

  Electronic Dipole Moment: (a.u.)
     X:    57.2011      Y:   -20.2846      Z:     1.1583

  Dipole Moment: (a.u.)
     X:     1.2310      Y:    -0.9117      Z:     0.0751     Total:     1.5337

  Dipole Moment: (Debye)
     X:     3.1288      Y:    -2.3174      Z:     0.1908     Total:     3.8982


  Saving occupied orbitals to File 180.

  Saving SAPT 2-MONOMER_A file.

*** tstop() called on node141.bme.utexas.edu at Tue Sep  2 16:37:30 2014
Module time:
	user time   =     214.63 seconds =       3.58 minutes
	system time =       2.00 seconds =       0.03 minutes
	total time  =         56 seconds =       0.93 minutes
Total time:
	user time   =     482.06 seconds =       8.03 minutes
	system time =       4.82 seconds =       0.08 minutes
	total time  =        128 seconds =       2.13 minutes

  //>>>>>>>>>>>>>>>>>>>>>>>>>>>>>>>>>>>//
  //            Monomer B HF           //
  //<<<<<<<<<<<<<<<<<<<<<<<<<<<<<<<<<<<//


  No DF_BASIS_SCF auxiliary basis selected, defaulting to aug-cc-pvtz-jkfit


*** tstart() called on node141.bme.utexas.edu
*** at Tue Sep  2 16:37:30 2014


         ---------------------------------------------------------
                                   SCF
            by Justin Turney, Rob Parrish, and Andy Simmonett
                              RHF Reference
                        4 Threads,   7000 MiB Core
         ---------------------------------------------------------

  ==> Geometry <==

    Molecular point group: c1
    Full point group: C1

    Geometry (in Angstrom), charge = 0, multiplicity = 1:

       Center              X                  Y                   Z       
    ------------   -----------------  -----------------  -----------------
           C(Gh)     -1.969010478376     0.050470418869     0.028517060692
           C(Gh)     -0.935238478376    -0.857107581131     0.106533060692
           N(Gh)      0.208146521624    -0.110780581131     0.008100060692
           C(Gh)     -0.168745478376     1.188619418869    -0.122565939308
           N(Gh)     -1.485804478376     1.326234418869    -0.114444939308
           H(Gh)      1.157871521624    -0.460104581131     0.028640060692
           H(Gh)     -3.025373478376    -0.150324581131     0.067874060692
           H(Gh)     -0.914678478376    -1.925597581131     0.218955060692
           H(Gh)      0.545628521624     1.987620418869    -0.219181939308
           O          3.102075671624    -1.153190681131     0.068419310692
           H          3.686004671624    -1.213273681131     0.827323310692
           H          3.660200671624    -1.372485681131    -0.680528689308

  Running in c1 symmetry.

  Nuclear repulsion =    9.173760872145710

  Charge       = 0
  Multiplicity = 1
  Electrons    = 10
  Nalpha       = 5
  Nbeta        = 5

  ==> Algorithm <==

  SCF Algorithm Type is DF.
  DIIS enabled.
  MOM disabled.
  Fractional occupation disabled.
  Guess Type is CORE.
  Energy threshold   = 1.00e-08
  Density threshold  = 1.00e-08
  Integral threshold = 0.00e+00

  ==> Primary Basis <==

  Basis Set: AUG-CC-PVTZ
    Number of shells: 138
    Number of basis function: 414
    Number of Cartesian functions: 480
    Spherical Harmonics?: true
    Max angular momentum: 3

  ==> Pre-Iterations <==

   -------------------------------------------------------
    Irrep   Nso     Nmo     Nalpha   Nbeta   Ndocc  Nsocc
   -------------------------------------------------------
     A        414     414       0       0       0       0
   -------------------------------------------------------
    Total     414     414       5       5       5       0
   -------------------------------------------------------

 OEINTS: Wrapper to libmints.
   by Justin Turney

   Calculation information:
      Number of atoms:                  12
      Number of AO shells:             138
      Number of SO shells:             138
      Number of primitives:            246
      Number of atomic orbitals:       480
      Number of basis functions:       414

      Number of irreps:                  1
      Number of functions per irrep: [ 414 ]

      Overlap, kinetic, potential, dipole, and quadrupole integrals
        stored in file 35.

  ==> Integral Setup <==

  ==> DFJK: Density-Fitted J/K Matrices <==

    J tasked:                  Yes
    K tasked:                  Yes
    wK tasked:                  No
    OpenMP threads:              4
    Integrals threads:           4
    Memory (MB):              5006
    Algorithm:                Core
    Integral Cache:           LOAD
    Schwarz Cutoff:          0E+00
    Fitting Condition:       1E-12

   => Auxiliary Basis Set <=

  Basis Set: aug-cc-pvtz-jkfit
    Number of shells: 264
    Number of basis function: 900
    Number of Cartesian functions: 1116
    Spherical Harmonics?: true
    Max angular momentum: 4

  Minimum eigenvalue in the overlap matrix is 5.9718564463E-06.
  Using Symmetric Orthogonalization.
  SCF Guess: Core (One-Electron) Hamiltonian.

  Guess energy:   -60.18622054352117

  ==> Iterations <==

                        Total Energy        Delta E     RMS |[F,P]|

   @RHF iter   1:   -61.30245754657835   -6.13025e+01   1.95019e-02 
   @RHF iter   2:   -62.18655688307955   -8.84099e-01   6.88974e-03 DIIS
   @RHF iter   3:   -72.63926258412442   -1.04527e+01   8.28075e-03 DIIS
   @RHF iter   4:   -75.16585785511543   -2.52660e+00   3.82061e-03 DIIS
   @RHF iter   5:   -76.03719474400434   -8.71337e-01   4.69843e-04 DIIS
   @RHF iter   6:   -76.05975210643140   -2.25574e-02   1.19204e-04 DIIS
   @RHF iter   7:   -76.06048805828254   -7.35952e-04   1.89833e-05 DIIS
   @RHF iter   8:   -76.06050935126777   -2.12930e-05   3.11123e-06 DIIS
   @RHF iter   9:   -76.06051003828340   -6.87016e-07   4.55425e-07 DIIS
   @RHF iter  10:   -76.06051005958675   -2.13034e-08   4.76954e-08 DIIS
   @RHF iter  11:   -76.06051005988276   -2.96012e-10   1.80408e-08 DIIS
   @RHF iter  12:   -76.06051005990882   -2.60627e-11   1.47828e-09 DIIS

  ==> Post-Iterations <==

	Orbital Energies (a.u.)
	-----------------------

	Doubly Occupied:                                                      

	   1A    -20.567504     2A     -1.352452     3A     -0.716391  
	   4A     -0.584652     5A     -0.510151  

	Virtual:                                                              

	   6A      0.021778     7A      0.030723     8A      0.039127  
	   9A      0.045917    10A      0.049278    11A      0.072286  
	  12A      0.073920    13A      0.080391    14A      0.095031  
	  15A      0.111297    16A      0.111570    17A      0.116137  
	  18A      0.117196    19A      0.117571    20A      0.128813  
	  21A      0.136621    22A      0.146981    23A      0.170060  
	  24A      0.177582    25A      0.181657    26A      0.183905  
	  27A      0.189465    28A      0.193938    29A      0.197793  
	  30A      0.210228    31A      0.227895    32A      0.237075  
	  33A      0.253151    34A      0.259403    35A      0.261329  
	  36A      0.273678    37A      0.275923    38A      0.284432  
	  39A      0.291418    40A      0.296702    41A      0.303624  
	  42A      0.314232    43A      0.324946    44A      0.336613  
	  45A      0.339029    46A      0.347400    47A      0.362401  
	  48A      0.371953    49A      0.375159    50A      0.386212  
	  51A      0.388523    52A      0.389821    53A      0.406680  
	  54A      0.409602    55A      0.411719    56A      0.415135  
	  57A      0.424472    58A      0.427809    59A      0.441256  
	  60A      0.443167    61A      0.458936    62A      0.465709  
	  63A      0.468161    64A      0.475955    65A      0.486739  
	  66A      0.487227    67A      0.502452    68A      0.519420  
	  69A      0.534907    70A      0.546519    71A      0.566767  
	  72A      0.580434    73A      0.588677    74A      0.594745  
	  75A      0.609762    76A      0.624972    77A      0.629655  
	  78A      0.637594    79A      0.642092    80A      0.648147  
	  81A      0.667741    82A      0.679292    83A      0.709963  
	  84A      0.713313    85A      0.718500    86A      0.725625  
	  87A      0.744581    88A      0.766971    89A      0.781831  
	  90A      0.790057    91A      0.799724    92A      0.803512  
	  93A      0.809142    94A      0.826487    95A      0.830804  
	  96A      0.836437    97A      0.844424    98A      0.857130  
	  99A      0.859866   100A      0.871882   101A      0.879295  
	 102A      0.896392   103A      0.908438   104A      0.912865  
	 105A      0.926642   106A      0.936899   107A      0.947379  
	 108A      0.960477   109A      0.961178   110A      1.005656  
	 111A      1.010043   112A      1.016080   113A      1.017775  
	 114A      1.035270   115A      1.045847   116A      1.048950  
	 117A      1.059155   118A      1.071308   119A      1.077508  
	 120A      1.080207   121A      1.093920   122A      1.100901  
	 123A      1.105831   124A      1.120677   125A      1.122143  
	 126A      1.129223   127A      1.139643   128A      1.153028  
	 129A      1.154256   130A      1.161436   131A      1.170333  
	 132A      1.192344   133A      1.199808   134A      1.211386  
	 135A      1.221255   136A      1.224083   137A      1.264235  
	 138A      1.264538   139A      1.272285   140A      1.289605  
	 141A      1.303455   142A      1.319476   143A      1.319600  
	 144A      1.328938   145A      1.334822   146A      1.351246  
	 147A      1.375628   148A      1.391059   149A      1.415022  
	 150A      1.415535   151A      1.452139   152A      1.461708  
	 153A      1.476558   154A      1.486932   155A      1.514365  
	 156A      1.523399   157A      1.528519   158A      1.560875  
	 159A      1.588787   160A      1.605376   161A      1.613537  
	 162A      1.626289   163A      1.648438   164A      1.661206  
	 165A      1.669360   166A      1.682699   167A      1.683707  
	 168A      1.689053   169A      1.694289   170A      1.738910  
	 171A      1.739012   172A      1.761385   173A      1.766832  
	 174A      1.775627   175A      1.783228   176A      1.792798  
	 177A      1.798637   178A      1.808421   179A      1.827691  
	 180A      1.856141   181A      1.873279   182A      1.885791  
	 183A      1.916568   184A      1.930139   185A      1.932388  
	 186A      1.975760   187A      1.982482   188A      1.985652  
	 189A      2.036546   190A      2.050390   191A      2.051975  
	 192A      2.060705   193A      2.079946   194A      2.113109  
	 195A      2.129824   196A      2.141839   197A      2.152495  
	 198A      2.182436   199A      2.199994   200A      2.219477  
	 201A      2.229558   202A      2.255506   203A      2.266480  
	 204A      2.285092   205A      2.305769   206A      2.315746  
	 207A      2.341512   208A      2.347672   209A      2.364033  
	 210A      2.384747   211A      2.405738   212A      2.452418  
	 213A      2.460264   214A      2.466756   215A      2.468115  
	 216A      2.495765   217A      2.505526   218A      2.532877  
	 219A      2.535131   220A      2.551490   221A      2.596682  
	 222A      2.598145   223A      2.641184   224A      2.683151  
	 225A      2.696067   226A      2.735705   227A      2.750450  
	 228A      2.762612   229A      2.792420   230A      2.817164  
	 231A      2.827968   232A      2.842301   233A      2.847853  
	 234A      2.883433   235A      2.887270   236A      2.905371  
	 237A      2.912543   238A      2.932952   239A      2.962886  
	 240A      2.967749   241A      2.983750   242A      3.013614  
	 243A      3.024521   244A      3.069641   245A      3.097364  
	 246A      3.150010   247A      3.184938   248A      3.254070  
	 249A      3.285937   250A      3.404690   251A      3.458616  
	 252A      3.527839   253A      3.557388   254A      3.631509  
	 255A      3.704640   256A      3.793737   257A      3.832985  
	 258A      3.840634   259A      3.883218   260A      3.950544  
	 261A      3.967340   262A      4.027607   263A      4.037168  
	 264A      4.047262   265A      4.110836   266A      4.120872  
	 267A      4.125040   268A      4.132526   269A      4.153152  
	 270A      4.176179   271A      4.205510   272A      4.213285  
	 273A      4.237011   274A      4.267447   275A      4.297315  
	 276A      4.307980   277A      4.343826   278A      4.360079  
	 279A      4.370871   280A      4.401051   281A      4.446565  
	 282A      4.508982   283A      4.514535   284A      4.580236  
	 285A      4.586877   286A      4.602572   287A      4.620467  
	 288A      4.645153   289A      4.667800   290A      4.680206  
	 291A      4.709593   292A      4.715553   293A      4.777776  
	 294A      4.786362   295A      4.799552   296A      4.862398  
	 297A      4.880864   298A      4.894161   299A      4.916356  
	 300A      4.919200   301A      4.929175   302A      4.929806  
	 303A      4.976293   304A      5.019936   305A      5.029972  
	 306A      5.030032   307A      5.056318   308A      5.078710  
	 309A      5.078925   310A      5.126505   311A      5.134323  
	 312A      5.146129   313A      5.160277   314A      5.160471  
	 315A      5.181144   316A      5.217243   317A      5.236896  
	 318A      5.280674   319A      5.289969   320A      5.320175  
	 321A      5.357570   322A      5.372015   323A      5.413765  
	 324A      5.448553   325A      5.526303   326A      5.539875  
	 327A      5.542375   328A      5.595021   329A      5.620034  
	 330A      5.665537   331A      5.708816   332A      5.727417  
	 333A      5.801201   334A      5.888193   335A      5.904004  
	 336A      5.997417   337A      6.002274   338A      6.045502  
	 339A      6.085640   340A      6.139128   341A      6.182953  
	 342A      6.262925   343A      6.287745   344A      6.309882  
	 345A      6.334742   346A      6.400875   347A      6.433705  
	 348A      6.489632   349A      6.523421   350A      6.570629  
	 351A      6.588190   352A      6.593100   353A      6.646429  
	 354A      6.653695   355A      6.731936   356A      6.785957  
	 357A      6.834032   358A      6.858638   359A      6.863368  
	 360A      6.928914   361A      6.946036   362A      7.017821  
	 363A      7.089599   364A      7.166866   365A      7.200607  
	 366A      7.283768   367A      7.309687   368A      7.321309  
	 369A      7.342326   370A      7.352571   371A      7.375261  
	 372A      7.377637   373A      7.436600   374A      7.502219  
	 375A      7.505669   376A      7.552504   377A      7.579679  
	 378A      7.642060   379A      7.691783   380A      7.717886  
	 381A      7.819337   382A      7.880764   383A      7.883916  
	 384A      7.938740   385A      7.939433   386A      7.955806  
	 387A      8.164398   388A      8.179584   389A      8.355781  
	 390A      8.449856   391A      8.537104   392A      8.626153  
	 393A      8.805348   394A      8.860780   395A      8.945028  
	 396A      9.135686   397A      9.486858   398A      9.547251  
	 399A      9.641556   400A     10.233392   401A     10.624515  
	 402A     11.058306   403A     11.109612   404A     11.602314  
	 405A     11.842269   406A     11.978743   407A     12.157764  
	 408A     13.077416   409A     16.450505   410A     51.015460  
	 411A     51.994921   412A     53.611911   413A     58.973082  
	 414A     62.419420  

	Final Occupation by Irrep:
	          A 
	DOCC [     5 ]

  Energy converged.

  @RHF Final Energy:   -76.06051005990882

   => Energetics <=

    Nuclear Repulsion Energy =              9.1737608721457100
    One-Electron Energy =                -123.0062409581192924
    Two-Electron Energy =                  37.7719700260646505
    DFT Exchange-Correlation Energy =       0.0000000000000000
    Empirical Dispersion Energy =           0.0000000000000000
    Total Energy =                        -76.0605100599089354



Properties will be evaluated at   0.000000,   0.000000,   0.000000 Bohr
  ==> Properties <==


Properties computed using the SCF density density matrix
  Nuclear Dipole Moment: (a.u.)
     X:    60.7789      Y:   -22.3201      Z:     1.3118

  Electronic Dipole Moment: (a.u.)
     X:   -60.0209      Y:    22.1346      Z:    -1.3051

  Dipole Moment: (a.u.)
     X:     0.7580      Y:    -0.1855      Z:     0.0066     Total:     0.7804

  Dipole Moment: (Debye)
     X:     1.9268      Y:    -0.4715      Z:     0.0168     Total:     1.9837


  Saving occupied orbitals to File 180.

  Saving SAPT 2-MONOMER_B file.

*** tstop() called on node141.bme.utexas.edu at Tue Sep  2 16:38:06 2014
Module time:
	user time   =     132.11 seconds =       2.20 minutes
	system time =       1.44 seconds =       0.02 minutes
	total time  =         36 seconds =       0.60 minutes
Total time:
	user time   =     614.19 seconds =      10.24 minutes
	system time =       6.26 seconds =       0.10 minutes
	total time  =        164 seconds =       2.73 minutes
  No DF_BASIS_SAPT auxiliary basis selected, defaulting to aug-cc-pvtz-ri

  //>>>>>>>>>>>>>>>>>>>>>>>>>>>>>>>>>>>//
  //               SAPT2+              //
  //<<<<<<<<<<<<<<<<<<<<<<<<<<<<<<<<<<<//


*** tstart() called on node141.bme.utexas.edu
*** at Tue Sep  2 16:38:06 2014

        SAPT2+  
    Ed Hohenstein
     6 June 2009

      Orbital Information
  --------------------------
    NSO        =       414
    NMO        =       414
    NRI        =       912
    NOCC A     =        18
    NOCC B     =         5
    FOCC A     =         5
    FOCC B     =         1
    NVIR A     =       396
    NVIR B     =       409

    Estimated memory usage: 2521.3 MB

    Elst10,r            =    -0.011750194563 H
    Exch10 (S^2)        =     0.006890959239 H
    Exch10              =     0.006924513389 H
    Ind20,r (A<-B)      =    -0.001155582959 H
    Ind20,r (B<-A)      =    -0.001971814885 H
    Ind20,r             =    -0.003127397844 H
    Exch-Ind20,r (A<-B) =     0.000589977762 H
    Exch-Ind20,r (B<-A) =     0.000756030375 H
    Exch-Ind20,r        =     0.001346008137 H
    Disp20              =    -0.003526733387 H
    Exch-Disp20         =     0.000481322212 H
    Elst12,r            =     0.000421524903 H
    Exch11              =    -0.000024018023 H
    Exch12              =     0.000999172050 H
    Ind22               =    -0.000371560140 H
    Disp21              =     0.000188178711 H
    Disp22 (SDQ)        =     0.000009566463 H

    (i =   1 of   4)       1384 seconds
    (i =   2 of   4)       2767 seconds
    (i =   3 of   4)       4149 seconds
    (i =   4 of   4)       5533 seconds

    Disp220 (T)         =    -0.000330541270 H

    (i =   1 of  13)        302 seconds
    (i =   2 of  13)        605 seconds
    (i =   3 of  13)        907 seconds
    (i =   4 of  13)       1209 seconds
    (i =   5 of  13)       1511 seconds
    (i =   6 of  13)       1813 seconds
    (i =   7 of  13)       2115 seconds
    (i =   8 of  13)       2417 seconds
    (i =   9 of  13)       2719 seconds
    (i =  10 of  13)       3021 seconds
    (i =  11 of  13)       3323 seconds
    (i =  12 of  13)       3625 seconds
    (i =  13 of  13)       3927 seconds

    Disp202 (T)         =    -0.000299414873 H

    Disp22 (T)          =    -0.000629956143 H

    SAPT Results  
  -----------------------------------------------------------------------
    Electrostatics         -11.32866966 mH      -7.10884783 kcal mol^-1
      Elst10,r             -11.75019456 mH      -7.37335872 kcal mol^-1
      Elst12,r               0.42152490 mH       0.26451088 kcal mol^-1

    Exchange                 7.89966742 mH       4.95711635 kcal mol^-1
      Exch10                 6.92451339 mH       4.34519793 kcal mol^-1
      Exch10(S^2)            6.89095924 mH       4.32414239 kcal mol^-1
      Exch11(S^2)           -0.02401802 mH      -0.01507154 kcal mol^-1
      Exch12(S^2)            0.99917205 mH       0.62698995 kcal mol^-1

    Induction               -3.02796328 mH      -1.90007572 kcal mol^-1
      Ind20,r               -3.12739784 mH      -1.96247186 kcal mol^-1
      Ind22                 -0.37156014 mH      -0.23315752 kcal mol^-1
      Exch-Ind20,r           1.34600814 mH       0.84463289 kcal mol^-1
      Exch-Ind22             0.15991665 mH       0.10034921 kcal mol^-1
      delta HF,r (2)        -1.03493008 mH      -0.64942846 kcal mol^-1

    Dispersion              -3.47762214 mH      -2.18224093 kcal mol^-1
      Disp20                -3.52673339 mH      -2.21305870 kcal mol^-1
      Disp21                 0.18817871 mH       0.11808393 kcal mol^-1
      Disp22 (SDQ)           0.00956646 mH       0.00600305 kcal mol^-1
      Disp22 (T)            -0.62995614 mH      -0.39530346 kcal mol^-1
      Exch-Disp20            0.48132221 mH       0.30203426 kcal mol^-1

    Total HF                -7.64200096 mH      -4.79542820 kcal mol^-1
    Total SAPT0            -10.68741214 mH      -6.70645265 kcal mol^-1
    Total SAPT2             -9.50237670 mH      -5.96283165 kcal mol^-1
    Total SAPT2+            -9.93458767 mH      -6.23404814 kcal mol^-1

*** tstop() called on node141.bme.utexas.edu at Tue Sep  2 20:20:29 2014
Module time:
	user time   =   49775.58 seconds =     829.59 minutes
	system time =     170.50 seconds =       2.84 minutes
	total time  =      13343 seconds =     222.38 minutes
Total time:
	user time   =   50389.78 seconds =     839.83 minutes
	system time =     176.76 seconds =       2.95 minutes
	total time  =      13507 seconds =     225.12 minutes

*** PSI4 exiting successfully. Buy a developer a beer!
