    -----------------------------------------------------------------------
          PSI4: An Open-Source Ab Initio Electronic Structure Package
                              PSI 4.0.0-beta4 Driver

    J. M. Turney, A. C. Simmonett, R. M. Parrish, E. G. Hohenstein,
    F. A. Evangelista, J. T. Fermann, B. J. Mintz, L. A. Burns, J. J. Wilke,
    M. L. Abrams, N. J. Russ, M. L. Leininger, C. L. Janssen, E. T. Seidl,
    W. D. Allen, H. F. Schaefer, R. A. King, E. F. Valeev, C. D. Sherrill,
    and T. D. Crawford, WIREs Comput. Mol. Sci., (2011) (doi: 10.1002/wcms.93)

                         Additional Contributions by
    A. E. DePrince, M. Saitow, U. Bozkaya, A. Yu. Sokolov
    -----------------------------------------------------------------------

    Process ID:   4512
    PSI4DATADIR: /home/xzhu216/psi4/psi4-install/share/psi

    Using LocalCommunicator (Number of processes = 1)

    Memory level set to 256.000 MB

  ==> Input File <==

--------------------------------------------------------------------------
#psi4
#
memory 7 gb

molecule Imidazole_Water {
0 1
    C    -3.750532000     0.043169000     0.026787000
    C    -2.716760000    -0.864409000     0.104803000
    N    -1.573375000    -0.118082000     0.006370000
    C    -1.950267000     1.181318000    -0.124296000
    N    -3.267326000     1.318933000    -0.116175000
    H    -0.623650000    -0.467406000     0.026910000
    H    -4.806895000    -0.157626000     0.066144000
    H    -2.696200000    -1.932899000     0.217225000
    H    -1.235893000     1.980319000    -0.220912000
--
0 1
    O     0.672486100    -0.929463400     0.053429500
    H     1.256415100    -0.989546400     0.812333500
    H     1.230611100    -1.148758400    -0.695518500
units angstrom
no_reorient  #important for SAPT in psi4, default
symmetry c1  #important for SAPT in psi4, default
}

set {
basis aug-cc-pVTZ
scf_type DF
freeze_core True
}
energy('sapt2+')
--------------------------------------------------------------------------

  Memory set to   7.000 GiB by Python script.

  //>>>>>>>>>>>>>>>>>>>>>>>>>>>>>>>>>>>//
  //              Dimer HF             //
  //<<<<<<<<<<<<<<<<<<<<<<<<<<<<<<<<<<<//


  No DF_BASIS_SCF auxiliary basis selected, defaulting to aug-cc-pvtz-jkfit


*** tstart() called on node144.bme.utexas.edu
*** at Fri Aug 29 12:05:08 2014


         ---------------------------------------------------------
                                   SCF
            by Justin Turney, Rob Parrish, and Andy Simmonett
                              RHF Reference
                        4 Threads,   7000 MiB Core
         ---------------------------------------------------------

  ==> Geometry <==

    Molecular point group: c1
    Full point group: C1

    Geometry (in Angstrom), charge = 0, multiplicity = 1:

       Center              X                  Y                   Z       
    ------------   -----------------  -----------------  -----------------
           C         -1.833364445990     0.002114190658     0.031292436639
           C         -0.799592445990    -0.905463809342     0.109308436639
           N          0.343792554010    -0.159136809342     0.010875436639
           C         -0.033099445990     1.140263190658    -0.119790563361
           N         -1.350158445990     1.277878190658    -0.111669563361
           H          1.293517554010    -0.508460809342     0.031415436639
           H         -2.889727445990    -0.198680809342     0.070649436639
           H         -0.779032445990    -1.973953809342     0.221730436639
           H          0.681274554010     1.939264190658    -0.216406563361
           O          2.589653654010    -0.970518209342     0.057934936639
           H          3.173582654010    -1.030601209342     0.816838936639
           H          3.147778654010    -1.189813209342    -0.691013063361

  Running in c1 symmetry.

  Nuclear repulsion =  227.752405953875666

  Charge       = 0
  Multiplicity = 1
  Electrons    = 46
  Nalpha       = 23
  Nbeta        = 23

  ==> Algorithm <==

  SCF Algorithm Type is DF.
  DIIS enabled.
  MOM disabled.
  Fractional occupation disabled.
  Guess Type is CORE.
  Energy threshold   = 1.00e-08
  Density threshold  = 1.00e-08
  Integral threshold = 0.00e+00

  ==> Primary Basis <==

  Basis Set: AUG-CC-PVTZ
    Number of shells: 138
    Number of basis function: 414
    Number of Cartesian functions: 480
    Spherical Harmonics?: true
    Max angular momentum: 3

  ==> Pre-Iterations <==

   -------------------------------------------------------
    Irrep   Nso     Nmo     Nalpha   Nbeta   Ndocc  Nsocc
   -------------------------------------------------------
     A        414     414       0       0       0       0
   -------------------------------------------------------
    Total     414     414      23      23      23       0
   -------------------------------------------------------

 OEINTS: Wrapper to libmints.
   by Justin Turney

   Calculation information:
      Number of atoms:                  12
      Number of AO shells:             138
      Number of SO shells:             138
      Number of primitives:            246
      Number of atomic orbitals:       480
      Number of basis functions:       414

      Number of irreps:                  1
      Number of functions per irrep: [ 414 ]

      Overlap, kinetic, potential, dipole, and quadrupole integrals
        stored in file 35.

  ==> Integral Setup <==

  ==> DFJK: Density-Fitted J/K Matrices <==

    J tasked:                  Yes
    K tasked:                  Yes
    wK tasked:                  No
    OpenMP threads:              4
    Integrals threads:           4
    Memory (MB):              5006
    Algorithm:                Core
    Integral Cache:           SAVE
    Schwarz Cutoff:          0E+00
    Fitting Condition:       1E-12

   => Auxiliary Basis Set <=

  Basis Set: aug-cc-pvtz-jkfit
    Number of shells: 264
    Number of basis function: 900
    Number of Cartesian functions: 1116
    Spherical Harmonics?: true
    Max angular momentum: 4

  Minimum eigenvalue in the overlap matrix is 5.6503270129E-06.
  Using Symmetric Orthogonalization.
  SCF Guess: Core (One-Electron) Hamiltonian.

  Guess energy:  -240.48990181415797

  ==> Iterations <==

                        Total Energy        Delta E     RMS |[F,P]|

   @RHF iter   1:  -218.43308627055546   -2.18433e+02   3.22057e-02 
   @RHF iter   2:  -127.05892969956113    9.13742e+01   3.05698e-02 DIIS
   @RHF iter   3:  -246.44587641487061   -1.19387e+02   1.61892e-02 DIIS
   @RHF iter   4:  -216.41469189835067    3.00312e+01   2.28317e-02 DIIS
   @RHF iter   5:  -285.87206716626548   -6.94574e+01   1.03543e-02 DIIS
   @RHF iter   6:  -300.55812546400858   -1.46861e+01   2.12047e-03 DIIS
   @RHF iter   7:  -300.82029105389728   -2.62166e-01   1.29023e-03 DIIS
   @RHF iter   8:  -300.93734958337569   -1.17059e-01   1.48132e-04 DIIS
   @RHF iter   9:  -300.94015267093954   -2.80309e-03   5.79448e-05 DIIS
   @RHF iter  10:  -300.94060012037818   -4.47449e-04   2.66701e-05 DIIS
   @RHF iter  11:  -300.94071945076161   -1.19330e-04   1.11298e-05 DIIS
   @RHF iter  12:  -300.94075382291970   -3.43722e-05   4.83021e-06 DIIS
   @RHF iter  13:  -300.94076409261726   -1.02697e-05   2.07306e-06 DIIS
   @RHF iter  14:  -300.94076546968137   -1.37706e-06   4.86966e-07 DIIS
   @RHF iter  15:  -300.94076552362418   -5.39428e-08   1.88068e-07 DIIS
   @RHF iter  16:  -300.94076553048086   -6.85668e-09   4.96541e-08 DIIS
   @RHF iter  17:  -300.94076553094243   -4.61569e-10   1.43972e-08 DIIS
   @RHF iter  18:  -300.94076553100325   -6.08225e-11   6.78633e-09 DIIS

  ==> Post-Iterations <==

	Orbital Energies (a.u.)
	-----------------------

	Doubly Occupied:                                                      

	   1A    -20.629668     2A    -15.569445     3A    -15.520414  
	   4A    -11.266748     5A    -11.232759     6A    -11.218236  
	   7A     -1.432170     8A     -1.308647     9A     -1.137412  
	  10A     -0.977821    11A     -0.829942    12A     -0.786088  
	  13A     -0.771294    14A     -0.745651    15A     -0.662839  
	  16A     -0.586304    17A     -0.573274    18A     -0.566104  
	  19A     -0.548787    20A     -0.538663    21A     -0.412415  
	  22A     -0.369322    23A     -0.292575  

	Virtual:                                                              

	  24A      0.006650    25A      0.034306    26A      0.037562  
	  27A      0.043759    28A      0.052699    29A      0.066284  
	  30A      0.088865    31A      0.090134    32A      0.108698  
	  33A      0.114784    34A      0.116705    35A      0.120567  
	  36A      0.130042    37A      0.132983    38A      0.143116  
	  39A      0.147956    40A      0.155131    41A      0.155899  
	  42A      0.174833    43A      0.187796    44A      0.193368  
	  45A      0.194024    46A      0.203168    47A      0.213651  
	  48A      0.222699    49A      0.226139    50A      0.232998  
	  51A      0.237897    52A      0.252315    53A      0.259477  
	  54A      0.264720    55A      0.272017    56A      0.282804  
	  57A      0.301471    58A      0.303350    59A      0.321005  
	  60A      0.323684    61A      0.330904    62A      0.332579  
	  63A      0.342156    64A      0.344610    65A      0.349637  
	  66A      0.359126    67A      0.368636    68A      0.379022  
	  69A      0.383847    70A      0.410763    71A      0.412157  
	  72A      0.415943    73A      0.425017    74A      0.426295  
	  75A      0.436548    76A      0.443337    77A      0.446826  
	  78A      0.452788    79A      0.459762    80A      0.472992  
	  81A      0.480781    82A      0.499171    83A      0.504386  
	  84A      0.505153    85A      0.516545    86A      0.522263  
	  87A      0.523003    88A      0.525874    89A      0.537884  
	  90A      0.576573    91A      0.587556    92A      0.591542  
	  93A      0.610821    94A      0.627110    95A      0.631315  
	  96A      0.633864    97A      0.647926    98A      0.656080  
	  99A      0.660128   100A      0.678364   101A      0.683103  
	 102A      0.702883   103A      0.711195   104A      0.719254  
	 105A      0.733731   106A      0.739065   107A      0.753869  
	 108A      0.754535   109A      0.758577   110A      0.778827  
	 111A      0.795674   112A      0.808199   113A      0.814012  
	 114A      0.828368   115A      0.831879   116A      0.843988  
	 117A      0.856193   118A      0.872065   119A      0.888555  
	 120A      0.895885   121A      0.903552   122A      0.916646  
	 123A      0.916721   124A      0.927684   125A      0.939608  
	 126A      0.949912   127A      0.952140   128A      0.962027  
	 129A      0.967200   130A      0.967992   131A      0.975035  
	 132A      0.996001   133A      1.007220   134A      1.007908  
	 135A      1.020688   136A      1.032827   137A      1.038184  
	 138A      1.052966   139A      1.060760   140A      1.064583  
	 141A      1.072261   142A      1.080057   143A      1.084649  
	 144A      1.099706   145A      1.122564   146A      1.125185  
	 147A      1.133734   148A      1.136887   149A      1.159553  
	 150A      1.167756   151A      1.176716   152A      1.179389  
	 153A      1.183594   154A      1.210292   155A      1.227114  
	 156A      1.234874   157A      1.238085   158A      1.244522  
	 159A      1.266306   160A      1.282128   161A      1.288245  
	 162A      1.305331   163A      1.315669   164A      1.317154  
	 165A      1.333776   166A      1.355303   167A      1.377828  
	 168A      1.393767   169A      1.405941   170A      1.411911  
	 171A      1.431702   172A      1.454761   173A      1.477306  
	 174A      1.496677   175A      1.501523   176A      1.508815  
	 177A      1.514478   178A      1.532440   179A      1.536896  
	 180A      1.543533   181A      1.581035   182A      1.583950  
	 183A      1.607499   184A      1.615467   185A      1.629995  
	 186A      1.638696   187A      1.664784   188A      1.671320  
	 189A      1.695739   190A      1.720008   191A      1.726459  
	 192A      1.746387   193A      1.754810   194A      1.756493  
	 195A      1.766509   196A      1.790776   197A      1.791230  
	 198A      1.820063   199A      1.840537   200A      1.856855  
	 201A      1.881430   202A      1.885996   203A      1.894546  
	 204A      1.928732   205A      1.956446   206A      1.973248  
	 207A      1.995286   208A      2.006592   209A      2.013085  
	 210A      2.051905   211A      2.063767   212A      2.079145  
	 213A      2.082419   214A      2.087951   215A      2.106161  
	 216A      2.124143   217A      2.137987   218A      2.171420  
	 219A      2.200780   220A      2.203675   221A      2.223129  
	 222A      2.241708   223A      2.253978   224A      2.273670  
	 225A      2.283804   226A      2.300460   227A      2.307123  
	 228A      2.362764   229A      2.366697   230A      2.390094  
	 231A      2.412706   232A      2.430467   233A      2.435748  
	 234A      2.469006   235A      2.482743   236A      2.499603  
	 237A      2.521260   238A      2.540420   239A      2.559836  
	 240A      2.598364   241A      2.613677   242A      2.636871  
	 243A      2.637363   244A      2.677798   245A      2.693392  
	 246A      2.700952   247A      2.765500   248A      2.775449  
	 249A      2.801069   250A      2.816648   251A      2.845058  
	 252A      2.847856   253A      2.874780   254A      2.904127  
	 255A      2.936543   256A      2.976751   257A      3.039532  
	 258A      3.069054   259A      3.094726   260A      3.120126  
	 261A      3.133459   262A      3.146962   263A      3.177550  
	 264A      3.193268   265A      3.282967   266A      3.306025  
	 267A      3.375715   268A      3.409305   269A      3.438067  
	 270A      3.460376   271A      3.508968   272A      3.515961  
	 273A      3.537573   274A      3.567187   275A      3.587886  
	 276A      3.619957   277A      3.648913   278A      3.649395  
	 279A      3.695102   280A      3.739745   281A      3.762220  
	 282A      3.773512   283A      3.775886   284A      3.811367  
	 285A      3.821651   286A      3.835211   287A      3.864187  
	 288A      3.864428   289A      3.905936   290A      3.911538  
	 291A      3.940056   292A      3.943382   293A      3.976341  
	 294A      4.019578   295A      4.033507   296A      4.049334  
	 297A      4.078307   298A      4.131267   299A      4.156955  
	 300A      4.181445   301A      4.195454   302A      4.200377  
	 303A      4.212467   304A      4.223074   305A      4.235366  
	 306A      4.241040   307A      4.259728   308A      4.262314  
	 309A      4.297654   310A      4.319362   311A      4.330764  
	 312A      4.364884   313A      4.375892   314A      4.387704  
	 315A      4.393030   316A      4.440371   317A      4.464191  
	 318A      4.464503   319A      4.539888   320A      4.551965  
	 321A      4.554320   322A      4.570660   323A      4.617770  
	 324A      4.652454   325A      4.659966   326A      4.682018  
	 327A      4.690504   328A      4.693179   329A      4.712919  
	 330A      4.757593   331A      4.785927   332A      4.831308  
	 333A      4.841509   334A      4.851302   335A      4.881669  
	 336A      4.912356   337A      4.962595   338A      4.982167  
	 339A      5.042319   340A      5.064064   341A      5.073247  
	 342A      5.086273   343A      5.089336   344A      5.151497  
	 345A      5.210018   346A      5.211798   347A      5.231413  
	 348A      5.248496   349A      5.276233   350A      5.360861  
	 351A      5.362633   352A      5.402287   353A      5.414452  
	 354A      5.485705   355A      5.509802   356A      5.573274  
	 357A      5.578140   358A      5.593861   359A      5.622797  
	 360A      5.638260   361A      5.688974   362A      5.699306  
	 363A      5.731689   364A      5.771122   365A      5.818395  
	 366A      5.848277   367A      5.849007   368A      5.894525  
	 369A      5.905614   370A      5.919633   371A      5.952838  
	 372A      5.973911   373A      5.988175   374A      6.044355  
	 375A      6.046715   376A      6.105664   377A      6.106851  
	 378A      6.201920   379A      6.292566   380A      6.308372  
	 381A      6.418157   382A      6.496162   383A      6.552350  
	 384A      6.563463   385A      6.607041   386A      6.671177  
	 387A      6.728354   388A      6.827180   389A      6.850748  
	 390A      6.886991   391A      6.902763   392A      6.973008  
	 393A      7.057034   394A      7.119202   395A      7.154515  
	 396A      7.224391   397A      7.267827   398A      7.328098  
	 399A      7.395215   400A      7.417285   401A      7.519471  
	 402A      7.719248   403A      7.754548   404A      7.915217  
	 405A      7.965292   406A      8.201124   407A      8.591842  
	 408A      8.869239   409A     16.100306   410A     16.817447  
	 411A     17.612832   412A     17.926094   413A     19.057136  
	 414A     19.649469  

	Final Occupation by Irrep:
	          A 
	DOCC [    23 ]

  Energy converged.

  @RHF Final Energy:  -300.94076553100325

   => Energetics <=

    Nuclear Repulsion Energy =            227.7524059538756660
    One-Electron Energy =                -861.4331866407211464
    Two-Electron Energy =                 332.7400151558413199
    DFT Exchange-Correlation Energy =       0.0000000000000000
    Empirical Dispersion Energy =           0.0000000000000000
    Total Energy =                       -300.9407655310042173



Properties will be evaluated at   0.000000,   0.000000,   0.000000 Bohr
  ==> Properties <==


Properties computed using the SCF density density matrix
  Nuclear Dipole Moment: (a.u.)
     X:     4.3534      Y:    -2.7849      Z:     0.2192

  Electronic Dipole Moment: (a.u.)
     X:    -1.6473      Y:     1.4247      Z:    -0.1221

  Dipole Moment: (a.u.)
     X:     2.7061      Y:    -1.3602      Z:     0.0971     Total:     3.0303

  Dipole Moment: (Debye)
     X:     6.8781      Y:    -3.4573      Z:     0.2468     Total:     7.7021


  Saving occupied orbitals to File 180.

  Saving SAPT 2-DIMER file.

*** tstop() called on node144.bme.utexas.edu at Fri Aug 29 12:06:16 2014
Module time:
	user time   =     255.54 seconds =       4.26 minutes
	system time =       2.83 seconds =       0.05 minutes
	total time  =         68 seconds =       1.13 minutes
Total time:
	user time   =     255.54 seconds =       4.26 minutes
	system time =       2.83 seconds =       0.05 minutes
	total time  =         68 seconds =       1.13 minutes

  //>>>>>>>>>>>>>>>>>>>>>>>>>>>>>>>>>>>//
  //            Monomer A HF           //
  //<<<<<<<<<<<<<<<<<<<<<<<<<<<<<<<<<<<//


  No DF_BASIS_SCF auxiliary basis selected, defaulting to aug-cc-pvtz-jkfit


*** tstart() called on node144.bme.utexas.edu
*** at Fri Aug 29 12:06:16 2014


         ---------------------------------------------------------
                                   SCF
            by Justin Turney, Rob Parrish, and Andy Simmonett
                              RHF Reference
                        4 Threads,   7000 MiB Core
         ---------------------------------------------------------

  ==> Geometry <==

    Molecular point group: c1
    Full point group: C1

    Geometry (in Angstrom), charge = 0, multiplicity = 1:

       Center              X                  Y                   Z       
    ------------   -----------------  -----------------  -----------------
           C         -1.833364445990     0.002114190658     0.031292436639
           C         -0.799592445990    -0.905463809342     0.109308436639
           N          0.343792554010    -0.159136809342     0.010875436639
           C         -0.033099445990     1.140263190658    -0.119790563361
           N         -1.350158445990     1.277878190658    -0.111669563361
           H          1.293517554010    -0.508460809342     0.031415436639
           H         -2.889727445990    -0.198680809342     0.070649436639
           H         -0.779032445990    -1.973953809342     0.221730436639
           H          0.681274554010     1.939264190658    -0.216406563361
           O(Gh)      2.589653654010    -0.970518209342     0.057934936639
           H(Gh)      3.173582654010    -1.030601209342     0.816838936639
           H(Gh)      3.147778654010    -1.189813209342    -0.691013063361

  Running in c1 symmetry.

  Nuclear repulsion =  163.311236019440344

  Charge       = 0
  Multiplicity = 1
  Electrons    = 36
  Nalpha       = 18
  Nbeta        = 18

  ==> Algorithm <==

  SCF Algorithm Type is DF.
  DIIS enabled.
  MOM disabled.
  Fractional occupation disabled.
  Guess Type is CORE.
  Energy threshold   = 1.00e-08
  Density threshold  = 1.00e-08
  Integral threshold = 0.00e+00

  ==> Primary Basis <==

  Basis Set: AUG-CC-PVTZ
    Number of shells: 138
    Number of basis function: 414
    Number of Cartesian functions: 480
    Spherical Harmonics?: true
    Max angular momentum: 3

  ==> Pre-Iterations <==

   -------------------------------------------------------
    Irrep   Nso     Nmo     Nalpha   Nbeta   Ndocc  Nsocc
   -------------------------------------------------------
     A        414     414       0       0       0       0
   -------------------------------------------------------
    Total     414     414      18      18      18       0
   -------------------------------------------------------

 OEINTS: Wrapper to libmints.
   by Justin Turney

   Calculation information:
      Number of atoms:                  12
      Number of AO shells:             138
      Number of SO shells:             138
      Number of primitives:            246
      Number of atomic orbitals:       480
      Number of basis functions:       414

      Number of irreps:                  1
      Number of functions per irrep: [ 414 ]

      Overlap, kinetic, potential, dipole, and quadrupole integrals
        stored in file 35.

  ==> Integral Setup <==

  ==> DFJK: Density-Fitted J/K Matrices <==

    J tasked:                  Yes
    K tasked:                  Yes
    wK tasked:                  No
    OpenMP threads:              4
    Integrals threads:           4
    Memory (MB):              5006
    Algorithm:                Core
    Integral Cache:           LOAD
    Schwarz Cutoff:          0E+00
    Fitting Condition:       1E-12

   => Auxiliary Basis Set <=

  Basis Set: aug-cc-pvtz-jkfit
    Number of shells: 264
    Number of basis function: 900
    Number of Cartesian functions: 1116
    Spherical Harmonics?: true
    Max angular momentum: 4

  Minimum eigenvalue in the overlap matrix is 5.6503270128E-06.
  Using Symmetric Orthogonalization.
  SCF Guess: Core (One-Electron) Hamiltonian.

  Guess energy:  -177.70890753267628

  ==> Iterations <==

                        Total Energy        Delta E     RMS |[F,P]|

   @RHF iter   1:  -176.96565545598236   -1.76966e+02   2.79345e-02 
   @RHF iter   2:  -166.83722558193051    1.01284e+01   1.29744e-02 DIIS
   @RHF iter   3:  -198.15321008334365   -3.13160e+01   1.59391e-02 DIIS
   @RHF iter   4:  -220.30152801667049   -2.21483e+01   7.32024e-03 DIIS
   @RHF iter   5:  -222.92515831634341   -2.62363e+00   4.51117e-03 DIIS
   @RHF iter   6:  -224.53102381389931   -1.60587e+00   1.78438e-03 DIIS
   @RHF iter   7:  -224.87864357469914   -3.47620e-01   3.03727e-04 DIIS
   @RHF iter   8:  -224.89546071656667   -1.68171e-02   8.12907e-05 DIIS
   @RHF iter   9:  -224.89647274347368   -1.01203e-03   3.55071e-05 DIIS
   @RHF iter  10:  -224.89672217591448   -2.49432e-04   1.54897e-05 DIIS
   @RHF iter  11:  -224.89678431113515   -6.21352e-05   7.20056e-06 DIIS
   @RHF iter  12:  -224.89679463287928   -1.03217e-05   2.67514e-06 DIIS
   @RHF iter  13:  -224.89679690248437   -2.26961e-06   8.99440e-07 DIIS
   @RHF iter  14:  -224.89679716167620   -2.59192e-07   2.20640e-07 DIIS
   @RHF iter  15:  -224.89679717717684   -1.55006e-08   1.05338e-07 DIIS
   @RHF iter  16:  -224.89679717924150   -2.06467e-09   3.84411e-08 DIIS
   @RHF iter  17:  -224.89679717961229   -3.70790e-10   1.87938e-08 DIIS
   @RHF iter  18:  -224.89679717969284   -8.05471e-11   5.70595e-09 DIIS

  ==> Post-Iterations <==

	Orbital Energies (a.u.)
	-----------------------

	Doubly Occupied:                                                      

	   1A    -15.626631     2A    -15.547646     3A    -11.297572  
	   4A    -11.261498     5A    -11.244330     6A     -1.343243  
	   7A     -1.168649     8A     -1.006135     9A     -0.830428  
	  10A     -0.801456    11A     -0.759621    12A     -0.610064  
	  13A     -0.603461    14A     -0.600505    15A     -0.570322  
	  16A     -0.439182    17A     -0.402335    18A     -0.318957  

	Virtual:                                                              

	  19A      0.015351    20A      0.033991    21A      0.040481  
	  22A      0.042676    23A      0.050155    24A      0.065377  
	  25A      0.083074    26A      0.083606    27A      0.097090  
	  28A      0.108566    29A      0.110692    30A      0.118027  
	  31A      0.120435    32A      0.126007    33A      0.135679  
	  34A      0.140682    35A      0.149416    36A      0.149886  
	  37A      0.168666    38A      0.173450    39A      0.184179  
	  40A      0.191307    41A      0.192125    42A      0.211170  
	  43A      0.213957    44A      0.219438    45A      0.223118  
	  46A      0.229643    47A      0.253102    48A      0.264062  
	  49A      0.273863    50A      0.277002    51A      0.277404  
	  52A      0.281557    53A      0.292842    54A      0.315516  
	  55A      0.321261    56A      0.325744    57A      0.326794  
	  58A      0.328526    59A      0.336780    60A      0.336981  
	  61A      0.358077    62A      0.358952    63A      0.363170  
	  64A      0.368168    65A      0.384131    66A      0.394003  
	  67A      0.402652    68A      0.404586    69A      0.416926  
	  70A      0.421435    71A      0.430945    72A      0.439950  
	  73A      0.445188    74A      0.456389    75A      0.458566  
	  76A      0.464296    77A      0.475109    78A      0.493187  
	  79A      0.494919    80A      0.497323    81A      0.502234  
	  82A      0.507067    83A      0.520475    84A      0.527230  
	  85A      0.532720    86A      0.559973    87A      0.578820  
	  88A      0.591744    89A      0.599897    90A      0.617625  
	  91A      0.624852    92A      0.640739    93A      0.657680  
	  94A      0.668723    95A      0.683081    96A      0.692003  
	  97A      0.700589    98A      0.715888    99A      0.725400  
	 100A      0.730885   101A      0.737973   102A      0.749802  
	 103A      0.764672   104A      0.784570   105A      0.791739  
	 106A      0.795686   107A      0.806292   108A      0.821056  
	 109A      0.828544   110A      0.835679   111A      0.848363  
	 112A      0.853510   113A      0.863084   114A      0.864574  
	 115A      0.881544   116A      0.889680   117A      0.891861  
	 118A      0.901116   119A      0.923112   120A      0.926375  
	 121A      0.943316   122A      0.944706   123A      0.945819  
	 124A      0.955817   125A      0.962616   126A      0.978623  
	 127A      0.984870   128A      0.999107   129A      0.999919  
	 130A      1.011767   131A      1.033738   132A      1.039568  
	 133A      1.054318   134A      1.057278   135A      1.059844  
	 136A      1.074201   137A      1.075683   138A      1.084722  
	 139A      1.094369   140A      1.095491   141A      1.110050  
	 142A      1.117993   143A      1.125744   144A      1.152392  
	 145A      1.153892   146A      1.159401   147A      1.173346  
	 148A      1.175973   149A      1.194815   150A      1.203530  
	 151A      1.224697   152A      1.226876   153A      1.248524  
	 154A      1.260649   155A      1.267558   156A      1.273823  
	 157A      1.279640   158A      1.287494   159A      1.310725  
	 160A      1.328702   161A      1.331571   162A      1.338759  
	 163A      1.365273   164A      1.391139   165A      1.418415  
	 166A      1.428383   167A      1.460923   168A      1.484184  
	 169A      1.487501   170A      1.494209   171A      1.502888  
	 172A      1.508962   173A      1.512168   174A      1.524066  
	 175A      1.549103   176A      1.554728   177A      1.579059  
	 178A      1.585732   179A      1.599404   180A      1.631284  
	 181A      1.651010   182A      1.676544   183A      1.693388  
	 184A      1.695430   185A      1.714986   186A      1.718718  
	 187A      1.748348   188A      1.751395   189A      1.777298  
	 190A      1.789378   191A      1.793625   192A      1.802931  
	 193A      1.809677   194A      1.838761   195A      1.841466  
	 196A      1.856903   197A      1.857878   198A      1.873412  
	 199A      1.908294   200A      1.923108   201A      1.941319  
	 202A      1.974783   203A      1.988128   204A      1.995890  
	 205A      2.017947   206A      2.025685   207A      2.041857  
	 208A      2.063795   209A      2.065053   210A      2.084482  
	 211A      2.122948   212A      2.132061   213A      2.153877  
	 214A      2.180710   215A      2.185120   216A      2.191429  
	 217A      2.202546   218A      2.248992   219A      2.272666  
	 220A      2.277759   221A      2.297973   222A      2.311022  
	 223A      2.330547   224A      2.360507   225A      2.370989  
	 226A      2.395861   227A      2.413904   228A      2.457490  
	 229A      2.463007   230A      2.497050   231A      2.512419  
	 232A      2.518486   233A      2.540932   234A      2.566161  
	 235A      2.591891   236A      2.609766   237A      2.647772  
	 238A      2.653282   239A      2.680094   240A      2.683320  
	 241A      2.754969   242A      2.773250   243A      2.823925  
	 244A      2.828592   245A      2.854200   246A      2.901111  
	 247A      2.910641   248A      2.975238   249A      3.011404  
	 250A      3.043345   251A      3.044686   252A      3.070976  
	 253A      3.085676   254A      3.134882   255A      3.161580  
	 256A      3.161967   257A      3.214532   258A      3.271553  
	 259A      3.272433   260A      3.291350   261A      3.323412  
	 262A      3.344467   263A      3.360255   264A      3.387922  
	 265A      3.401914   266A      3.443737   267A      3.488368  
	 268A      3.492623   269A      3.537889   270A      3.544994  
	 271A      3.552810   272A      3.600827   273A      3.611735  
	 274A      3.621203   275A      3.631558   276A      3.667853  
	 277A      3.673846   278A      3.718031   279A      3.752271  
	 280A      3.755229   281A      3.757924   282A      3.771753  
	 283A      3.808367   284A      3.811940   285A      3.842634  
	 286A      3.866176   287A      3.899230   288A      3.919407  
	 289A      3.924632   290A      3.963406   291A      4.008586  
	 292A      4.021562   293A      4.034532   294A      4.130103  
	 295A      4.138485   296A      4.165936   297A      4.169028  
	 298A      4.186497   299A      4.211633   300A      4.216308  
	 301A      4.224233   302A      4.242330   303A      4.270930  
	 304A      4.299425   305A      4.308763   306A      4.339599  
	 307A      4.349541   308A      4.396688   309A      4.397168  
	 310A      4.417055   311A      4.444982   312A      4.480411  
	 313A      4.508805   314A      4.527312   315A      4.553950  
	 316A      4.603384   317A      4.606184   318A      4.641111  
	 319A      4.663602   320A      4.679240   321A      4.704459  
	 322A      4.721779   323A      4.803874   324A      4.808900  
	 325A      4.830931   326A      4.845828   327A      4.861552  
	 328A      4.931789   329A      4.939162   330A      4.953984  
	 331A      4.985259   332A      5.014985   333A      5.022331  
	 334A      5.042881   335A      5.065462   336A      5.068844  
	 337A      5.104554   338A      5.146118   339A      5.184345  
	 340A      5.194184   341A      5.213098   342A      5.259112  
	 343A      5.289976   344A      5.347962   345A      5.356118  
	 346A      5.380657   347A      5.403866   348A      5.483673  
	 349A      5.554722   350A      5.569847   351A      5.607284  
	 352A      5.610823   353A      5.653973   354A      5.671331  
	 355A      5.678460   356A      5.686304   357A      5.712151  
	 358A      5.745210   359A      5.782416   360A      5.800440  
	 361A      5.828610   362A      5.866989   363A      5.867740  
	 364A      5.888294   365A      5.890275   366A      5.923569  
	 367A      5.968812   368A      5.980246   369A      6.057000  
	 370A      6.072110   371A      6.084341   372A      6.242233  
	 373A      6.270193   374A      6.331970   375A      6.337115  
	 376A      6.450141   377A      6.486093   378A      6.567871  
	 379A      6.613150   380A      6.669031   381A      6.756017  
	 382A      6.818514   383A      6.951880   384A      6.999660  
	 385A      7.016401   386A      7.047122   387A      7.096118  
	 388A      7.129010   389A      7.181947   390A      7.340754  
	 391A      7.535346   392A      7.833312   393A      7.919317  
	 394A      8.151832   395A      8.186084   396A      8.261854  
	 397A      8.388610   398A      8.877763   399A      9.139751  
	 400A      9.943504   401A     10.081790   402A     10.127107  
	 403A     10.638846   404A     11.223250   405A     11.730468  
	 406A     12.596082   407A     13.822660   408A     14.096336  
	 409A     16.075480   410A     17.436716   411A     17.764993  
	 412A     19.031594   413A     19.681621   414A     67.208833  

	Final Occupation by Irrep:
	          A 
	DOCC [    18 ]

  Energy converged.

  @RHF Final Energy:  -224.89679717969284

   => Energetics <=

    Nuclear Repulsion Energy =            163.3112360194403436
    One-Electron Energy =                -627.5519984515625538
    Two-Electron Energy =                 239.3439652524284611
    DFT Exchange-Correlation Energy =       0.0000000000000000
    Empirical Dispersion Energy =           0.0000000000000000
    Total Energy =                       -224.8967971796937491



Properties will be evaluated at   0.000000,   0.000000,   0.000000 Bohr
  ==> Properties <==


Properties computed using the SCF density density matrix
  Nuclear Dipole Moment: (a.u.)
     X:   -46.7421      Y:    16.0832      Z:    -0.8944

  Electronic Dipole Moment: (a.u.)
     X:    47.9731      Y:   -16.9948      Z:     0.9695

  Dipole Moment: (a.u.)
     X:     1.2309      Y:    -0.9117      Z:     0.0751     Total:     1.5336

  Dipole Moment: (Debye)
     X:     3.1288      Y:    -2.3172      Z:     0.1908     Total:     3.8981


  Saving occupied orbitals to File 180.

  Saving SAPT 2-MONOMER_A file.

*** tstop() called on node144.bme.utexas.edu at Fri Aug 29 12:07:12 2014
Module time:
	user time   =     214.72 seconds =       3.58 minutes
	system time =       1.85 seconds =       0.03 minutes
	total time  =         56 seconds =       0.93 minutes
Total time:
	user time   =     470.28 seconds =       7.84 minutes
	system time =       4.68 seconds =       0.08 minutes
	total time  =        124 seconds =       2.07 minutes

  //>>>>>>>>>>>>>>>>>>>>>>>>>>>>>>>>>>>//
  //            Monomer B HF           //
  //<<<<<<<<<<<<<<<<<<<<<<<<<<<<<<<<<<<//


  No DF_BASIS_SCF auxiliary basis selected, defaulting to aug-cc-pvtz-jkfit


*** tstart() called on node144.bme.utexas.edu
*** at Fri Aug 29 12:07:12 2014


         ---------------------------------------------------------
                                   SCF
            by Justin Turney, Rob Parrish, and Andy Simmonett
                              RHF Reference
                        4 Threads,   7000 MiB Core
         ---------------------------------------------------------

  ==> Geometry <==

    Molecular point group: c1
    Full point group: C1

    Geometry (in Angstrom), charge = 0, multiplicity = 1:

       Center              X                  Y                   Z       
    ------------   -----------------  -----------------  -----------------
           C(Gh)     -1.833364445990     0.002114190658     0.031292436639
           C(Gh)     -0.799592445990    -0.905463809342     0.109308436639
           N(Gh)      0.343792554010    -0.159136809342     0.010875436639
           C(Gh)     -0.033099445990     1.140263190658    -0.119790563361
           N(Gh)     -1.350158445990     1.277878190658    -0.111669563361
           H(Gh)      1.293517554010    -0.508460809342     0.031415436639
           H(Gh)     -2.889727445990    -0.198680809342     0.070649436639
           H(Gh)     -0.779032445990    -1.973953809342     0.221730436639
           H(Gh)      0.681274554010     1.939264190658    -0.216406563361
           O          2.589653654010    -0.970518209342     0.057934936639
           H          3.173582654010    -1.030601209342     0.816838936639
           H          3.147778654010    -1.189813209342    -0.691013063361

  Running in c1 symmetry.

  Nuclear repulsion =    9.173760872145706

  Charge       = 0
  Multiplicity = 1
  Electrons    = 10
  Nalpha       = 5
  Nbeta        = 5

  ==> Algorithm <==

  SCF Algorithm Type is DF.
  DIIS enabled.
  MOM disabled.
  Fractional occupation disabled.
  Guess Type is CORE.
  Energy threshold   = 1.00e-08
  Density threshold  = 1.00e-08
  Integral threshold = 0.00e+00

  ==> Primary Basis <==

  Basis Set: AUG-CC-PVTZ
    Number of shells: 138
    Number of basis function: 414
    Number of Cartesian functions: 480
    Spherical Harmonics?: true
    Max angular momentum: 3

  ==> Pre-Iterations <==

   -------------------------------------------------------
    Irrep   Nso     Nmo     Nalpha   Nbeta   Ndocc  Nsocc
   -------------------------------------------------------
     A        414     414       0       0       0       0
   -------------------------------------------------------
    Total     414     414       5       5       5       0
   -------------------------------------------------------

 OEINTS: Wrapper to libmints.
   by Justin Turney

   Calculation information:
      Number of atoms:                  12
      Number of AO shells:             138
      Number of SO shells:             138
      Number of primitives:            246
      Number of atomic orbitals:       480
      Number of basis functions:       414

      Number of irreps:                  1
      Number of functions per irrep: [ 414 ]

      Overlap, kinetic, potential, dipole, and quadrupole integrals
        stored in file 35.

  ==> Integral Setup <==

  ==> DFJK: Density-Fitted J/K Matrices <==

    J tasked:                  Yes
    K tasked:                  Yes
    wK tasked:                  No
    OpenMP threads:              4
    Integrals threads:           4
    Memory (MB):              5006
    Algorithm:                Core
    Integral Cache:           LOAD
    Schwarz Cutoff:          0E+00
    Fitting Condition:       1E-12

   => Auxiliary Basis Set <=

  Basis Set: aug-cc-pvtz-jkfit
    Number of shells: 264
    Number of basis function: 900
    Number of Cartesian functions: 1116
    Spherical Harmonics?: true
    Max angular momentum: 4

  Minimum eigenvalue in the overlap matrix is 5.6503270128E-06.
  Using Symmetric Orthogonalization.
  SCF Guess: Core (One-Electron) Hamiltonian.

  Guess energy:   -60.18768157211235

  ==> Iterations <==

                        Total Energy        Delta E     RMS |[F,P]|

   @RHF iter   1:   -61.28520589606988   -6.12852e+01   1.96064e-02 
   @RHF iter   2:   -62.17114207396034   -8.85936e-01   6.89269e-03 DIIS
   @RHF iter   3:   -72.61714503418827   -1.04460e+01   8.30676e-03 DIIS
   @RHF iter   4:   -75.15668471369584   -2.53954e+00   3.84225e-03 DIIS
   @RHF iter   5:   -76.03651068664234   -8.79826e-01   4.78441e-04 DIIS
   @RHF iter   6:   -76.05984344087676   -2.33328e-02   1.18894e-04 DIIS
   @RHF iter   7:   -76.06057594679947   -7.32506e-04   1.89568e-05 DIIS
   @RHF iter   8:   -76.06059724222845   -2.12954e-05   3.17012e-06 DIIS
   @RHF iter   9:   -76.06059795419263   -7.11964e-07   4.63550e-07 DIIS
   @RHF iter  10:   -76.06059797616709   -2.19745e-08   4.84460e-08 DIIS
   @RHF iter  11:   -76.06059797647541   -3.08319e-10   1.81827e-08 DIIS
   @RHF iter  12:   -76.06059797650171   -2.63043e-11   1.45946e-09 DIIS

  ==> Post-Iterations <==

	Orbital Energies (a.u.)
	-----------------------

	Doubly Occupied:                                                      

	   1A    -20.567416     2A     -1.352410     3A     -0.716345  
	   4A     -0.584624     5A     -0.510143  

	Virtual:                                                              

	   6A      0.021117     7A      0.031614     8A      0.039049  
	   9A      0.046100    10A      0.050691    11A      0.071235  
	  12A      0.076078    13A      0.080649    14A      0.096843  
	  15A      0.110708    16A      0.111644    17A      0.117010  
	  18A      0.118916    19A      0.118935    20A      0.129055  
	  21A      0.139446    22A      0.144738    23A      0.173535  
	  24A      0.178498    25A      0.182504    26A      0.183667  
	  27A      0.191329    28A      0.195609    29A      0.201908  
	  30A      0.215725    31A      0.233838    32A      0.242121  
	  33A      0.253613    34A      0.266360    35A      0.266813  
	  36A      0.274824    37A      0.282609    38A      0.290259  
	  39A      0.295679    40A      0.304904    41A      0.307732  
	  42A      0.322802    43A      0.329089    44A      0.337274  
	  45A      0.342433    46A      0.351288    47A      0.368797  
	  48A      0.381486    49A      0.383875    50A      0.391903  
	  51A      0.394732    52A      0.395870    53A      0.411677  
	  54A      0.416274    55A      0.420506    56A      0.426834  
	  57A      0.429755    58A      0.437028    59A      0.446516  
	  60A      0.455844    61A      0.462790    62A      0.470675  
	  63A      0.480280    64A      0.484383    65A      0.498353  
	  66A      0.506454    67A      0.507317    68A      0.525744  
	  69A      0.550442    70A      0.553253    71A      0.574054  
	  72A      0.586976    73A      0.597133    74A      0.606089  
	  75A      0.620242    76A      0.629206    77A      0.637934  
	  78A      0.647728    79A      0.653783    80A      0.673647  
	  81A      0.680495    82A      0.702845    83A      0.724974  
	  84A      0.724983    85A      0.735061    86A      0.740330  
	  87A      0.761224    88A      0.769551    89A      0.784434  
	  90A      0.804881    91A      0.808902    92A      0.811909  
	  93A      0.830839    94A      0.836000    95A      0.836740  
	  96A      0.844481    97A      0.854473    98A      0.865297  
	  99A      0.880357   100A      0.890466   101A      0.908282  
	 102A      0.922202   103A      0.927931   104A      0.939183  
	 105A      0.946829   106A      0.959419   107A      0.973670  
	 108A      0.981643   109A      0.986207   110A      1.015747  
	 111A      1.020230   112A      1.041885   113A      1.042148  
	 114A      1.057215   115A      1.058387   116A      1.070949  
	 117A      1.074805   118A      1.082007   119A      1.084540  
	 120A      1.104211   121A      1.105214   122A      1.118741  
	 123A      1.124815   124A      1.142397   125A      1.148156  
	 126A      1.156950   127A      1.168725   128A      1.175244  
	 129A      1.191118   130A      1.210596   131A      1.214858  
	 132A      1.222872   133A      1.238182   134A      1.241947  
	 135A      1.246232   136A      1.264750   137A      1.295288  
	 138A      1.296347   139A      1.310841   140A      1.326026  
	 141A      1.330603   142A      1.347073   143A      1.362995  
	 144A      1.366284   145A      1.379968   146A      1.398894  
	 147A      1.412376   148A      1.431598   149A      1.435573  
	 150A      1.478223   151A      1.497081   152A      1.497399  
	 153A      1.513084   154A      1.518912   155A      1.542114  
	 156A      1.545415   157A      1.572860   158A      1.593635  
	 159A      1.604136   160A      1.632949   161A      1.635422  
	 162A      1.643856   163A      1.665085   164A      1.671902  
	 165A      1.698410   166A      1.716485   167A      1.718090  
	 168A      1.727165   169A      1.746267   170A      1.752054  
	 171A      1.764556   172A      1.783005   173A      1.792762  
	 174A      1.792833   175A      1.802885   176A      1.823835  
	 177A      1.826157   178A      1.855698   179A      1.902403  
	 180A      1.906097   181A      1.915912   182A      1.924895  
	 183A      1.929514   184A      1.939322   185A      1.980746  
	 186A      1.992582   187A      2.020493   188A      2.037922  
	 189A      2.050152   190A      2.060169   191A      2.099392  
	 192A      2.121260   193A      2.135157   194A      2.141829  
	 195A      2.166834   196A      2.180834   197A      2.190602  
	 198A      2.199370   199A      2.223828   200A      2.237384  
	 201A      2.259786   202A      2.288757   203A      2.297415  
	 204A      2.333201   205A      2.333727   206A      2.343649  
	 207A      2.367674   208A      2.386370   209A      2.403895  
	 210A      2.406549   211A      2.449907   212A      2.470738  
	 213A      2.471830   214A      2.483189   215A      2.485367  
	 216A      2.539550   217A      2.575251   218A      2.605624  
	 219A      2.627195   220A      2.630056   221A      2.655740  
	 222A      2.698046   223A      2.700210   224A      2.714539  
	 225A      2.754443   226A      2.758957   227A      2.788327  
	 228A      2.811233   229A      2.855394   230A      2.873423  
	 231A      2.882288   232A      2.921212   233A      2.922572  
	 234A      2.953719   235A      2.953850   236A      2.975158  
	 237A      2.984265   238A      2.998965   239A      3.015351  
	 240A      3.036991   241A      3.054863   242A      3.083376  
	 243A      3.145268   244A      3.178913   245A      3.206742  
	 246A      3.255284   247A      3.268205   248A      3.338736  
	 249A      3.433918   250A      3.465607   251A      3.516657  
	 252A      3.590317   253A      3.594448   254A      3.652725  
	 255A      3.731729   256A      3.829282   257A      3.927248  
	 258A      3.956828   259A      3.970460   260A      4.035079  
	 261A      4.039510   262A      4.064194   263A      4.081584  
	 264A      4.098971   265A      4.120005   266A      4.132808  
	 267A      4.145357   268A      4.150275   269A      4.185712  
	 270A      4.208030   271A      4.218781   272A      4.263025  
	 273A      4.274733   274A      4.307640   275A      4.319122  
	 276A      4.351617   277A      4.387559   278A      4.412644  
	 279A      4.476823   280A      4.496227   281A      4.498266  
	 282A      4.548389   283A      4.591481   284A      4.620822  
	 285A      4.647946   286A      4.656918   287A      4.688351  
	 288A      4.711563   289A      4.732937   290A      4.741153  
	 291A      4.746678   292A      4.753750   293A      4.808084  
	 294A      4.820018   295A      4.863276   296A      4.864889  
	 297A      4.900116   298A      4.923187   299A      4.933113  
	 300A      4.943138   301A      4.974335   302A      4.997091  
	 303A      5.006373   304A      5.027894   305A      5.042077  
	 306A      5.080522   307A      5.090127   308A      5.095734  
	 309A      5.118554   310A      5.156672   311A      5.160227  
	 312A      5.183263   313A      5.217056   314A      5.244153  
	 315A      5.262489   316A      5.281755   317A      5.305839  
	 318A      5.339949   319A      5.363893   320A      5.375710  
	 321A      5.440897   322A      5.504469   323A      5.547463  
	 324A      5.553886   325A      5.584369   326A      5.587572  
	 327A      5.629658   328A      5.675966   329A      5.728450  
	 330A      5.749358   331A      5.826901   332A      5.853111  
	 333A      5.887895   334A      5.968338   335A      6.006297  
	 336A      6.021254   337A      6.098808   338A      6.107037  
	 339A      6.163581   340A      6.239999   341A      6.280698  
	 342A      6.283051   343A      6.320852   344A      6.339558  
	 345A      6.455105   346A      6.468975   347A      6.492706  
	 348A      6.552373   349A      6.585283   350A      6.585400  
	 351A      6.592793   352A      6.614335   353A      6.667754  
	 354A      6.690956   355A      6.752489   356A      6.810902  
	 357A      6.846610   358A      6.880082   359A      6.947078  
	 360A      7.010724   361A      7.080809   362A      7.112974  
	 363A      7.137499   364A      7.215521   365A      7.261905  
	 366A      7.320815   367A      7.321088   368A      7.353681  
	 369A      7.396524   370A      7.402028   371A      7.478512  
	 372A      7.516446   373A      7.518217   374A      7.541319  
	 375A      7.583140   376A      7.653093   377A      7.703038  
	 378A      7.775342   379A      7.826701   380A      7.894418  
	 381A      7.908292   382A      7.964862   383A      7.999749  
	 384A      8.045121   385A      8.074222   386A      8.149768  
	 387A      8.186088   388A      8.325100   389A      8.468704  
	 390A      8.488191   391A      8.637250   392A      8.747659  
	 393A      8.819098   394A      8.937814   395A      8.980636  
	 396A      9.423144   397A      9.500009   398A      9.596133  
	 399A      9.836778   400A     10.248237   401A     10.699988  
	 402A     11.129817   403A     11.161866   404A     11.722893  
	 405A     11.975156   406A     12.068315   407A     12.184717  
	 408A     13.500678   409A     17.226556   410A     51.313250  
	 411A     52.344200   412A     53.927049   413A     59.352571  
	 414A     63.375746  

	Final Occupation by Irrep:
	          A 
	DOCC [     5 ]

  Energy converged.

  @RHF Final Energy:   -76.06059797650171

   => Energetics <=

    Nuclear Repulsion Energy =              9.1737608721457065
    One-Electron Energy =                -123.0068396694204864
    Two-Electron Energy =                  37.7724808207732394
    DFT Exchange-Correlation Energy =       0.0000000000000000
    Empirical Dispersion Energy =           0.0000000000000000
    Total Energy =                        -76.0605979765015405



Properties will be evaluated at   0.000000,   0.000000,   0.000000 Bohr
  ==> Properties <==


Properties computed using the SCF density density matrix
  Nuclear Dipole Moment: (a.u.)
     X:    51.0955      Y:   -18.8681      Z:     1.1136

  Electronic Dipole Moment: (a.u.)
     X:   -50.3378      Y:    18.6827      Z:    -1.1070

  Dipole Moment: (a.u.)
     X:     0.7578      Y:    -0.1854      Z:     0.0066     Total:     0.7801

  Dipole Moment: (Debye)
     X:     1.9260      Y:    -0.4712      Z:     0.0168     Total:     1.9829


  Saving occupied orbitals to File 180.

  Saving SAPT 2-MONOMER_B file.

*** tstop() called on node144.bme.utexas.edu at Fri Aug 29 12:07:48 2014
Module time:
	user time   =     132.20 seconds =       2.20 minutes
	system time =       1.38 seconds =       0.02 minutes
	total time  =         36 seconds =       0.60 minutes
Total time:
	user time   =     602.51 seconds =      10.04 minutes
	system time =       6.06 seconds =       0.10 minutes
	total time  =        160 seconds =       2.67 minutes
  No DF_BASIS_SAPT auxiliary basis selected, defaulting to aug-cc-pvtz-ri

  //>>>>>>>>>>>>>>>>>>>>>>>>>>>>>>>>>>>//
  //               SAPT2+              //
  //<<<<<<<<<<<<<<<<<<<<<<<<<<<<<<<<<<<//


*** tstart() called on node144.bme.utexas.edu
*** at Fri Aug 29 12:07:48 2014

        SAPT2+  
    Ed Hohenstein
     6 June 2009

      Orbital Information
  --------------------------
    NSO        =       414
    NMO        =       414
    NRI        =       912
    NOCC A     =        18
    NOCC B     =         5
    FOCC A     =         5
    FOCC B     =         1
    NVIR A     =       396
    NVIR B     =       409

    Estimated memory usage: 2521.3 MB

    Elst10,r            =    -0.043707666921 H
    Exch10 (S^2)        =     0.081728689932 H
    Exch10              =     0.085504393888 H
    Ind20,r (A<-B)      =    -0.019388760168 H
    Ind20,r (B<-A)      =    -0.019798860147 H
    Ind20,r             =    -0.039187620315 H
    Exch-Ind20,r (A<-B) =     0.016740294579 H
    Exch-Ind20,r (B<-A) =     0.008257206211 H
    Exch-Ind20,r        =     0.024997500790 H
    Disp20              =    -0.017306433119 H
    Exch-Disp20         =     0.003802278097 H
    Elst12,r            =     0.000085184329 H
    Exch11              =     0.000460201559 H
    Exch12              =     0.004458821286 H
    Ind22               =    -0.004235634755 H
    Disp21              =     0.001634250621 H
    Disp22 (SDQ)        =     0.000061058747 H

    (i =   1 of   4)       1388 seconds
    (i =   2 of   4)       2775 seconds
    (i =   3 of   4)       4162 seconds
    (i =   4 of   4)       5550 seconds

    Disp220 (T)         =    -0.001351657786 H

    (i =   1 of  13)        303 seconds
    (i =   2 of  13)        606 seconds
    (i =   3 of  13)        909 seconds
    (i =   4 of  13)       1213 seconds
    (i =   5 of  13)       1516 seconds
    (i =   6 of  13)       1819 seconds
    (i =   7 of  13)       2122 seconds
    (i =   8 of  13)       2425 seconds
    (i =   9 of  13)       2729 seconds
    (i =  10 of  13)       3032 seconds
    (i =  11 of  13)       3335 seconds
    (i =  12 of  13)       3638 seconds
    (i =  13 of  13)       3941 seconds

    Disp202 (T)         =    -0.001179422844 H

    Disp22 (T)          =    -0.002531080630 H

    SAPT Results  
  -----------------------------------------------------------------------
    Electrostatics         -43.62248259 mH     -27.37352224 kcal mol^-1
      Elst10,r             -43.70766692 mH     -27.42697622 kcal mol^-1
      Elst12,r               0.08518433 mH       0.05345398 kcal mol^-1

    Exchange                90.42341673 mH      56.74155302 kcal mol^-1
      Exch10                85.50439389 mH      53.65481946 kcal mol^-1
      Exch10(S^2)           81.72868993 mH      51.28552935 kcal mol^-1
      Exch11(S^2)            0.46020156 mH       0.28878085 kcal mol^-1
      Exch12(S^2)            4.45882129 mH       2.79795272 kcal mol^-1

    Induction              -26.70085562 mH     -16.75504056 kcal mol^-1
      Ind20,r              -39.18762031 mH     -24.59060403 kcal mol^-1
      Ind22                 -4.23563475 mH      -2.65790105 kcal mol^-1
      Exch-Ind20,r          24.99750079 mH      15.68616922 kcal mol^-1
      Exch-Ind22             2.70188091 mH       1.69545594 kcal mol^-1
      delta HF,r (2)       -10.97698225 mH      -6.88816064 kcal mol^-1

    Dispersion             -14.33992628 mH      -8.99843997 kcal mol^-1
      Disp20               -17.30643312 mH     -10.85995119 kcal mol^-1
      Disp21                 1.63425062 mH       1.02550779 kcal mol^-1
      Disp22 (SDQ)           0.06105875 mH       0.03831494 kcal mol^-1
      Disp22 (T)            -2.53108063 mH      -1.58827714 kcal mol^-1
      Exch-Disp20            3.80227810 mH       2.38596563 kcal mol^-1

    Total HF                16.62962519 mH      10.43524779 kcal mol^-1
    Total SAPT0              3.12547017 mH       1.96126222 kcal mol^-1
    Total SAPT2              6.59592350 mH       4.13900465 kcal mol^-1
    Total SAPT2+             5.76015223 mH       3.61455025 kcal mol^-1

*** tstop() called on node144.bme.utexas.edu at Fri Aug 29 15:51:03 2014
Module time:
	user time   =   49854.14 seconds =     830.90 minutes
	system time =     181.14 seconds =       3.02 minutes
	total time  =      13395 seconds =     223.25 minutes
Total time:
	user time   =   50456.65 seconds =     840.94 minutes
	system time =     187.20 seconds =       3.12 minutes
	total time  =      13555 seconds =     225.92 minutes

*** PSI4 exiting successfully. Buy a developer a beer!
