    -----------------------------------------------------------------------
          PSI4: An Open-Source Ab Initio Electronic Structure Package
                              PSI 4.0.0-beta4 Driver

    J. M. Turney, A. C. Simmonett, R. M. Parrish, E. G. Hohenstein,
    F. A. Evangelista, J. T. Fermann, B. J. Mintz, L. A. Burns, J. J. Wilke,
    M. L. Abrams, N. J. Russ, M. L. Leininger, C. L. Janssen, E. T. Seidl,
    W. D. Allen, H. F. Schaefer, R. A. King, E. F. Valeev, C. D. Sherrill,
    and T. D. Crawford, WIREs Comput. Mol. Sci., (2011) (doi: 10.1002/wcms.93)

                         Additional Contributions by
    A. E. DePrince, M. Saitow, U. Bozkaya, A. Yu. Sokolov
    -----------------------------------------------------------------------

    Process ID:  17729
    PSI4DATADIR: /home/xzhu216/psi4/psi4-install/share/psi

    Using LocalCommunicator (Number of processes = 1)

    Memory level set to 256.000 MB

  ==> Input File <==

--------------------------------------------------------------------------
#psi4
#
memory 7 gb

molecule Imidazole_Water {
0 1
    C    -3.750532000     0.043169000     0.026787000
    C    -2.716760000    -0.864409000     0.104803000
    N    -1.573375000    -0.118082000     0.006370000
    C    -1.950267000     1.181318000    -0.124296000
    N    -3.267326000     1.318933000    -0.116175000
    H    -0.623650000    -0.467406000     0.026910000
    H    -4.806895000    -0.157626000     0.066144000
    H    -2.696200000    -1.932899000     0.217225000
    H    -1.235893000     1.980319000    -0.220912000
--
0 1
    O     1.227973000    -1.127488000     0.064795000
    H     1.811902000    -1.187571000     0.823699000
    H     1.786098000    -1.346783000    -0.684153000
units angstrom
no_reorient  #important for SAPT in psi4, default
symmetry c1  #important for SAPT in psi4, default
}

set {
basis aug-cc-pVTZ
scf_type DF
freeze_core True
}
energy('sapt2+')
--------------------------------------------------------------------------

  Memory set to   7.000 GiB by Python script.

  //>>>>>>>>>>>>>>>>>>>>>>>>>>>>>>>>>>>//
  //              Dimer HF             //
  //<<<<<<<<<<<<<<<<<<<<<<<<<<<<<<<<<<<//


  No DF_BASIS_SCF auxiliary basis selected, defaulting to aug-cc-pvtz-jkfit


*** tstart() called on node37.bme.utexas.edu
*** at Fri Aug 29 12:06:55 2014


         ---------------------------------------------------------
                                   SCF
            by Justin Turney, Rob Parrish, and Andy Simmonett
                              RHF Reference
                        4 Threads,   7000 MiB Core
         ---------------------------------------------------------

  ==> Geometry <==

    Molecular point group: c1
    Full point group: C1

    Geometry (in Angstrom), charge = 0, multiplicity = 1:

       Center              X                  Y                   Z       
    ------------   -----------------  -----------------  -----------------
           C         -1.949632473749     0.043562386268     0.028913542970
           C         -0.915860473749    -0.864015613732     0.106929542970
           N          0.227524526251    -0.117688613732     0.008496542970
           C         -0.149367473749     1.181711386268    -0.122169457030
           N         -1.466426473749     1.319326386268    -0.114048457030
           H          1.177249526251    -0.467012613732     0.029036542970
           H         -3.005995473749    -0.157232613732     0.068270542970
           H         -0.895300473749    -1.932505613732     0.219351542970
           H          0.565006526251     1.980712386268    -0.218785457030
           O          3.028872526251    -1.127094613732     0.066921542970
           H          3.612801526251    -1.187177613732     0.825825542970
           H          3.586997526251    -1.346389613732    -0.682026457030

  Running in c1 symmetry.

  Nuclear repulsion =  219.262277423816357

  Charge       = 0
  Multiplicity = 1
  Electrons    = 46
  Nalpha       = 23
  Nbeta        = 23

  ==> Algorithm <==

  SCF Algorithm Type is DF.
  DIIS enabled.
  MOM disabled.
  Fractional occupation disabled.
  Guess Type is CORE.
  Energy threshold   = 1.00e-08
  Density threshold  = 1.00e-08
  Integral threshold = 0.00e+00

  ==> Primary Basis <==

  Basis Set: AUG-CC-PVTZ
    Number of shells: 138
    Number of basis function: 414
    Number of Cartesian functions: 480
    Spherical Harmonics?: true
    Max angular momentum: 3

  ==> Pre-Iterations <==

   -------------------------------------------------------
    Irrep   Nso     Nmo     Nalpha   Nbeta   Ndocc  Nsocc
   -------------------------------------------------------
     A        414     414       0       0       0       0
   -------------------------------------------------------
    Total     414     414      23      23      23       0
   -------------------------------------------------------

 OEINTS: Wrapper to libmints.
   by Justin Turney

   Calculation information:
      Number of atoms:                  12
      Number of AO shells:             138
      Number of SO shells:             138
      Number of primitives:            246
      Number of atomic orbitals:       480
      Number of basis functions:       414

      Number of irreps:                  1
      Number of functions per irrep: [ 414 ]

      Overlap, kinetic, potential, dipole, and quadrupole integrals
        stored in file 35.

  ==> Integral Setup <==

  ==> DFJK: Density-Fitted J/K Matrices <==

    J tasked:                  Yes
    K tasked:                  Yes
    wK tasked:                  No
    OpenMP threads:              4
    Integrals threads:           4
    Memory (MB):              5006
    Algorithm:                Core
    Integral Cache:           SAVE
    Schwarz Cutoff:          0E+00
    Fitting Condition:       1E-12

   => Auxiliary Basis Set <=

  Basis Set: aug-cc-pvtz-jkfit
    Number of shells: 264
    Number of basis function: 900
    Number of Cartesian functions: 1116
    Spherical Harmonics?: true
    Max angular momentum: 4

  Minimum eigenvalue in the overlap matrix is 5.9234379301E-06.
  Using Symmetric Orthogonalization.
  SCF Guess: Core (One-Electron) Hamiltonian.

  Guess energy:  -242.84413553769943

  ==> Iterations <==

                        Total Energy        Delta E     RMS |[F,P]|

   @RHF iter   1:  -202.45284137877528   -2.02453e+02   3.23350e-02 
   @RHF iter   2:   -69.05572197301197    1.33397e+02   4.27113e-02 DIIS
   @RHF iter   3:  -244.24512399612652   -1.75189e+02   1.59938e-02 DIIS
   @RHF iter   4:  -220.75452997345215    2.34906e+01   2.41795e-02 DIIS
   @RHF iter   5:  -282.02807062280431   -6.12735e+01   1.16104e-02 DIIS
   @RHF iter   6:  -299.64358230134974   -1.76155e+01   3.86081e-03 DIIS
   @RHF iter   7:  -300.69402635815345   -1.05044e+00   1.79439e-03 DIIS
   @RHF iter   8:  -300.94683769790822   -2.52811e-01   3.99763e-04 DIIS
   @RHF iter   9:  -300.96318909235310   -1.63514e-02   1.14841e-04 DIIS
   @RHF iter  10:  -300.96444690917872   -1.25782e-03   4.22947e-05 DIIS
   @RHF iter  11:  -300.96462524946503   -1.78340e-04   1.28556e-05 DIIS
   @RHF iter  12:  -300.96465112149144   -2.58720e-05   3.80408e-06 DIIS
   @RHF iter  13:  -300.96465446271213   -3.34122e-06   1.99830e-06 DIIS
   @RHF iter  14:  -300.96465513379803   -6.71086e-07   6.21613e-07 DIIS
   @RHF iter  15:  -300.96465527370583   -1.39908e-07   2.47937e-07 DIIS
   @RHF iter  16:  -300.96465529120655   -1.75007e-08   7.39545e-08 DIIS
   @RHF iter  17:  -300.96465529274030   -1.53375e-09   3.08279e-08 DIIS
   @RHF iter  18:  -300.96465529294539   -2.05091e-10   1.16665e-08 DIIS
   @RHF iter  19:  -300.96465529297052   -2.51248e-11   4.78187e-09 DIIS

  ==> Post-Iterations <==

	Orbital Energies (a.u.)
	-----------------------

	Doubly Occupied:                                                      

	   1A    -20.606071     2A    -15.600882     3A    -15.531860  
	   4A    -11.280222     5A    -11.245171     6A    -11.229001  
	   7A     -1.393556     8A     -1.324046     9A     -1.150093  
	  10A     -0.989456    11A     -0.812310    12A     -0.784103  
	  13A     -0.755931    14A     -0.744236    15A     -0.638180  
	  16A     -0.587472    17A     -0.582082    18A     -0.581401  
	  19A     -0.555480    20A     -0.551178    21A     -0.424013  
	  22A     -0.384108    23A     -0.303406  

	Virtual:                                                              

	  24A      0.012101    25A      0.037162    26A      0.038062  
	  27A      0.042978    28A      0.051253    29A      0.069179  
	  30A      0.085552    31A      0.090828    32A      0.113022  
	  33A      0.113795    34A      0.116564    35A      0.124995  
	  36A      0.126344    37A      0.131702    38A      0.139217  
	  39A      0.147351    40A      0.150669    41A      0.158808  
	  42A      0.176532    43A      0.180964    44A      0.189779  
	  45A      0.194823    46A      0.204198    47A      0.209598  
	  48A      0.217565    49A      0.225285    50A      0.226197  
	  51A      0.231246    52A      0.253598    53A      0.257083  
	  54A      0.263605    55A      0.267270    56A      0.277037  
	  57A      0.293233    58A      0.301937    59A      0.307762  
	  60A      0.320095    61A      0.321031    62A      0.327797  
	  63A      0.336125    64A      0.342919    65A      0.344270  
	  66A      0.358233    67A      0.359657    68A      0.373193  
	  69A      0.381939    70A      0.401803    71A      0.402655  
	  72A      0.408309    73A      0.411848    74A      0.422530  
	  75A      0.424658    76A      0.438072    77A      0.439430  
	  78A      0.444476    79A      0.447111    80A      0.466184  
	  81A      0.469120    82A      0.481446    83A      0.492941  
	  84A      0.494418    85A      0.502890    86A      0.511810  
	  87A      0.513696    88A      0.518186    89A      0.532225  
	  90A      0.542281    91A      0.570312    92A      0.584434  
	  93A      0.600367    94A      0.611007    95A      0.617176  
	  96A      0.625197    97A      0.637881    98A      0.642705  
	  99A      0.662024   100A      0.668986   101A      0.673283  
	 102A      0.699326   103A      0.703987   104A      0.705930  
	 105A      0.721099   106A      0.725319   107A      0.731126  
	 108A      0.745140   109A      0.746087   110A      0.771478  
	 111A      0.793287   112A      0.796232   113A      0.797769  
	 114A      0.814339   115A      0.825518   116A      0.829358  
	 117A      0.845841   118A      0.860770   119A      0.870463  
	 120A      0.877944   121A      0.887343   122A      0.892495  
	 123A      0.908760   124A      0.926485   125A      0.930521  
	 126A      0.942014   127A      0.946697   128A      0.951285  
	 129A      0.952060   130A      0.963064   131A      0.964557  
	 132A      0.974939   133A      0.995453   134A      0.998706  
	 135A      1.002035   136A      1.017112   137A      1.019118  
	 138A      1.040851   139A      1.041735   140A      1.045717  
	 141A      1.055694   142A      1.058618   143A      1.072315  
	 144A      1.072806   145A      1.090449   146A      1.112380  
	 147A      1.119851   148A      1.124559   149A      1.128883  
	 150A      1.131753   151A      1.134180   152A      1.167118  
	 153A      1.175009   154A      1.175945   155A      1.192356  
	 156A      1.193761   157A      1.221017   158A      1.226221  
	 159A      1.232506   160A      1.250619   161A      1.258470  
	 162A      1.263455   163A      1.281357   164A      1.293139  
	 165A      1.306598   166A      1.319203   167A      1.322779  
	 168A      1.349693   169A      1.369073   170A      1.384731  
	 171A      1.408852   172A      1.430272   173A      1.442481  
	 174A      1.444406   175A      1.469426   176A      1.485512  
	 177A      1.489394   178A      1.504021   179A      1.514827  
	 180A      1.522856   181A      1.535785   182A      1.547905  
	 183A      1.579547   184A      1.579964   185A      1.600468  
	 186A      1.605358   187A      1.627060   188A      1.643667  
	 189A      1.664912   190A      1.681244   191A      1.706709  
	 192A      1.713474   193A      1.723895   194A      1.730653  
	 195A      1.743211   196A      1.770175   197A      1.778861  
	 198A      1.807735   199A      1.823009   200A      1.830058  
	 201A      1.842121   202A      1.852045   203A      1.864672  
	 204A      1.885371   205A      1.925520   206A      1.939938  
	 207A      1.979902   208A      1.996869   209A      2.002288  
	 210A      2.015013   211A      2.021582   212A      2.045199  
	 213A      2.047975   214A      2.070745   215A      2.079798  
	 216A      2.091588   217A      2.119029   218A      2.132586  
	 219A      2.156859   220A      2.193387   221A      2.193820  
	 222A      2.212087   223A      2.231061   224A      2.249426  
	 225A      2.277127   226A      2.279170   227A      2.288772  
	 228A      2.326332   229A      2.334771   230A      2.351701  
	 231A      2.375968   232A      2.407145   233A      2.415334  
	 234A      2.433848   235A      2.436712   236A      2.467864  
	 237A      2.481114   238A      2.508929   239A      2.519361  
	 240A      2.543608   241A      2.560149   242A      2.589230  
	 243A      2.617289   244A      2.626806   245A      2.676897  
	 246A      2.686040   247A      2.712684   248A      2.736318  
	 249A      2.738852   250A      2.759009   251A      2.779087  
	 252A      2.780062   253A      2.811058   254A      2.850554  
	 255A      2.864476   256A      2.896390   257A      2.916927  
	 258A      2.940800   259A      3.019357   260A      3.030225  
	 261A      3.048282   262A      3.086835   263A      3.160898  
	 264A      3.161187   265A      3.236119   266A      3.288620  
	 267A      3.324292   268A      3.346816   269A      3.398106  
	 270A      3.405414   271A      3.432997   272A      3.491111  
	 273A      3.526702   274A      3.547114   275A      3.574447  
	 276A      3.586628   277A      3.614652   278A      3.635137  
	 279A      3.669266   280A      3.723870   281A      3.725468  
	 282A      3.733891   283A      3.764261   284A      3.774942  
	 285A      3.783472   286A      3.791369   287A      3.808705  
	 288A      3.819386   289A      3.847571   290A      3.862011  
	 291A      3.891955   292A      3.919300   293A      3.920462  
	 294A      3.967342   295A      3.984992   296A      4.027622  
	 297A      4.036771   298A      4.080348   299A      4.134273  
	 300A      4.161169   301A      4.162079   302A      4.172300  
	 303A      4.183597   304A      4.187253   305A      4.193352  
	 306A      4.204381   307A      4.224863   308A      4.240962  
	 309A      4.253664   310A      4.265112   311A      4.296140  
	 312A      4.296405   313A      4.315650   314A      4.316359  
	 315A      4.366046   316A      4.404490   317A      4.413659  
	 318A      4.424681   319A      4.461272   320A      4.469563  
	 321A      4.487035   322A      4.524742   323A      4.548831  
	 324A      4.582895   325A      4.587236   326A      4.615244  
	 327A      4.648903   328A      4.667335   329A      4.669354  
	 330A      4.694447   331A      4.735406   332A      4.812757  
	 333A      4.820505   334A      4.841551   335A      4.857761  
	 336A      4.872190   337A      4.939554   338A      4.939921  
	 339A      4.964306   340A      4.994806   341A      4.997346  
	 342A      5.059868   343A      5.065867   344A      5.116960  
	 345A      5.142666   346A      5.143366   347A      5.172938  
	 348A      5.203838   349A      5.226197   350A      5.266809  
	 351A      5.288603   352A      5.357780   353A      5.369674  
	 354A      5.385820   355A      5.405750   356A      5.440066  
	 357A      5.493602   358A      5.564298   359A      5.564481  
	 360A      5.582009   361A      5.618264   362A      5.650584  
	 363A      5.663793   364A      5.711935   365A      5.742638  
	 366A      5.799644   367A      5.807482   368A      5.840910  
	 369A      5.862726   370A      5.874998   371A      5.884357  
	 372A      5.903200   373A      5.958158   374A      5.966106  
	 375A      6.013472   376A      6.063066   377A      6.088304  
	 378A      6.210318   379A      6.236791   380A      6.285628  
	 381A      6.298924   382A      6.341572   383A      6.480481  
	 384A      6.535120   385A      6.574018   386A      6.577433  
	 387A      6.655583   388A      6.711258   389A      6.794170  
	 390A      6.839481   391A      6.854345   392A      6.965083  
	 393A      7.031912   394A      7.102670   395A      7.121420  
	 396A      7.145350   397A      7.190023   398A      7.280253  
	 399A      7.302453   400A      7.336971   401A      7.341411  
	 402A      7.518920   403A      7.566153   404A      7.738076  
	 405A      7.894798   406A      7.907820   407A      7.979880  
	 408A      8.835016   409A     15.993101   410A     16.281354  
	 411A     17.229645   412A     17.715943   413A     18.834669  
	 414A     19.324054  

	Final Occupation by Irrep:
	          A 
	DOCC [    23 ]

  Energy converged.

  @RHF Final Energy:  -300.96465529297052

   => Energetics <=

    Nuclear Repulsion Energy =            219.2622774238163572
    One-Electron Energy =                -844.3453529714026899
    Two-Electron Energy =                 324.1184202546161259
    DFT Exchange-Correlation Energy =       0.0000000000000000
    Empirical Dispersion Energy =           0.0000000000000000
    Total Energy =                       -300.9646552929701784



Properties will be evaluated at   0.000000,   0.000000,   0.000000 Bohr
  ==> Properties <==


Properties computed using the SCF density density matrix
  Nuclear Dipole Moment: (a.u.)
     X:     4.7437      Y:    -2.9241      Z:     0.2272

  Electronic Dipole Moment: (a.u.)
     X:    -2.4088      Y:     1.6989      Z:    -0.1380

  Dipole Moment: (a.u.)
     X:     2.3349      Y:    -1.2251      Z:     0.0892     Total:     2.6383

  Dipole Moment: (Debye)
     X:     5.9348      Y:    -3.1140      Z:     0.2268     Total:     6.7060


  Saving occupied orbitals to File 180.

  Saving SAPT 2-DIMER file.

*** tstop() called on node37.bme.utexas.edu at Fri Aug 29 12:07:19 2014
Module time:
	user time   =      89.25 seconds =       1.49 minutes
	system time =       1.21 seconds =       0.02 minutes
	total time  =         24 seconds =       0.40 minutes
Total time:
	user time   =      89.25 seconds =       1.49 minutes
	system time =       1.21 seconds =       0.02 minutes
	total time  =         24 seconds =       0.40 minutes

  //>>>>>>>>>>>>>>>>>>>>>>>>>>>>>>>>>>>//
  //            Monomer A HF           //
  //<<<<<<<<<<<<<<<<<<<<<<<<<<<<<<<<<<<//


  No DF_BASIS_SCF auxiliary basis selected, defaulting to aug-cc-pvtz-jkfit


*** tstart() called on node37.bme.utexas.edu
*** at Fri Aug 29 12:07:19 2014


         ---------------------------------------------------------
                                   SCF
            by Justin Turney, Rob Parrish, and Andy Simmonett
                              RHF Reference
                        4 Threads,   7000 MiB Core
         ---------------------------------------------------------

  ==> Geometry <==

    Molecular point group: c1
    Full point group: C1

    Geometry (in Angstrom), charge = 0, multiplicity = 1:

       Center              X                  Y                   Z       
    ------------   -----------------  -----------------  -----------------
           C         -1.949632473749     0.043562386268     0.028913542970
           C         -0.915860473749    -0.864015613732     0.106929542970
           N          0.227524526251    -0.117688613732     0.008496542970
           C         -0.149367473749     1.181711386268    -0.122169457030
           N         -1.466426473749     1.319326386268    -0.114048457030
           H          1.177249526251    -0.467012613732     0.029036542970
           H         -3.005995473749    -0.157232613732     0.068270542970
           H         -0.895300473749    -1.932505613732     0.219351542970
           H          0.565006526251     1.980712386268    -0.218785457030
           O(Gh)      3.028872526251    -1.127094613732     0.066921542970
           H(Gh)      3.612801526251    -1.187177613732     0.825825542970
           H(Gh)      3.586997526251    -1.346389613732    -0.682026457030

  Running in c1 symmetry.

  Nuclear repulsion =  163.311236019440315

  Charge       = 0
  Multiplicity = 1
  Electrons    = 36
  Nalpha       = 18
  Nbeta        = 18

  ==> Algorithm <==

  SCF Algorithm Type is DF.
  DIIS enabled.
  MOM disabled.
  Fractional occupation disabled.
  Guess Type is CORE.
  Energy threshold   = 1.00e-08
  Density threshold  = 1.00e-08
  Integral threshold = 0.00e+00

  ==> Primary Basis <==

  Basis Set: AUG-CC-PVTZ
    Number of shells: 138
    Number of basis function: 414
    Number of Cartesian functions: 480
    Spherical Harmonics?: true
    Max angular momentum: 3

  ==> Pre-Iterations <==

   -------------------------------------------------------
    Irrep   Nso     Nmo     Nalpha   Nbeta   Ndocc  Nsocc
   -------------------------------------------------------
     A        414     414       0       0       0       0
   -------------------------------------------------------
    Total     414     414      18      18      18       0
   -------------------------------------------------------

 OEINTS: Wrapper to libmints.
   by Justin Turney

   Calculation information:
      Number of atoms:                  12
      Number of AO shells:             138
      Number of SO shells:             138
      Number of primitives:            246
      Number of atomic orbitals:       480
      Number of basis functions:       414

      Number of irreps:                  1
      Number of functions per irrep: [ 414 ]

      Overlap, kinetic, potential, dipole, and quadrupole integrals
        stored in file 35.

  ==> Integral Setup <==

  ==> DFJK: Density-Fitted J/K Matrices <==

    J tasked:                  Yes
    K tasked:                  Yes
    wK tasked:                  No
    OpenMP threads:              4
    Integrals threads:           4
    Memory (MB):              5006
    Algorithm:                Core
    Integral Cache:           LOAD
    Schwarz Cutoff:          0E+00
    Fitting Condition:       1E-12

   => Auxiliary Basis Set <=

  Basis Set: aug-cc-pvtz-jkfit
    Number of shells: 264
    Number of basis function: 900
    Number of Cartesian functions: 1116
    Spherical Harmonics?: true
    Max angular momentum: 4

  Minimum eigenvalue in the overlap matrix is 5.9234379301E-06.
  Using Symmetric Orthogonalization.
  SCF Guess: Core (One-Electron) Hamiltonian.

  Guess energy:  -177.70655401393057

  ==> Iterations <==

                        Total Energy        Delta E     RMS |[F,P]|

   @RHF iter   1:  -176.98649510408043   -1.76986e+02   2.78861e-02 
   @RHF iter   2:  -166.83307229770102    1.01534e+01   1.29651e-02 DIIS
   @RHF iter   3:  -198.17281962645578   -3.13397e+01   1.59316e-02 DIIS
   @RHF iter   4:  -220.30187369159901   -2.21291e+01   7.32011e-03 DIIS
   @RHF iter   5:  -222.92178777486109   -2.61991e+00   4.51554e-03 DIIS
   @RHF iter   6:  -224.52864819771898   -1.60686e+00   1.79096e-03 DIIS
   @RHF iter   7:  -224.87844423814798   -3.49796e-01   3.05390e-04 DIIS
   @RHF iter   8:  -224.89538919540863   -1.69450e-02   8.25986e-05 DIIS
   @RHF iter   9:  -224.89641080166345   -1.02161e-03   3.61528e-05 DIIS
   @RHF iter  10:  -224.89666451692611   -2.53715e-04   1.62282e-05 DIIS
   @RHF iter  11:  -224.89672870504373   -6.41881e-05   7.74298e-06 DIIS
   @RHF iter  12:  -224.89674088766495   -1.21826e-05   2.64055e-06 DIIS
   @RHF iter  13:  -224.89674325529697   -2.36763e-06   8.96122e-07 DIIS
   @RHF iter  14:  -224.89674351589852   -2.60602e-07   2.18576e-07 DIIS
   @RHF iter  15:  -224.89674353137863   -1.54801e-08   1.01941e-07 DIIS
   @RHF iter  16:  -224.89674353331546   -1.93683e-09   3.79773e-08 DIIS
   @RHF iter  17:  -224.89674353367840   -3.62945e-10   1.86552e-08 DIIS
   @RHF iter  18:  -224.89674353375759   -7.91829e-11   5.67008e-09 DIIS

  ==> Post-Iterations <==

	Orbital Energies (a.u.)
	-----------------------

	Doubly Occupied:                                                      

	   1A    -15.626652     2A    -15.547652     3A    -11.297577  
	   4A    -11.261503     5A    -11.244334     6A     -1.343252  
	   7A     -1.168656     8A     -1.006141     9A     -0.830434  
	  10A     -0.801463    11A     -0.759627    12A     -0.610070  
	  13A     -0.603467    14A     -0.600504    15A     -0.570327  
	  16A     -0.439186    17A     -0.402339    18A     -0.318961  

	Virtual:                                                              

	  19A      0.015007    20A      0.033935    21A      0.040119  
	  22A      0.042037    23A      0.049402    24A      0.063557  
	  25A      0.081610    26A      0.082594    27A      0.098204  
	  28A      0.107943    29A      0.110520    30A      0.117483  
	  31A      0.119692    32A      0.125943    33A      0.134935  
	  34A      0.140466    35A      0.145123    36A      0.145367  
	  37A      0.162936    38A      0.172929    39A      0.176985  
	  40A      0.189855    41A      0.190678    42A      0.208039  
	  43A      0.210886    44A      0.215538    45A      0.222558  
	  46A      0.228228    47A      0.253017    48A      0.263791  
	  49A      0.270731    50A      0.274402    51A      0.274554  
	  52A      0.278762    53A      0.290758    54A      0.309621  
	  55A      0.317312    56A      0.317574    57A      0.320860  
	  58A      0.323985    59A      0.334670    60A      0.335726  
	  61A      0.343443    62A      0.356636    63A      0.361308  
	  64A      0.363518    65A      0.375477    66A      0.388779  
	  67A      0.393810    68A      0.397694    69A      0.406322  
	  70A      0.406606    71A      0.431537    72A      0.432468  
	  73A      0.435338    74A      0.440424    75A      0.452920  
	  76A      0.456208    77A      0.467504    78A      0.486892  
	  79A      0.492134    80A      0.492731    81A      0.496423  
	  82A      0.507521    83A      0.510625    84A      0.517587  
	  85A      0.525439    86A      0.546669    87A      0.574589  
	  88A      0.584629    89A      0.595905    90A      0.607243  
	  91A      0.612358    92A      0.634251    93A      0.640598  
	  94A      0.659884    95A      0.668871    96A      0.686152  
	  97A      0.694842    98A      0.696355    99A      0.714806  
	 100A      0.723036   101A      0.730042   102A      0.734777  
	 103A      0.763576   104A      0.767356   105A      0.785310  
	 106A      0.787846   107A      0.799284   108A      0.806423  
	 109A      0.812323   110A      0.814759   111A      0.820600  
	 112A      0.847540   113A      0.850482   114A      0.858542  
	 115A      0.871945   116A      0.872605   117A      0.886154  
	 118A      0.898822   119A      0.921611   120A      0.922187  
	 121A      0.931208   122A      0.933380   123A      0.935395  
	 124A      0.942566   125A      0.955343   126A      0.956370  
	 127A      0.969205   128A      0.986298   129A      0.992726  
	 130A      0.995728   131A      1.008848   132A      1.013433  
	 133A      1.035554   134A      1.038142   135A      1.046739  
	 136A      1.051760   137A      1.056663   138A      1.065977  
	 139A      1.073522   140A      1.074606   141A      1.086882  
	 142A      1.093129   143A      1.108145   144A      1.116738  
	 145A      1.121491   146A      1.132439   147A      1.136791  
	 148A      1.154960   149A      1.159309   150A      1.186593  
	 151A      1.198919   152A      1.210072   153A      1.216965  
	 154A      1.224584   155A      1.227689   156A      1.250809  
	 157A      1.266555   158A      1.276208   159A      1.289980  
	 160A      1.293252   161A      1.301832   162A      1.326519  
	 163A      1.360493   164A      1.383166   165A      1.383719  
	 166A      1.418146   167A      1.429316   168A      1.435084  
	 169A      1.449222   170A      1.460880   171A      1.477251  
	 172A      1.487300   173A      1.494009   174A      1.508500  
	 175A      1.508782   176A      1.524795   177A      1.550891  
	 178A      1.571577   179A      1.573143   180A      1.578985  
	 181A      1.589370   182A      1.626379   183A      1.668613  
	 184A      1.673509   185A      1.692186   186A      1.698932  
	 187A      1.709786   188A      1.714249   189A      1.734927  
	 190A      1.750435   191A      1.763149   192A      1.766950  
	 193A      1.770325   194A      1.780456   195A      1.821263  
	 196A      1.844823   197A      1.860538   198A      1.868149  
	 199A      1.893985   200A      1.898156   201A      1.915824  
	 202A      1.938977   203A      1.968974   204A      1.984884  
	 205A      1.988560   206A      2.021197   207A      2.026908  
	 208A      2.035056   209A      2.046121   210A      2.055626  
	 211A      2.059997   212A      2.100218   213A      2.108123  
	 214A      2.143110   215A      2.178642   216A      2.182780  
	 217A      2.196766   218A      2.231342   219A      2.258039  
	 220A      2.265144   221A      2.271750   222A      2.304978  
	 223A      2.322357   224A      2.342155   225A      2.358676  
	 226A      2.398768   227A      2.419467   228A      2.430716  
	 229A      2.444661   230A      2.454367   231A      2.491938  
	 232A      2.502981   233A      2.511041   234A      2.530909  
	 235A      2.540475   236A      2.578483   237A      2.583954  
	 238A      2.622743   239A      2.627405   240A      2.685056  
	 241A      2.706670   242A      2.713491   243A      2.746076  
	 244A      2.764142   245A      2.795036   246A      2.827567  
	 247A      2.873064   248A      2.905032   249A      2.906096  
	 250A      2.916423   251A      2.966699   252A      3.025467  
	 253A      3.031286   254A      3.087004   255A      3.143310  
	 256A      3.147516   257A      3.156928   258A      3.197166  
	 259A      3.197594   260A      3.227250   261A      3.276985  
	 262A      3.290001   263A      3.305160   264A      3.335408  
	 265A      3.382021   266A      3.389338   267A      3.409092  
	 268A      3.475891   269A      3.488512   270A      3.527082  
	 271A      3.535510   272A      3.547332   273A      3.572986  
	 274A      3.594545   275A      3.620408   276A      3.651103  
	 277A      3.658376   278A      3.666283   279A      3.710770  
	 280A      3.727795   281A      3.729301   282A      3.750381  
	 283A      3.778432   284A      3.788324   285A      3.816682  
	 286A      3.836822   287A      3.840969   288A      3.888826  
	 289A      3.903582   290A      3.907769   291A      3.953456  
	 292A      3.968293   293A      4.022643   294A      4.081776  
	 295A      4.123318   296A      4.137684   297A      4.147167  
	 298A      4.169256   299A      4.176722   300A      4.186572  
	 301A      4.197000   302A      4.218243   303A      4.228296  
	 304A      4.268597   305A      4.270886   306A      4.281073  
	 307A      4.293713   308A      4.340105   309A      4.375847  
	 310A      4.400775   311A      4.412172   312A      4.451261  
	 313A      4.468914   314A      4.487178   315A      4.500997  
	 316A      4.530662   317A      4.559550   318A      4.574182  
	 319A      4.634877   320A      4.646383   321A      4.679920  
	 322A      4.708167   323A      4.735228   324A      4.780015  
	 325A      4.801656   326A      4.806357   327A      4.834642  
	 328A      4.855256   329A      4.922223   330A      4.931575  
	 331A      4.938029   332A      4.951816   333A      4.957642  
	 334A      4.977602   335A      4.988812   336A      5.043931  
	 337A      5.047778   338A      5.067035   339A      5.148695  
	 340A      5.167330   341A      5.189321   342A      5.210535  
	 343A      5.224623   344A      5.256916   345A      5.326416  
	 346A      5.360488   347A      5.380789   348A      5.404460  
	 349A      5.464728   350A      5.530178   351A      5.564615  
	 352A      5.567497   353A      5.606854   354A      5.614815  
	 355A      5.620511   356A      5.669680   357A      5.678773  
	 358A      5.700897   359A      5.722634   360A      5.785832  
	 361A      5.788246   362A      5.815310   363A      5.848155  
	 364A      5.854291   365A      5.884930   366A      5.886868  
	 367A      5.897971   368A      5.941353   369A      5.981779  
	 370A      6.049424   371A      6.070200   372A      6.155627  
	 373A      6.189753   374A      6.244080   375A      6.264827  
	 376A      6.364562   377A      6.463588   378A      6.478211  
	 379A      6.530892   380A      6.563666   381A      6.626602  
	 382A      6.646232   383A      6.751611   384A      6.822169  
	 385A      6.925892   386A      6.986023   387A      7.023862  
	 388A      7.088854   389A      7.115929   390A      7.142960  
	 391A      7.510854   392A      7.780031   393A      7.828384  
	 394A      8.046634   395A      8.092374   396A      8.172947  
	 397A      8.248192   398A      8.812799   399A      8.870259  
	 400A      9.842302   401A      9.931879   402A      9.961177  
	 403A     10.297272   404A     11.234018   405A     11.677731  
	 406A     12.434927   407A     13.554857   408A     13.802211  
	 409A     15.996858   410A     17.074003   411A     17.699701  
	 412A     18.813067   413A     19.214567   414A     66.354821  

	Final Occupation by Irrep:
	          A 
	DOCC [    18 ]

  Energy converged.

  @RHF Final Energy:  -224.89674353375759

   => Energetics <=

    Nuclear Repulsion Energy =            163.3112360194403152
    One-Electron Energy =                -627.5516694854431989
    Two-Electron Energy =                 239.3436899322455531
    DFT Exchange-Correlation Energy =       0.0000000000000000
    Empirical Dispersion Energy =           0.0000000000000000
    Total Energy =                       -224.8967435337573022



Properties will be evaluated at   0.000000,   0.000000,   0.000000 Bohr
  ==> Properties <==


Properties computed using the SCF density density matrix
  Nuclear Dipole Moment: (a.u.)
     X:   -54.6519      Y:    18.9029      Z:    -1.0563

  Electronic Dipole Moment: (a.u.)
     X:    55.8828      Y:   -19.8146      Z:     1.1313

  Dipole Moment: (a.u.)
     X:     1.2310      Y:    -0.9117      Z:     0.0751     Total:     1.5337

  Dipole Moment: (Debye)
     X:     3.1288      Y:    -2.3174      Z:     0.1908     Total:     3.8982


  Saving occupied orbitals to File 180.

  Saving SAPT 2-MONOMER_A file.

*** tstop() called on node37.bme.utexas.edu at Fri Aug 29 12:07:35 2014
Module time:
	user time   =      58.86 seconds =       0.98 minutes
	system time =       0.65 seconds =       0.01 minutes
	total time  =         16 seconds =       0.27 minutes
Total time:
	user time   =     148.12 seconds =       2.47 minutes
	system time =       1.86 seconds =       0.03 minutes
	total time  =         40 seconds =       0.67 minutes

  //>>>>>>>>>>>>>>>>>>>>>>>>>>>>>>>>>>>//
  //            Monomer B HF           //
  //<<<<<<<<<<<<<<<<<<<<<<<<<<<<<<<<<<<//


  No DF_BASIS_SCF auxiliary basis selected, defaulting to aug-cc-pvtz-jkfit


*** tstart() called on node37.bme.utexas.edu
*** at Fri Aug 29 12:07:35 2014


         ---------------------------------------------------------
                                   SCF
            by Justin Turney, Rob Parrish, and Andy Simmonett
                              RHF Reference
                        4 Threads,   7000 MiB Core
         ---------------------------------------------------------

  ==> Geometry <==

    Molecular point group: c1
    Full point group: C1

    Geometry (in Angstrom), charge = 0, multiplicity = 1:

       Center              X                  Y                   Z       
    ------------   -----------------  -----------------  -----------------
           C(Gh)     -1.949632473749     0.043562386268     0.028913542970
           C(Gh)     -0.915860473749    -0.864015613732     0.106929542970
           N(Gh)      0.227524526251    -0.117688613732     0.008496542970
           C(Gh)     -0.149367473749     1.181711386268    -0.122169457030
           N(Gh)     -1.466426473749     1.319326386268    -0.114048457030
           H(Gh)      1.177249526251    -0.467012613732     0.029036542970
           H(Gh)     -3.005995473749    -0.157232613732     0.068270542970
           H(Gh)     -0.895300473749    -1.932505613732     0.219351542970
           H(Gh)      0.565006526251     1.980712386268    -0.218785457030
           O          3.028872526251    -1.127094613732     0.066921542970
           H          3.612801526251    -1.187177613732     0.825825542970
           H          3.586997526251    -1.346389613732    -0.682026457030

  Running in c1 symmetry.

  Nuclear repulsion =    9.173760872145699

  Charge       = 0
  Multiplicity = 1
  Electrons    = 10
  Nalpha       = 5
  Nbeta        = 5

  ==> Algorithm <==

  SCF Algorithm Type is DF.
  DIIS enabled.
  MOM disabled.
  Fractional occupation disabled.
  Guess Type is CORE.
  Energy threshold   = 1.00e-08
  Density threshold  = 1.00e-08
  Integral threshold = 0.00e+00

  ==> Primary Basis <==

  Basis Set: AUG-CC-PVTZ
    Number of shells: 138
    Number of basis function: 414
    Number of Cartesian functions: 480
    Spherical Harmonics?: true
    Max angular momentum: 3

  ==> Pre-Iterations <==

   -------------------------------------------------------
    Irrep   Nso     Nmo     Nalpha   Nbeta   Ndocc  Nsocc
   -------------------------------------------------------
     A        414     414       0       0       0       0
   -------------------------------------------------------
    Total     414     414       5       5       5       0
   -------------------------------------------------------

 OEINTS: Wrapper to libmints.
   by Justin Turney

   Calculation information:
      Number of atoms:                  12
      Number of AO shells:             138
      Number of SO shells:             138
      Number of primitives:            246
      Number of atomic orbitals:       480
      Number of basis functions:       414

      Number of irreps:                  1
      Number of functions per irrep: [ 414 ]

      Overlap, kinetic, potential, dipole, and quadrupole integrals
        stored in file 35.

  ==> Integral Setup <==

  ==> DFJK: Density-Fitted J/K Matrices <==

    J tasked:                  Yes
    K tasked:                  Yes
    wK tasked:                  No
    OpenMP threads:              4
    Integrals threads:           4
    Memory (MB):              5006
    Algorithm:                Core
    Integral Cache:           LOAD
    Schwarz Cutoff:          0E+00
    Fitting Condition:       1E-12

   => Auxiliary Basis Set <=

  Basis Set: aug-cc-pvtz-jkfit
    Number of shells: 264
    Number of basis function: 900
    Number of Cartesian functions: 1116
    Spherical Harmonics?: true
    Max angular momentum: 4

  Minimum eigenvalue in the overlap matrix is 5.9234379301E-06.
  Using Symmetric Orthogonalization.
  SCF Guess: Core (One-Electron) Hamiltonian.

  Guess energy:   -60.18647633692891

  ==> Iterations <==

                        Total Energy        Delta E     RMS |[F,P]|

   @RHF iter   1:   -61.30074625959822   -6.13007e+01   1.95133e-02 
   @RHF iter   2:   -62.18549170817781   -8.84745e-01   6.89025e-03 DIIS
   @RHF iter   3:   -72.63724616624748   -1.04518e+01   8.28321e-03 DIIS
   @RHF iter   4:   -75.16471323160036   -2.52747e+00   3.82331e-03 DIIS
   @RHF iter   5:   -76.03702349052381   -8.72310e-01   4.71981e-04 DIIS
   @RHF iter   6:   -76.05975782677302   -2.27343e-02   1.19234e-04 DIIS
   @RHF iter   7:   -76.06049417561843   -7.36349e-04   1.89958e-05 DIIS
   @RHF iter   8:   -76.06051550093127   -2.13253e-05   3.11464e-06 DIIS
   @RHF iter   9:   -76.06051618981505   -6.88884e-07   4.55705e-07 DIIS
   @RHF iter  10:   -76.06051621115066   -2.13356e-08   4.75981e-08 DIIS
   @RHF iter  11:   -76.06051621144644   -2.95785e-10   1.80748e-08 DIIS
   @RHF iter  12:   -76.06051621147293   -2.64890e-11   1.48092e-09 DIIS

  ==> Post-Iterations <==

	Orbital Energies (a.u.)
	-----------------------

	Doubly Occupied:                                                      

	   1A    -20.567495     2A     -1.352446     3A     -0.716385  
	   4A     -0.584647     5A     -0.510149  

	Virtual:                                                              

	   6A      0.021705     7A      0.030837     8A      0.039129  
	   9A      0.045938    10A      0.049485    11A      0.072224  
	  12A      0.074208    13A      0.080445    14A      0.095249  
	  15A      0.111250    16A      0.111611    17A      0.116507  
	  18A      0.117432    19A      0.117612    20A      0.128892  
	  21A      0.136905    22A      0.146684    23A      0.170536  
	  24A      0.177701    25A      0.181922    26A      0.183881  
	  27A      0.189691    28A      0.194181    29A      0.198307  
	  30A      0.211022    31A      0.229090    32A      0.237741  
	  33A      0.253261    34A      0.260086    35A      0.262079  
	  36A      0.273720    37A      0.277195    38A      0.284641  
	  39A      0.292308    40A      0.298347    41A      0.303713  
	  42A      0.315155    43A      0.325470    44A      0.336683  
	  45A      0.339662    46A      0.347655    47A      0.363161  
	  48A      0.373692    49A      0.376566    50A      0.386859  
	  51A      0.389338    52A      0.390267    53A      0.407602  
	  54A      0.410826    55A      0.412221    56A      0.417362  
	  57A      0.424764    58A      0.428703    59A      0.442679  
	  60A      0.443808    61A      0.460497    62A      0.467727  
	  63A      0.467743    64A      0.477836    65A      0.487871  
	  66A      0.489623    67A      0.502966    68A      0.520668  
	  69A      0.537026    70A      0.547129    71A      0.569155  
	  72A      0.581542    73A      0.589372    74A      0.596434  
	  75A      0.610654    76A      0.625725    77A      0.630747  
	  78A      0.639074    79A      0.643439    80A      0.651886  
	  81A      0.669219    82A      0.682612    83A      0.712118  
	  84A      0.716067    85A      0.720387    86A      0.726438  
	  87A      0.746561    88A      0.765355    89A      0.782457  
	  90A      0.792968    91A      0.800182    92A      0.807005  
	  93A      0.809220    94A      0.827525    95A      0.834127  
	  96A      0.836632    97A      0.844747    98A      0.858254  
	  99A      0.864825   100A      0.876952   101A      0.880238  
	 102A      0.900585   103A      0.913552   104A      0.915088  
	 105A      0.929066   106A      0.940021   107A      0.949495  
	 108A      0.962576   109A      0.965593   110A      1.008928  
	 111A      1.013793   112A      1.016178   113A      1.018177  
	 114A      1.036119   115A      1.049674   116A      1.050128  
	 117A      1.060461   118A      1.075341   119A      1.077060  
	 120A      1.081449   121A      1.095443   122A      1.104693  
	 123A      1.111102   124A      1.123297   125A      1.125194  
	 126A      1.131440   127A      1.142279   128A      1.158653  
	 129A      1.161050   130A      1.170872   131A      1.176310  
	 132A      1.197371   133A      1.208854   134A      1.214630  
	 135A      1.223997   136A      1.227477   137A      1.267646  
	 138A      1.269385   139A      1.279358   140A      1.293077  
	 141A      1.306247   142A      1.321261   143A      1.321526  
	 144A      1.334008   145A      1.341760   146A      1.355901  
	 147A      1.384377   148A      1.405634   149A      1.417887  
	 150A      1.424846   151A      1.459411   152A      1.465958  
	 153A      1.480249   154A      1.485845   155A      1.515929  
	 156A      1.525977   157A      1.532606   158A      1.562744  
	 159A      1.596520   160A      1.614301   161A      1.618750  
	 162A      1.627515   163A      1.654521   164A      1.663749  
	 165A      1.676985   166A      1.686936   167A      1.687679  
	 168A      1.694709   169A      1.704223   170A      1.740392  
	 171A      1.741423   172A      1.765430   173A      1.773528  
	 174A      1.780880   175A      1.789928   176A      1.798901  
	 177A      1.800202   178A      1.810935   179A      1.842242  
	 180A      1.860192   181A      1.879708   182A      1.896105  
	 183A      1.917843   184A      1.932107   185A      1.935992  
	 186A      1.978196   187A      1.988905   188A      1.992041  
	 189A      2.037906   190A      2.049316   191A      2.064986  
	 192A      2.074606   193A      2.078689   194A      2.112777  
	 195A      2.142192   196A      2.143965   197A      2.154427  
	 198A      2.183493   199A      2.207200   200A      2.219886  
	 201A      2.234061   202A      2.255688   203A      2.269631  
	 204A      2.285310   205A      2.307265   206A      2.319643  
	 207A      2.347600   208A      2.350745   209A      2.370050  
	 210A      2.387825   211A      2.408200   212A      2.459998  
	 213A      2.462484   214A      2.464378   215A      2.467627  
	 216A      2.504755   217A      2.504903   218A      2.537008  
	 219A      2.543602   220A      2.566631   221A      2.597865  
	 222A      2.598060   223A      2.650267   224A      2.687776  
	 225A      2.701319   226A      2.752581   227A      2.759220  
	 228A      2.763826   229A      2.806115   230A      2.829701  
	 231A      2.838350   232A      2.847948   233A      2.856670  
	 234A      2.885401   235A      2.895879   236A      2.906582  
	 237A      2.917639   238A      2.941574   239A      2.972273  
	 240A      2.975048   241A      2.989178   242A      3.015631  
	 243A      3.041330   244A      3.074192   245A      3.102049  
	 246A      3.160177   247A      3.208171   248A      3.255307  
	 249A      3.315801   250A      3.405345   251A      3.472222  
	 252A      3.529788   253A      3.570950   254A      3.633961  
	 255A      3.711767   256A      3.800182   257A      3.854777  
	 258A      3.862917   259A      3.886496   260A      3.955369  
	 261A      3.963859   262A      4.028382   263A      4.042530  
	 264A      4.050719   265A      4.112366   266A      4.122010  
	 267A      4.126713   268A      4.133239   269A      4.151434  
	 270A      4.176602   271A      4.213942   272A      4.215734  
	 273A      4.246702   274A      4.268094   275A      4.297099  
	 276A      4.307762   277A      4.351319   278A      4.372461  
	 279A      4.384478   280A      4.412227   281A      4.455798  
	 282A      4.513704   283A      4.518215   284A      4.593364  
	 285A      4.603943   286A      4.619345   287A      4.627031  
	 288A      4.646598   289A      4.681702   290A      4.682725  
	 291A      4.711273   292A      4.718652   293A      4.789664  
	 294A      4.793583   295A      4.800732   296A      4.866858  
	 297A      4.881628   298A      4.896579   299A      4.915594  
	 300A      4.918394   301A      4.932634   302A      4.932908  
	 303A      4.976926   304A      5.021566   305A      5.031455  
	 306A      5.032896   307A      5.055803   308A      5.080390  
	 309A      5.081961   310A      5.129322   311A      5.145514  
	 312A      5.150503   313A      5.163676   314A      5.164035  
	 315A      5.192098   316A      5.222548   317A      5.237351  
	 318A      5.272601   319A      5.285802   320A      5.313708  
	 321A      5.360335   322A      5.384543   323A      5.429803  
	 324A      5.462068   325A      5.527815   326A      5.543260  
	 327A      5.548680   328A      5.622080   329A      5.632348  
	 330A      5.669417   331A      5.712184   332A      5.725557  
	 333A      5.802472   334A      5.889738   335A      5.909607  
	 336A      5.999187   337A      6.006617   338A      6.056978  
	 339A      6.091818   340A      6.152787   341A      6.195457  
	 342A      6.269666   343A      6.292489   344A      6.311661  
	 345A      6.355855   346A      6.412889   347A      6.444152  
	 348A      6.490152   349A      6.525716   350A      6.573374  
	 351A      6.589815   352A      6.598213   353A      6.646608  
	 354A      6.655529   355A      6.732233   356A      6.786858  
	 357A      6.836778   358A      6.860983   359A      6.886782  
	 360A      6.937803   361A      6.971969   362A      7.022908  
	 363A      7.093309   364A      7.177209   365A      7.201908  
	 366A      7.288609   367A      7.310539   368A      7.322514  
	 369A      7.351009   370A      7.358266   371A      7.376522  
	 372A      7.381943   373A      7.433572   374A      7.503498  
	 375A      7.508482   376A      7.554702   377A      7.605460  
	 378A      7.658694   379A      7.693195   380A      7.754327  
	 381A      7.835199   382A      7.882678   383A      7.885253  
	 384A      7.941116   385A      7.943660   386A      7.967650  
	 387A      8.166839   388A      8.192159   389A      8.358132  
	 390A      8.452343   391A      8.541697   392A      8.635523  
	 393A      8.806313   394A      8.871254   395A      8.949308  
	 396A      9.153958   397A      9.488785   398A      9.552022  
	 399A      9.662635   400A     10.234873   401A     10.633805  
	 402A     11.065839   403A     11.114015   404A     11.611637  
	 405A     11.851899   406A     11.980968   407A     12.159875  
	 408A     13.109484   409A     16.609855   410A     51.064138  
	 411A     52.030560   412A     53.646770   413A     59.004262  
	 414A     62.649765  

	Final Occupation by Irrep:
	          A 
	DOCC [     5 ]

  Energy converged.

  @RHF Final Energy:   -76.06051621147293

   => Energetics <=

    Nuclear Repulsion Energy =              9.1737608721456994
    One-Electron Energy =                -123.0063091890417297
    Two-Electron Energy =                  37.7720321054231079
    DFT Exchange-Correlation Energy =       0.0000000000000000
    Empirical Dispersion Energy =           0.0000000000000000
    Total Energy =                        -76.0605162114729296



Properties will be evaluated at   0.000000,   0.000000,   0.000000 Bohr
  ==> Properties <==


Properties computed using the SCF density density matrix
  Nuclear Dipole Moment: (a.u.)
     X:    59.3956      Y:   -21.8269      Z:     1.2834

  Electronic Dipole Moment: (a.u.)
     X:   -58.6376      Y:    21.6415      Z:    -1.2768

  Dipole Moment: (a.u.)
     X:     0.7580      Y:    -0.1855      Z:     0.0066     Total:     0.7804

  Dipole Moment: (Debye)
     X:     1.9266      Y:    -0.4714      Z:     0.0168     Total:     1.9835


  Saving occupied orbitals to File 180.

  Saving SAPT 2-MONOMER_B file.

*** tstop() called on node37.bme.utexas.edu at Fri Aug 29 12:07:46 2014
Module time:
	user time   =      37.32 seconds =       0.62 minutes
	system time =       0.54 seconds =       0.01 minutes
	total time  =         11 seconds =       0.18 minutes
Total time:
	user time   =     185.46 seconds =       3.09 minutes
	system time =       2.40 seconds =       0.04 minutes
	total time  =         51 seconds =       0.85 minutes
  No DF_BASIS_SAPT auxiliary basis selected, defaulting to aug-cc-pvtz-ri

  //>>>>>>>>>>>>>>>>>>>>>>>>>>>>>>>>>>>//
  //               SAPT2+              //
  //<<<<<<<<<<<<<<<<<<<<<<<<<<<<<<<<<<<//


*** tstart() called on node37.bme.utexas.edu
*** at Fri Aug 29 12:07:46 2014

        SAPT2+  
    Ed Hohenstein
     6 June 2009

      Orbital Information
  --------------------------
    NSO        =       414
    NMO        =       414
    NRI        =       912
    NOCC A     =        18
    NOCC B     =         5
    FOCC A     =         5
    FOCC B     =         1
    NVIR A     =       396
    NVIR B     =       409

    Estimated memory usage: 2521.3 MB

    Elst10,r            =    -0.013647134700 H
    Exch10 (S^2)        =     0.009925003405 H
    Exch10              =     0.009992152073 H
    Ind20,r (A<-B)      =    -0.001610895945 H
    Ind20,r (B<-A)      =    -0.002694624556 H
    Ind20,r             =    -0.004305520502 H
    Exch-Ind20,r (A<-B) =     0.000950897263 H
    Exch-Ind20,r (B<-A) =     0.001100788445 H
    Exch-Ind20,r        =     0.002051685708 H
    Disp20              =    -0.004372539918 H
    Exch-Disp20         =     0.000663339435 H
    Elst12,r            =     0.000404879064 H
    Exch11              =    -0.000014187632 H
    Exch12              =     0.001298563607 H
    Ind22               =    -0.000525842099 H
    Disp21              =     0.000241993335 H
    Disp22 (SDQ)        =     0.000015826011 H

    (i =   1 of   4)        579 seconds
    (i =   2 of   4)       1167 seconds
    (i =   3 of   4)       1742 seconds
    (i =   4 of   4)       2307 seconds

    Disp220 (T)         =    -0.000400872575 H

    (i =   1 of  13)        104 seconds
    (i =   2 of  13)        209 seconds
    (i =   3 of  13)        323 seconds
    (i =   4 of  13)        428 seconds
    (i =   5 of  13)        532 seconds
    (i =   6 of  13)        633 seconds
    (i =   7 of  13)        729 seconds
    (i =   8 of  13)        831 seconds
    (i =   9 of  13)        941 seconds
    (i =  10 of  13)       1045 seconds
    (i =  11 of  13)       1149 seconds
    (i =  12 of  13)       1258 seconds
    (i =  13 of  13)       1358 seconds

    Disp202 (T)         =    -0.000361724939 H

    Disp22 (T)          =    -0.000762597514 H

    SAPT Results  
  -----------------------------------------------------------------------
    Electrostatics         -13.24225564 mH      -8.30964121 kcal mol^-1
      Elst10,r             -13.64713470 mH      -8.56370667 kcal mol^-1
      Elst12,r               0.40487906 mH       0.25406546 kcal mol^-1

    Exchange                11.27652805 mH       7.07612848 kcal mol^-1
      Exch10                 9.99215207 mH       6.27017035 kcal mol^-1
      Exch10(S^2)            9.92500341 mH       6.22803392 kcal mol^-1
      Exch11(S^2)           -0.01418763 mH      -0.00890287 kcal mol^-1
      Exch12(S^2)            1.29856361 mH       0.81486100 kcal mol^-1

    Induction               -4.01583060 mH      -2.51997185 kcal mol^-1
      Ind20,r               -4.30552050 mH      -2.70175502 kcal mol^-1
      Ind22                 -0.52584210 mH      -0.32997091 kcal mol^-1
      Exch-Ind20,r           2.05168571 mH       1.28745227 kcal mol^-1
      Exch-Ind22             0.25057661 mH       0.15723920 kcal mol^-1
      delta HF,r (2)        -1.48673032 mH      -0.93293740 kcal mol^-1

    Dispersion              -4.21397865 mH      -2.64431164 kcal mol^-1
      Disp20                -4.37253992 mH      -2.74381034 kcal mol^-1
      Disp21                 0.24199334 mH       0.15185312 kcal mol^-1
      Disp22 (SDQ)           0.01582601 mH       0.00993097 kcal mol^-1
      Disp22 (T)            -0.76259751 mH      -0.47853718 kcal mol^-1
      Exch-Disp20            0.66333943 mH       0.41625180 kcal mol^-1

    Total HF                -7.39554774 mH      -4.64077646 kcal mol^-1
    Total SAPT0            -11.10474822 mH      -6.96833501 kcal mol^-1
    Total SAPT2             -9.69075868 mH      -6.08104313 kcal mol^-1
    Total SAPT2+           -10.19553684 mH      -6.39779623 kcal mol^-1

*** tstop() called on node37.bme.utexas.edu at Fri Aug 29 13:35:30 2014
Module time:
	user time   =   19542.46 seconds =     325.71 minutes
	system time =      70.81 seconds =       1.18 minutes
	total time  =       5264 seconds =      87.73 minutes
Total time:
	user time   =   19727.92 seconds =     328.80 minutes
	system time =      73.21 seconds =       1.22 minutes
	total time  =       5315 seconds =      88.58 minutes

*** PSI4 exiting successfully. Buy a developer a beer!
