    -----------------------------------------------------------------------
          PSI4: An Open-Source Ab Initio Electronic Structure Package
                              PSI 4.0.0-beta4 Driver

    J. M. Turney, A. C. Simmonett, R. M. Parrish, E. G. Hohenstein,
    F. A. Evangelista, J. T. Fermann, B. J. Mintz, L. A. Burns, J. J. Wilke,
    M. L. Abrams, N. J. Russ, M. L. Leininger, C. L. Janssen, E. T. Seidl,
    W. D. Allen, H. F. Schaefer, R. A. King, E. F. Valeev, C. D. Sherrill,
    and T. D. Crawford, WIREs Comput. Mol. Sci., (2011) (doi: 10.1002/wcms.93)

                         Additional Contributions by
    A. E. DePrince, M. Saitow, U. Bozkaya, A. Yu. Sokolov
    -----------------------------------------------------------------------

    Process ID:  10503
    PSI4DATADIR: /home/xzhu216/psi4/psi4-install/share/psi

    Using LocalCommunicator (Number of processes = 1)

    Memory level set to 256.000 MB

  ==> Input File <==

--------------------------------------------------------------------------
#psi4
#
memory 7 gb

molecule Pyrrolidine_Water {
0 1
    N    -2.266528000     1.755160000     0.352356000
    C    -3.256288000     0.724733000     0.014239000
    C    -2.422570000    -0.289462000    -0.775649000
    C    -0.987247000    -0.118691000    -0.221532000
    C    -1.119260000     0.978994000     0.839252000
    H    -4.073716000     1.148827000    -0.565264000
    H    -3.672928000     0.252964000     0.912842000
    H    -2.802786000    -1.300339000    -0.649956000
    H    -2.444773000    -0.045288000    -1.834258000
    H    -0.590358000    -1.037109000     0.204170000
    H    -0.318533000     0.207684000    -1.013409000
    H    -1.319496000     0.532973000     1.821399000
    H    -0.233293000     1.605754000     0.917352000
    H    -2.617716000     2.379585000     1.069595000
--
0 1
    O    -1.457595000     2.399736000    -1.941580400
    H    -1.797664000     2.307808000    -1.032422400
    H    -1.502899000     3.341188000    -2.114550400
units angstrom
no_reorient  #important for SAPT in psi4, default
symmetry c1  #important for SAPT in psi4, default
}

set {
basis aug-cc-pVTZ
scf_type DF
freeze_core True
}
energy('sapt2+')
--------------------------------------------------------------------------

  Memory set to   7.000 GiB by Python script.

  //>>>>>>>>>>>>>>>>>>>>>>>>>>>>>>>>>>>//
  //              Dimer HF             //
  //<<<<<<<<<<<<<<<<<<<<<<<<<<<<<<<<<<<//


  No DF_BASIS_SCF auxiliary basis selected, defaulting to aug-cc-pvtz-jkfit


*** tstart() called on node109.bme.utexas.edu
*** at Wed Sep  3 12:45:21 2014


         ---------------------------------------------------------
                                   SCF
            by Justin Turney, Rob Parrish, and Andy Simmonett
                              RHF Reference
                        4 Threads,   7000 MiB Core
         ---------------------------------------------------------

  ==> Geometry <==

    Molecular point group: c1
    Full point group: C1

    Geometry (in Angstrom), charge = 0, multiplicity = 1:

       Center              X                  Y                   Z       
    ------------   -----------------  -----------------  -----------------
           N         -0.358013111865     0.767602320308     0.690777961627
           C         -1.347773111865    -0.262824679692     0.352660961627
           C         -0.514055111865    -1.277019679692    -0.437227038373
           C          0.921267888135    -1.106248679692     0.116889961627
           C          0.789254888135    -0.008563679692     1.177673961627
           H         -2.165201111865     0.161269320308    -0.226842038373
           H         -1.764413111865    -0.734593679692     1.251263961627
           H         -0.894271111865    -2.287896679692    -0.311534038373
           H         -0.536258111865    -1.032845679692    -1.495836038373
           H          1.318156888135    -2.024666679692     0.542591961627
           H          1.589981888135    -0.779873679692    -0.674987038373
           H          0.589018888135    -0.454584679692     2.159820961627
           H          1.675221888135     0.618196320308     1.255773961627
           H         -0.709201111865     1.392027320308     1.408016961627
           O          0.450919888135     1.412178320308    -1.603158438373
           H          0.110850888135     1.320250320308    -0.694000438373
           H          0.405615888135     2.353630320308    -1.776128438373

  Running in c1 symmetry.

  Nuclear repulsion =  270.260916127963242

  Charge       = 0
  Multiplicity = 1
  Electrons    = 50
  Nalpha       = 25
  Nbeta        = 25

  ==> Algorithm <==

  SCF Algorithm Type is DF.
  DIIS enabled.
  MOM disabled.
  Fractional occupation disabled.
  Guess Type is CORE.
  Energy threshold   = 1.00e-08
  Density threshold  = 1.00e-08
  Integral threshold = 0.00e+00

  ==> Primary Basis <==

  Basis Set: AUG-CC-PVTZ
    Number of shells: 183
    Number of basis function: 529
    Number of Cartesian functions: 605
    Spherical Harmonics?: true
    Max angular momentum: 3

  ==> Pre-Iterations <==

   -------------------------------------------------------
    Irrep   Nso     Nmo     Nalpha   Nbeta   Ndocc  Nsocc
   -------------------------------------------------------
     A        529     529       0       0       0       0
   -------------------------------------------------------
    Total     529     529      25      25      25       0
   -------------------------------------------------------

 OEINTS: Wrapper to libmints.
   by Justin Turney

   Calculation information:
      Number of atoms:                  17
      Number of AO shells:             183
      Number of SO shells:             183
      Number of primitives:            301
      Number of atomic orbitals:       605
      Number of basis functions:       529

      Number of irreps:                  1
      Number of functions per irrep: [ 529 ]

      Overlap, kinetic, potential, dipole, and quadrupole integrals
        stored in file 35.

  ==> Integral Setup <==

  ==> DFJK: Density-Fitted J/K Matrices <==

    J tasked:                  Yes
    K tasked:                  Yes
    wK tasked:                  No
    OpenMP threads:              4
    Integrals threads:           4
    Memory (MB):              5006
    Algorithm:                Core
    Integral Cache:           SAVE
    Schwarz Cutoff:          0E+00
    Fitting Condition:       1E-12

   => Auxiliary Basis Set <=

  Basis Set: aug-cc-pvtz-jkfit
    Number of shells: 334
    Number of basis function: 1130
    Number of Cartesian functions: 1391
    Spherical Harmonics?: true
    Max angular momentum: 4

  Minimum eigenvalue in the overlap matrix is 1.6787186414E-06.
  Using Symmetric Orthogonalization.
  SCF Guess: Core (One-Electron) Hamiltonian.

  Guess energy:  -235.64201814772389

  ==> Iterations <==

                        Total Energy        Delta E     RMS |[F,P]|

   @RHF iter   1:  -212.83622211680608   -2.12836e+02   2.56798e-02 
   @RHF iter   2:  -190.60441091621954    2.22318e+01   1.31722e-02 DIIS
   @RHF iter   3:  -246.80410990479390   -5.61997e+01   1.48546e-02 DIIS
   @RHF iter   4:  -280.72148010496142   -3.39174e+01   7.53541e-03 DIIS
   @RHF iter   5:  -285.82622540221837   -5.10475e+00   3.00225e-03 DIIS
   @RHF iter   6:  -287.14595267735342   -1.31973e+00   8.23604e-04 DIIS
   @RHF iter   7:  -287.26970492394162   -1.23752e-01   2.66980e-04 DIIS
   @RHF iter   8:  -287.27811567621541   -8.41075e-03   8.21256e-05 DIIS
   @RHF iter   9:  -287.27907787650543   -9.62200e-04   3.27321e-05 DIIS
   @RHF iter  10:  -287.27929406732994   -2.16191e-04   5.34931e-06 DIIS
   @RHF iter  11:  -287.27930178018585   -7.71286e-06   1.45333e-06 DIIS
   @RHF iter  12:  -287.27930219838913   -4.18203e-07   4.81561e-07 DIIS
   @RHF iter  13:  -287.27930225793796   -5.95488e-08   9.93794e-08 DIIS
   @RHF iter  14:  -287.27930226127376   -3.33580e-09   2.78031e-08 DIIS
   @RHF iter  15:  -287.27930226153433   -2.60570e-10   7.08660e-09 DIIS

  ==> Post-Iterations <==

	Orbital Energies (a.u.)
	-----------------------

	Doubly Occupied:                                                      

	   1A    -20.500403     2A    -15.559633     3A    -11.251466  
	   4A    -11.251448     5A    -11.213559     6A    -11.212994  
	   7A     -1.300585     8A     -1.237685     9A     -1.029790  
	  10A     -0.981942    11A     -0.820408    12A     -0.785567  
	  13A     -0.717854    14A     -0.687650    15A     -0.637667  
	  16A     -0.601635    17A     -0.578547    18A     -0.527961  
	  19A     -0.522285    20A     -0.520294    21A     -0.485601  
	  22A     -0.474367    23A     -0.462003    24A     -0.450552  
	  25A     -0.392967  

	Virtual:                                                              

	  26A      0.024577    27A      0.035811    28A      0.038291  
	  29A      0.040355    30A      0.054408    31A      0.056358  
	  32A      0.058599    33A      0.059239    34A      0.063568  
	  35A      0.082095    36A      0.097525    37A      0.110111  
	  38A      0.114474    39A      0.117121    40A      0.118908  
	  41A      0.123967    42A      0.129641    43A      0.133532  
	  44A      0.135998    45A      0.146704    46A      0.153927  
	  47A      0.156481    48A      0.163788    49A      0.171311  
	  50A      0.172799    51A      0.179466    52A      0.187485  
	  53A      0.201171    54A      0.205780    55A      0.214337  
	  56A      0.219114    57A      0.225522    58A      0.238614  
	  59A      0.251599    60A      0.277643    61A      0.288113  
	  62A      0.292999    63A      0.295770    64A      0.295932  
	  65A      0.298532    66A      0.304342    67A      0.311341  
	  68A      0.318662    69A      0.321292    70A      0.333110  
	  71A      0.333634    72A      0.347633    73A      0.348538  
	  74A      0.355079    75A      0.365394    76A      0.371356  
	  77A      0.376239    78A      0.380374    79A      0.380767  
	  80A      0.386493    81A      0.388781    82A      0.391592  
	  83A      0.399556    84A      0.418743    85A      0.419428  
	  86A      0.423122    87A      0.426318    88A      0.430411  
	  89A      0.432697    90A      0.442636    91A      0.443483  
	  92A      0.456809    93A      0.469112    94A      0.479985  
	  95A      0.480056    96A      0.489442    97A      0.489898  
	  98A      0.499702    99A      0.503857   100A      0.508818  
	 101A      0.513954   102A      0.521914   103A      0.528198  
	 104A      0.531219   105A      0.540607   106A      0.546988  
	 107A      0.554030   108A      0.557908   109A      0.563012  
	 110A      0.565489   111A      0.572875   112A      0.580957  
	 113A      0.582218   114A      0.583198   115A      0.586568  
	 116A      0.592818   117A      0.610952   118A      0.619000  
	 119A      0.623430   120A      0.645928   121A      0.646732  
	 122A      0.651089   123A      0.656913   124A      0.667739  
	 125A      0.680361   126A      0.688676   127A      0.699624  
	 128A      0.717693   129A      0.724687   130A      0.728953  
	 131A      0.731717   132A      0.756841   133A      0.766708  
	 134A      0.785585   135A      0.786542   136A      0.791462  
	 137A      0.812636   138A      0.823118   139A      0.849288  
	 140A      0.854290   141A      0.857655   142A      0.861302  
	 143A      0.872156   144A      0.876315   145A      0.881783  
	 146A      0.891968   147A      0.892956   148A      0.902677  
	 149A      0.910535   150A      0.923538   151A      0.923891  
	 152A      0.938600   153A      0.949908   154A      0.950690  
	 155A      0.966166   156A      0.972838   157A      0.975861  
	 158A      0.985724   159A      0.991636   160A      0.999910  
	 161A      1.001902   162A      1.007240   163A      1.009356  
	 164A      1.028014   165A      1.040070   166A      1.047134  
	 167A      1.057288   168A      1.071419   169A      1.071883  
	 170A      1.076163   171A      1.076828   172A      1.087277  
	 173A      1.088135   174A      1.102509   175A      1.107914  
	 176A      1.117079   177A      1.132953   178A      1.143378  
	 179A      1.146730   180A      1.154851   181A      1.156419  
	 182A      1.168480   183A      1.179143   184A      1.185914  
	 185A      1.185974   186A      1.189749   187A      1.211321  
	 188A      1.214863   189A      1.224373   190A      1.236113  
	 191A      1.241276   192A      1.250135   193A      1.258080  
	 194A      1.272048   195A      1.282772   196A      1.289711  
	 197A      1.294131   198A      1.310889   199A      1.310951  
	 200A      1.324708   201A      1.336774   202A      1.360075  
	 203A      1.367966   204A      1.379983   205A      1.387895  
	 206A      1.402767   207A      1.408895   208A      1.418801  
	 209A      1.428009   210A      1.436137   211A      1.444542  
	 212A      1.454864   213A      1.459860   214A      1.476330  
	 215A      1.491589   216A      1.496180   217A      1.499275  
	 218A      1.515837   219A      1.518407   220A      1.537132  
	 221A      1.544239   222A      1.545361   223A      1.568303  
	 224A      1.585503   225A      1.587709   226A      1.596820  
	 227A      1.604504   228A      1.606149   229A      1.622847  
	 230A      1.628492   231A      1.638687   232A      1.652084  
	 233A      1.654878   234A      1.655818   235A      1.675924  
	 236A      1.678355   237A      1.697258   238A      1.703900  
	 239A      1.720769   240A      1.723002   241A      1.727504  
	 242A      1.742486   243A      1.763811   244A      1.781104  
	 245A      1.783739   246A      1.792403   247A      1.805858  
	 248A      1.815749   249A      1.829199   250A      1.831174  
	 251A      1.841184   252A      1.872280   253A      1.880602  
	 254A      1.898436   255A      1.908477   256A      1.911712  
	 257A      1.933533   258A      1.934287   259A      1.955997  
	 260A      1.957551   261A      1.964873   262A      1.968219  
	 263A      2.003170   264A      2.006303   265A      2.016316  
	 266A      2.032954   267A      2.034484   268A      2.040941  
	 269A      2.048151   270A      2.062353   271A      2.063994  
	 272A      2.087315   273A      2.089104   274A      2.091464  
	 275A      2.122108   276A      2.158116   277A      2.158888  
	 278A      2.165301   279A      2.181517   280A      2.189557  
	 281A      2.200336   282A      2.234018   283A      2.235544  
	 284A      2.250376   285A      2.259484   286A      2.265740  
	 287A      2.283771   288A      2.305404   289A      2.318620  
	 290A      2.329047   291A      2.333307   292A      2.352128  
	 293A      2.402601   294A      2.405117   295A      2.427686  
	 296A      2.434398   297A      2.446557   298A      2.461818  
	 299A      2.472872   300A      2.479350   301A      2.500114  
	 302A      2.523446   303A      2.540087   304A      2.546856  
	 305A      2.571796   306A      2.597679   307A      2.601931  
	 308A      2.633950   309A      2.636110   310A      2.646844  
	 311A      2.650793   312A      2.689293   313A      2.711411  
	 314A      2.719891   315A      2.748941   316A      2.755193  
	 317A      2.776269   318A      2.780663   319A      2.813680  
	 320A      2.817411   321A      2.874738   322A      2.897153  
	 323A      2.903642   324A      2.954342   325A      3.032461  
	 326A      3.072005   327A      3.098100   328A      3.103491  
	 329A      3.130657   330A      3.200477   331A      3.216743  
	 332A      3.302170   333A      3.306650   334A      3.349477  
	 335A      3.415643   336A      3.445853   337A      3.465615  
	 338A      3.487739   339A      3.510414   340A      3.534864  
	 341A      3.549194   342A      3.550370   343A      3.562630  
	 344A      3.626517   345A      3.638061   346A      3.658919  
	 347A      3.697566   348A      3.699187   349A      3.732753  
	 350A      3.745356   351A      3.764316   352A      3.770608  
	 353A      3.793889   354A      3.800104   355A      3.804844  
	 356A      3.823779   357A      3.829313   358A      3.845610  
	 359A      3.874217   360A      3.885138   361A      3.887487  
	 362A      3.912579   363A      3.933001   364A      3.940737  
	 365A      3.964637   366A      3.980444   367A      4.011256  
	 368A      4.026767   369A      4.031235   370A      4.047657  
	 371A      4.052727   372A      4.072336   373A      4.077452  
	 374A      4.094186   375A      4.098648   376A      4.111426  
	 377A      4.120517   378A      4.164966   379A      4.165576  
	 380A      4.176627   381A      4.189987   382A      4.226737  
	 383A      4.234174   384A      4.255159   385A      4.270921  
	 386A      4.294273   387A      4.305148   388A      4.327481  
	 389A      4.344208   390A      4.359123   391A      4.379482  
	 392A      4.390712   393A      4.407556   394A      4.408441  
	 395A      4.423752   396A      4.437705   397A      4.442798  
	 398A      4.453138   399A      4.470101   400A      4.496030  
	 401A      4.512997   402A      4.526603   403A      4.542702  
	 404A      4.543231   405A      4.559007   406A      4.570651  
	 407A      4.573559   408A      4.628681   409A      4.633020  
	 410A      4.643610   411A      4.676623   412A      4.680805  
	 413A      4.694600   414A      4.716211   415A      4.719319  
	 416A      4.735335   417A      4.773703   418A      4.783635  
	 419A      4.794286   420A      4.842303   421A      4.858176  
	 422A      4.886369   423A      4.896138   424A      4.919091  
	 425A      4.946290   426A      4.952427   427A      4.970118  
	 428A      4.999366   429A      5.008475   430A      5.019943  
	 431A      5.020993   432A      5.044020   433A      5.058291  
	 434A      5.059469   435A      5.075910   436A      5.093754  
	 437A      5.099252   438A      5.119800   439A      5.130698  
	 440A      5.155611   441A      5.169227   442A      5.195156  
	 443A      5.195248   444A      5.241670   445A      5.253580  
	 446A      5.287120   447A      5.303565   448A      5.307925  
	 449A      5.329521   450A      5.346437   451A      5.373260  
	 452A      5.397755   453A      5.400391   454A      5.407221  
	 455A      5.446953   456A      5.482914   457A      5.500479  
	 458A      5.512528   459A      5.515748   460A      5.520124  
	 461A      5.547478   462A      5.551297   463A      5.571228  
	 464A      5.589938   465A      5.625709   466A      5.631390  
	 467A      5.662365   468A      5.683887   469A      5.700977  
	 470A      5.718709   471A      5.743646   472A      5.778024  
	 473A      5.798036   474A      5.828486   475A      5.833715  
	 476A      5.844156   477A      5.868083   478A      5.901756  
	 479A      5.905741   480A      5.943740   481A      6.010926  
	 482A      6.015192   483A      6.027954   484A      6.082106  
	 485A      6.095324   486A      6.101515   487A      6.189340  
	 488A      6.222555   489A      6.224107   490A      6.276977  
	 491A      6.337713   492A      6.354307   493A      6.434402  
	 494A      6.461239   495A      6.468281   496A      6.520325  
	 497A      6.526614   498A      6.610313   499A      6.621577  
	 500A      6.693046   501A      6.739743   502A      6.831980  
	 503A      6.859765   504A      6.914806   505A      6.920341  
	 506A      6.964857   507A      6.970493   508A      6.981004  
	 509A      6.996058   510A      7.081460   511A      7.116030  
	 512A      7.256309   513A      7.355958   514A      7.512243  
	 515A      7.568315   516A      7.595240   517A      7.724763  
	 518A      7.762475   519A      7.891115   520A      8.082237  
	 521A      8.204761   522A      8.301496   523A      9.164228  
	 524A     17.575157   525A     18.350876   526A     18.502897  
	 527A     19.037998   528A     19.696898   529A     20.366145  

	Final Occupation by Irrep:
	          A 
	DOCC [    25 ]

  Energy converged.

  @RHF Final Energy:  -287.27930226153433

   => Energetics <=

    Nuclear Repulsion Energy =            270.2609161279632417
    One-Electron Energy =                -926.6707045138089143
    Two-Electron Energy =                 369.1304861243126538
    DFT Exchange-Correlation Energy =       0.0000000000000000
    Empirical Dispersion Energy =           0.0000000000000000
    Total Energy =                       -287.2793022615330187



Properties will be evaluated at   0.000000,   0.000000,   0.000000 Bohr
  ==> Properties <==


Properties computed using the SCF density density matrix
  Nuclear Dipole Moment: (a.u.)
     X:    -0.3535      Y:    -1.3727      Z:     1.3385

  Electronic Dipole Moment: (a.u.)
     X:    -0.0883      Y:     1.4311      Z:    -0.2124

  Dipole Moment: (a.u.)
     X:    -0.4418      Y:     0.0585      Z:     1.1261     Total:     1.2111

  Dipole Moment: (Debye)
     X:    -1.1228      Y:     0.1486      Z:     2.8623     Total:     3.0782


  Saving occupied orbitals to File 180.

  Saving SAPT 2-DIMER file.

*** tstop() called on node109.bme.utexas.edu at Wed Sep  3 12:47:29 2014
Module time:
	user time   =     471.29 seconds =       7.85 minutes
	system time =       7.46 seconds =       0.12 minutes
	total time  =        128 seconds =       2.13 minutes
Total time:
	user time   =     471.29 seconds =       7.85 minutes
	system time =       7.46 seconds =       0.12 minutes
	total time  =        128 seconds =       2.13 minutes

  //>>>>>>>>>>>>>>>>>>>>>>>>>>>>>>>>>>>//
  //            Monomer A HF           //
  //<<<<<<<<<<<<<<<<<<<<<<<<<<<<<<<<<<<//


  No DF_BASIS_SCF auxiliary basis selected, defaulting to aug-cc-pvtz-jkfit


*** tstart() called on node109.bme.utexas.edu
*** at Wed Sep  3 12:47:29 2014


         ---------------------------------------------------------
                                   SCF
            by Justin Turney, Rob Parrish, and Andy Simmonett
                              RHF Reference
                        4 Threads,   7000 MiB Core
         ---------------------------------------------------------

  ==> Geometry <==

    Molecular point group: c1
    Full point group: C1

    Geometry (in Angstrom), charge = 0, multiplicity = 1:

       Center              X                  Y                   Z       
    ------------   -----------------  -----------------  -----------------
           N         -0.358013111865     0.767602320308     0.690777961627
           C         -1.347773111865    -0.262824679692     0.352660961627
           C         -0.514055111865    -1.277019679692    -0.437227038373
           C          0.921267888135    -1.106248679692     0.116889961627
           C          0.789254888135    -0.008563679692     1.177673961627
           H         -2.165201111865     0.161269320308    -0.226842038373
           H         -1.764413111865    -0.734593679692     1.251263961627
           H         -0.894271111865    -2.287896679692    -0.311534038373
           H         -0.536258111865    -1.032845679692    -1.495836038373
           H          1.318156888135    -2.024666679692     0.542591961627
           H          1.589981888135    -0.779873679692    -0.674987038373
           H          0.589018888135    -0.454584679692     2.159820961627
           H          1.675221888135     0.618196320308     1.255773961627
           H         -0.709201111865     1.392027320308     1.408016961627
           O(Gh)      0.450919888135     1.412178320308    -1.603158438373
           H(Gh)      0.110850888135     1.320250320308    -0.694000438373
           H(Gh)      0.405615888135     2.353630320308    -1.776128438373

  Running in c1 symmetry.

  Nuclear repulsion =  190.835824192124591

  Charge       = 0
  Multiplicity = 1
  Electrons    = 40
  Nalpha       = 20
  Nbeta        = 20

  ==> Algorithm <==

  SCF Algorithm Type is DF.
  DIIS enabled.
  MOM disabled.
  Fractional occupation disabled.
  Guess Type is CORE.
  Energy threshold   = 1.00e-08
  Density threshold  = 1.00e-08
  Integral threshold = 0.00e+00

  ==> Primary Basis <==

  Basis Set: AUG-CC-PVTZ
    Number of shells: 183
    Number of basis function: 529
    Number of Cartesian functions: 605
    Spherical Harmonics?: true
    Max angular momentum: 3

  ==> Pre-Iterations <==

   -------------------------------------------------------
    Irrep   Nso     Nmo     Nalpha   Nbeta   Ndocc  Nsocc
   -------------------------------------------------------
     A        529     529       0       0       0       0
   -------------------------------------------------------
    Total     529     529      20      20      20       0
   -------------------------------------------------------

 OEINTS: Wrapper to libmints.
   by Justin Turney

   Calculation information:
      Number of atoms:                  17
      Number of AO shells:             183
      Number of SO shells:             183
      Number of primitives:            301
      Number of atomic orbitals:       605
      Number of basis functions:       529

      Number of irreps:                  1
      Number of functions per irrep: [ 529 ]

      Overlap, kinetic, potential, dipole, and quadrupole integrals
        stored in file 35.

  ==> Integral Setup <==

  ==> DFJK: Density-Fitted J/K Matrices <==

    J tasked:                  Yes
    K tasked:                  Yes
    wK tasked:                  No
    OpenMP threads:              4
    Integrals threads:           4
    Memory (MB):              5006
    Algorithm:                Core
    Integral Cache:           LOAD
    Schwarz Cutoff:          0E+00
    Fitting Condition:       1E-12

   => Auxiliary Basis Set <=

  Basis Set: aug-cc-pvtz-jkfit
    Number of shells: 334
    Number of basis function: 1130
    Number of Cartesian functions: 1391
    Spherical Harmonics?: true
    Max angular momentum: 4

  Minimum eigenvalue in the overlap matrix is 1.6787186413E-06.
  Using Symmetric Orthogonalization.
  SCF Guess: Core (One-Electron) Hamiltonian.

  Guess energy:  -173.50553756269912

  ==> Iterations <==

                        Total Energy        Delta E     RMS |[F,P]|

   @RHF iter   1:  -156.40408445192756   -1.56404e+02   2.16636e-02 
   @RHF iter   2:  -140.36259504797070    1.60415e+01   1.04430e-02 DIIS
   @RHF iter   3:  -183.82471185656343   -4.34621e+01   1.26704e-02 DIIS
   @RHF iter   4:  -205.72612807611020   -2.19014e+01   5.94626e-03 DIIS
   @RHF iter   5:  -209.75267284597427   -4.02654e+00   2.99965e-03 DIIS
   @RHF iter   6:  -211.04293339269097   -1.29026e+00   9.70716e-04 DIIS
   @RHF iter   7:  -211.21356795504377   -1.70635e-01   2.01580e-04 DIIS
   @RHF iter   8:  -211.22232590572858   -8.75795e-03   5.42912e-05 DIIS
   @RHF iter   9:  -211.22288937220097   -5.63466e-04   1.82036e-05 DIIS
   @RHF iter  10:  -211.22295270566079   -6.33335e-05   3.51187e-06 DIIS
   @RHF iter  11:  -211.22295592146898   -3.21581e-06   8.81765e-07 DIIS
   @RHF iter  12:  -211.22295614901898   -2.27550e-07   1.98960e-07 DIIS
   @RHF iter  13:  -211.22295616167551   -1.26565e-08   4.36206e-08 DIIS
   @RHF iter  14:  -211.22295616228527   -6.09759e-10   1.14122e-08 DIIS
   @RHF iter  15:  -211.22295616232893   -4.36557e-11   3.30045e-09 DIIS

  ==> Post-Iterations <==

	Orbital Energies (a.u.)
	-----------------------

	Doubly Occupied:                                                      

	   1A    -15.536919     2A    -11.240083     3A    -11.240065  
	   4A    -11.213364     5A    -11.212800     6A     -1.216733  
	   7A     -1.021163     8A     -0.971401     9A     -0.806310  
	  10A     -0.779982    11A     -0.686140    12A     -0.657754  
	  13A     -0.588087    14A     -0.558168    15A     -0.510071  
	  16A     -0.507128    17A     -0.479121    18A     -0.471060  
	  19A     -0.456843    20A     -0.370902  

	Virtual:                                                              

	  21A      0.027851    22A      0.036949    23A      0.038143  
	  24A      0.038993    25A      0.054776    26A      0.056655  
	  27A      0.058020    28A      0.059448    29A      0.061037  
	  30A      0.079067    31A      0.094600    32A      0.112907  
	  33A      0.115190    34A      0.120334    35A      0.121316  
	  36A      0.124688    37A      0.128308    38A      0.131913  
	  39A      0.134881    40A      0.141646    41A      0.143532  
	  42A      0.159141    43A      0.163002    44A      0.164434  
	  45A      0.172176    46A      0.176016    47A      0.184132  
	  48A      0.198679    49A      0.200893    50A      0.213154  
	  51A      0.216398    52A      0.219380    53A      0.232977  
	  54A      0.238260    55A      0.268428    56A      0.288550  
	  57A      0.290464    58A      0.295205    59A      0.301599  
	  60A      0.304364    61A      0.305123    62A      0.310790  
	  63A      0.317628    64A      0.321702    65A      0.330029  
	  66A      0.335407    67A      0.344888    68A      0.348534  
	  69A      0.359262    70A      0.370120    71A      0.370311  
	  72A      0.374384    73A      0.379847    74A      0.385776  
	  75A      0.388274    76A      0.389289    77A      0.394323  
	  78A      0.396258    79A      0.403192    80A      0.416669  
	  81A      0.420292    82A      0.426586    83A      0.430992  
	  84A      0.432594    85A      0.434151    86A      0.445398  
	  87A      0.450387    88A      0.457410    89A      0.466807  
	  90A      0.470190    91A      0.482991    92A      0.492295  
	  93A      0.493680    94A      0.502793    95A      0.509334  
	  96A      0.515446    97A      0.526483    98A      0.529573  
	  99A      0.536705   100A      0.539601   101A      0.547536  
	 102A      0.552557   103A      0.559110   104A      0.566881  
	 105A      0.570846   106A      0.574937   107A      0.576149  
	 108A      0.581240   109A      0.584225   110A      0.588258  
	 111A      0.599409   112A      0.608901   113A      0.612806  
	 114A      0.620966   115A      0.633371   116A      0.644952  
	 117A      0.655985   118A      0.657151   119A      0.667320  
	 120A      0.673542   121A      0.697682   122A      0.716140  
	 123A      0.720229   124A      0.723773   125A      0.731125  
	 126A      0.758235   127A      0.768354   128A      0.777763  
	 129A      0.796364   130A      0.803873   131A      0.804031  
	 132A      0.812772   133A      0.835939   134A      0.841075  
	 135A      0.851835   136A      0.854164   137A      0.862602  
	 138A      0.877133   139A      0.884028   140A      0.887212  
	 141A      0.893328   142A      0.898747   143A      0.913510  
	 144A      0.917176   145A      0.920813   146A      0.923462  
	 147A      0.932524   148A      0.940226   149A      0.945071  
	 150A      0.958820   151A      0.970173   152A      0.977446  
	 153A      0.989679   154A      0.993889   155A      0.995453  
	 156A      1.008031   157A      1.010510   158A      1.014274  
	 159A      1.034430   160A      1.046500   161A      1.048090  
	 162A      1.061460   163A      1.062898   164A      1.071190  
	 165A      1.083153   166A      1.084151   167A      1.091068  
	 168A      1.105792   169A      1.108076   170A      1.109815  
	 171A      1.122716   172A      1.126667   173A      1.136040  
	 174A      1.156978   175A      1.162520   176A      1.167926  
	 177A      1.168665   178A      1.182733   179A      1.184305  
	 180A      1.186348   181A      1.194040   182A      1.198000  
	 183A      1.215823   184A      1.221234   185A      1.237188  
	 186A      1.246696   187A      1.261033   188A      1.263782  
	 189A      1.272893   190A      1.278145   191A      1.287614  
	 192A      1.293534   193A      1.314046   194A      1.317076  
	 195A      1.331263   196A      1.347643   197A      1.364724  
	 198A      1.365662   199A      1.371342   200A      1.389658  
	 201A      1.399382   202A      1.412174   203A      1.419768  
	 204A      1.430307   205A      1.444948   206A      1.451436  
	 207A      1.459331   208A      1.472975   209A      1.482599  
	 210A      1.494048   211A      1.494810   212A      1.513490  
	 213A      1.523927   214A      1.527099   215A      1.532633  
	 216A      1.556067   217A      1.560465   218A      1.574187  
	 219A      1.591681   220A      1.594516   221A      1.596650  
	 222A      1.608717   223A      1.615888   224A      1.616652  
	 225A      1.646261   226A      1.660953   227A      1.662508  
	 228A      1.664634   229A      1.678296   230A      1.682345  
	 231A      1.695003   232A      1.706618   233A      1.710136  
	 234A      1.731346   235A      1.737305   236A      1.744395  
	 237A      1.751969   238A      1.764636   239A      1.788732  
	 240A      1.797384   241A      1.808289   242A      1.809612  
	 243A      1.826324   244A      1.831625   245A      1.832383  
	 246A      1.855466   247A      1.870384   248A      1.894649  
	 249A      1.901419   250A      1.902184   251A      1.940161  
	 252A      1.946176   253A      1.951579   254A      1.959013  
	 255A      1.961680   256A      1.977801   257A      1.990684  
	 258A      1.998601   259A      2.014898   260A      2.015273  
	 261A      2.027057   262A      2.035233   263A      2.048299  
	 264A      2.057081   265A      2.075114   266A      2.081463  
	 267A      2.082633   268A      2.090956   269A      2.113405  
	 270A      2.119759   271A      2.139294   272A      2.163500  
	 273A      2.170840   274A      2.171222   275A      2.196835  
	 276A      2.219528   277A      2.244266   278A      2.247686  
	 279A      2.250747   280A      2.266581   281A      2.269286  
	 282A      2.288136   283A      2.294333   284A      2.314848  
	 285A      2.339863   286A      2.347551   287A      2.379104  
	 288A      2.382101   289A      2.401303   290A      2.427163  
	 291A      2.440612   292A      2.454488   293A      2.459667  
	 294A      2.491694   295A      2.511748   296A      2.513911  
	 297A      2.532544   298A      2.558517   299A      2.585785  
	 300A      2.621177   301A      2.637397   302A      2.640137  
	 303A      2.646937   304A      2.664577   305A      2.666884  
	 306A      2.708517   307A      2.713560   308A      2.750553  
	 309A      2.764840   310A      2.765002   311A      2.775717  
	 312A      2.784423   313A      2.815048   314A      2.874920  
	 315A      2.876100   316A      2.940251   317A      2.944364  
	 318A      2.992568   319A      3.003608   320A      3.045559  
	 321A      3.101037   322A      3.110774   323A      3.177541  
	 324A      3.183737   325A      3.284489   326A      3.315644  
	 327A      3.353795   328A      3.378362   329A      3.391616  
	 330A      3.440292   331A      3.471763   332A      3.487880  
	 333A      3.505179   334A      3.527658   335A      3.534044  
	 336A      3.559464   337A      3.560539   338A      3.575124  
	 339A      3.627832   340A      3.645145   341A      3.657406  
	 342A      3.672259   343A      3.679481   344A      3.722842  
	 345A      3.727834   346A      3.745975   347A      3.759106  
	 348A      3.784225   349A      3.785121   350A      3.804004  
	 351A      3.815900   352A      3.827191   353A      3.840946  
	 354A      3.843862   355A      3.863029   356A      3.873245  
	 357A      3.892797   358A      3.896849   359A      3.931029  
	 360A      3.938097   361A      3.954403   362A      3.955946  
	 363A      3.998890   364A      4.001613   365A      4.024045  
	 366A      4.036737   367A      4.041638   368A      4.068429  
	 369A      4.077637   370A      4.096229   371A      4.108729  
	 372A      4.114161   373A      4.117256   374A      4.141758  
	 375A      4.166903   376A      4.187558   377A      4.192179  
	 378A      4.195683   379A      4.214557   380A      4.254180  
	 381A      4.283847   382A      4.283879   383A      4.311513  
	 384A      4.326726   385A      4.359121   386A      4.382359  
	 387A      4.397508   388A      4.414781   389A      4.416180  
	 390A      4.426607   391A      4.446465   392A      4.451561  
	 393A      4.464534   394A      4.480463   395A      4.490396  
	 396A      4.520348   397A      4.543377   398A      4.548415  
	 399A      4.575489   400A      4.590265   401A      4.600862  
	 402A      4.601098   403A      4.644570   404A      4.651666  
	 405A      4.667517   406A      4.695232   407A      4.719626  
	 408A      4.727850   409A      4.756164   410A      4.795817  
	 411A      4.796042   412A      4.837797   413A      4.853835  
	 414A      4.865286   415A      4.899369   416A      4.916897  
	 417A      4.918766   418A      4.923191   419A      4.936861  
	 420A      4.977393   421A      4.982351   422A      5.006532  
	 423A      5.014821   424A      5.027167   425A      5.035844  
	 426A      5.047537   427A      5.085364   428A      5.086692  
	 429A      5.091999   430A      5.101674   431A      5.118233  
	 432A      5.144817   433A      5.156350   434A      5.170955  
	 435A      5.173587   436A      5.210517   437A      5.253354  
	 438A      5.269679   439A      5.270963   440A      5.309622  
	 441A      5.318961   442A      5.348994   443A      5.358593  
	 444A      5.364473   445A      5.366223   446A      5.407627  
	 447A      5.442446   448A      5.445684   449A      5.490742  
	 450A      5.505994   451A      5.523718   452A      5.532834  
	 453A      5.547156   454A      5.560921   455A      5.573193  
	 456A      5.578855   457A      5.598669   458A      5.623663  
	 459A      5.646060   460A      5.647430   461A      5.652877  
	 462A      5.723173   463A      5.736128   464A      5.779339  
	 465A      5.803946   466A      5.823923   467A      5.827348  
	 468A      5.841827   469A      5.854910   470A      5.898637  
	 471A      5.912203   472A      5.937702   473A      5.966323  
	 474A      5.966842   475A      6.036060   476A      6.044454  
	 477A      6.048812   478A      6.114442   479A      6.122012  
	 480A      6.153680   481A      6.229786   482A      6.239863  
	 483A      6.290504   484A      6.310548   485A      6.344059  
	 486A      6.352430   487A      6.401546   488A      6.456606  
	 489A      6.476353   490A      6.547856   491A      6.566202  
	 492A      6.618441   493A      6.639842   494A      6.703318  
	 495A      6.736407   496A      6.849471   497A      6.885588  
	 498A      6.928731   499A      6.957478   500A      6.991780  
	 501A      7.000208   502A      7.023878   503A      7.088025  
	 504A      7.151479   505A      7.240892   506A      7.322354  
	 507A      7.874888   508A      7.906935   509A      8.016465  
	 510A      8.225580   511A      8.374466   512A      8.499538  
	 513A      9.036237   514A      9.301936   515A      9.930782  
	 516A     10.057620   517A     10.241349   518A     10.576566  
	 519A     11.422180   520A     12.024304   521A     12.595429  
	 522A     13.888014   523A     14.299744   524A     18.359826  
	 525A     18.515072   526A     19.049431   527A     19.714963  
	 528A     20.368708   529A     68.399920  

	Final Occupation by Irrep:
	          A 
	DOCC [    20 ]

  Energy converged.

  @RHF Final Energy:  -211.22295616232893

   => Energetics <=

    Nuclear Repulsion Energy =            190.8358241921245906
    One-Electron Energy =                -663.0693653926025490
    Two-Electron Energy =                 261.0105850381488608
    DFT Exchange-Correlation Energy =       0.0000000000000000
    Empirical Dispersion Energy =           0.0000000000000000
    Total Energy =                       -211.2229561623290692



Properties will be evaluated at   0.000000,   0.000000,   0.000000 Bohr
  ==> Properties <==


Properties computed using the SCF density density matrix
  Nuclear Dipole Moment: (a.u.)
     X:    -8.1464      Y:   -29.6643      Z:    30.2426

  Electronic Dipole Moment: (a.u.)
     X:     8.0366      Y:    29.4152      Z:   -29.8814

  Dipole Moment: (a.u.)
     X:    -0.1098      Y:    -0.2491      Z:     0.3612     Total:     0.4523

  Dipole Moment: (Debye)
     X:    -0.2791      Y:    -0.6332      Z:     0.9181     Total:     1.1497


  Saving occupied orbitals to File 180.

  Saving SAPT 2-MONOMER_A file.

*** tstop() called on node109.bme.utexas.edu at Wed Sep  3 12:49:11 2014
Module time:
	user time   =     382.81 seconds =       6.38 minutes
	system time =       4.35 seconds =       0.07 minutes
	total time  =        102 seconds =       1.70 minutes
Total time:
	user time   =     854.13 seconds =      14.24 minutes
	system time =      11.81 seconds =       0.20 minutes
	total time  =        230 seconds =       3.83 minutes

  //>>>>>>>>>>>>>>>>>>>>>>>>>>>>>>>>>>>//
  //            Monomer B HF           //
  //<<<<<<<<<<<<<<<<<<<<<<<<<<<<<<<<<<<//


  No DF_BASIS_SCF auxiliary basis selected, defaulting to aug-cc-pvtz-jkfit


*** tstart() called on node109.bme.utexas.edu
*** at Wed Sep  3 12:49:11 2014


         ---------------------------------------------------------
                                   SCF
            by Justin Turney, Rob Parrish, and Andy Simmonett
                              RHF Reference
                        4 Threads,   7000 MiB Core
         ---------------------------------------------------------

  ==> Geometry <==

    Molecular point group: c1
    Full point group: C1

    Geometry (in Angstrom), charge = 0, multiplicity = 1:

       Center              X                  Y                   Z       
    ------------   -----------------  -----------------  -----------------
           N(Gh)     -0.358013111865     0.767602320308     0.690777961627
           C(Gh)     -1.347773111865    -0.262824679692     0.352660961627
           C(Gh)     -0.514055111865    -1.277019679692    -0.437227038373
           C(Gh)      0.921267888135    -1.106248679692     0.116889961627
           C(Gh)      0.789254888135    -0.008563679692     1.177673961627
           H(Gh)     -2.165201111865     0.161269320308    -0.226842038373
           H(Gh)     -1.764413111865    -0.734593679692     1.251263961627
           H(Gh)     -0.894271111865    -2.287896679692    -0.311534038373
           H(Gh)     -0.536258111865    -1.032845679692    -1.495836038373
           H(Gh)      1.318156888135    -2.024666679692     0.542591961627
           H(Gh)      1.589981888135    -0.779873679692    -0.674987038373
           H(Gh)      0.589018888135    -0.454584679692     2.159820961627
           H(Gh)      1.675221888135     0.618196320308     1.255773961627
           H(Gh)     -0.709201111865     1.392027320308     1.408016961627
           O          0.450919888135     1.412178320308    -1.603158438373
           H          0.110850888135     1.320250320308    -0.694000438373
           H          0.405615888135     2.353630320308    -1.776128438373

  Running in c1 symmetry.

  Nuclear repulsion =    9.106584006306242

  Charge       = 0
  Multiplicity = 1
  Electrons    = 10
  Nalpha       = 5
  Nbeta        = 5

  ==> Algorithm <==

  SCF Algorithm Type is DF.
  DIIS enabled.
  MOM disabled.
  Fractional occupation disabled.
  Guess Type is CORE.
  Energy threshold   = 1.00e-08
  Density threshold  = 1.00e-08
  Integral threshold = 0.00e+00

  ==> Primary Basis <==

  Basis Set: AUG-CC-PVTZ
    Number of shells: 183
    Number of basis function: 529
    Number of Cartesian functions: 605
    Spherical Harmonics?: true
    Max angular momentum: 3

  ==> Pre-Iterations <==

   -------------------------------------------------------
    Irrep   Nso     Nmo     Nalpha   Nbeta   Ndocc  Nsocc
   -------------------------------------------------------
     A        529     529       0       0       0       0
   -------------------------------------------------------
    Total     529     529       5       5       5       0
   -------------------------------------------------------

 OEINTS: Wrapper to libmints.
   by Justin Turney

   Calculation information:
      Number of atoms:                  17
      Number of AO shells:             183
      Number of SO shells:             183
      Number of primitives:            301
      Number of atomic orbitals:       605
      Number of basis functions:       529

      Number of irreps:                  1
      Number of functions per irrep: [ 529 ]

      Overlap, kinetic, potential, dipole, and quadrupole integrals
        stored in file 35.

  ==> Integral Setup <==

  ==> DFJK: Density-Fitted J/K Matrices <==

    J tasked:                  Yes
    K tasked:                  Yes
    wK tasked:                  No
    OpenMP threads:              4
    Integrals threads:           4
    Memory (MB):              5006
    Algorithm:                Core
    Integral Cache:           LOAD
    Schwarz Cutoff:          0E+00
    Fitting Condition:       1E-12

   => Auxiliary Basis Set <=

  Basis Set: aug-cc-pvtz-jkfit
    Number of shells: 334
    Number of basis function: 1130
    Number of Cartesian functions: 1391
    Spherical Harmonics?: true
    Max angular momentum: 4

  Minimum eigenvalue in the overlap matrix is 1.6787186413E-06.
  Using Symmetric Orthogonalization.
  SCF Guess: Core (One-Electron) Hamiltonian.

  Guess energy:   -60.21460442670780

  ==> Iterations <==

                        Total Energy        Delta E     RMS |[F,P]|

   @RHF iter   1:   -61.26243314949864   -6.12624e+01   1.53922e-02 
   @RHF iter   2:   -61.61933907461219   -3.56906e-01   5.37925e-03 DIIS
   @RHF iter   3:   -72.51830836711221   -1.08990e+01   6.58184e-03 DIIS
   @RHF iter   4:   -75.09862194389677   -2.58031e+00   3.09851e-03 DIIS
   @RHF iter   5:   -76.03133264009401   -9.32711e-01   4.12443e-04 DIIS
   @RHF iter   6:   -76.05904836970467   -2.77157e-02   9.60091e-05 DIIS
   @RHF iter   7:   -76.05982949638189   -7.81127e-04   1.41317e-05 DIIS
   @RHF iter   8:   -76.05984942431951   -1.99279e-05   2.23248e-06 DIIS
   @RHF iter   9:   -76.05985004328866   -6.18969e-07   3.30213e-07 DIIS
   @RHF iter  10:   -76.05985006487515   -2.15865e-08   4.94452e-08 DIIS
   @RHF iter  11:   -76.05985006544796   -5.72811e-10   1.94737e-08 DIIS
   @RHF iter  12:   -76.05985006550213   -5.41718e-11   1.58231e-09 DIIS

  ==> Post-Iterations <==

	Orbital Energies (a.u.)
	-----------------------

	Doubly Occupied:                                                      

	   1A    -20.568829     2A     -1.348978     3A     -0.711923  
	   4A     -0.583718     5A     -0.509640  

	Virtual:                                                              

	   6A      0.016184     7A      0.032097     8A      0.035105  
	   9A      0.037490    10A      0.054474    11A      0.055192  
	  12A      0.058621    13A      0.059800    14A      0.061687  
	  15A      0.070966    16A      0.081128    17A      0.101432  
	  18A      0.103491    19A      0.104179    20A      0.113724  
	  21A      0.120023    22A      0.125018    23A      0.131828  
	  24A      0.133426    25A      0.136194    26A      0.139163  
	  27A      0.151425    28A      0.158399    29A      0.159112  
	  30A      0.167017    31A      0.171138    32A      0.178817  
	  33A      0.188448    34A      0.192869    35A      0.199710  
	  36A      0.207419    37A      0.207765    38A      0.218874  
	  39A      0.223979    40A      0.246230    41A      0.281512  
	  42A      0.283354    43A      0.286690    44A      0.299937  
	  45A      0.304124    46A      0.306727    47A      0.308443  
	  48A      0.319128    49A      0.323244    50A      0.325161  
	  51A      0.330500    52A      0.331786    53A      0.337300  
	  54A      0.349465    55A      0.355711    56A      0.360611  
	  57A      0.360626    58A      0.372992    59A      0.377617  
	  60A      0.378521    61A      0.386384    62A      0.391750  
	  63A      0.394157    64A      0.400849    65A      0.403533  
	  66A      0.410102    67A      0.425235    68A      0.425831  
	  69A      0.427544    70A      0.434864    71A      0.442143  
	  72A      0.457819    73A      0.464543    74A      0.467347  
	  75A      0.471869    76A      0.485802    77A      0.497957  
	  78A      0.509799    79A      0.514401    80A      0.518917  
	  81A      0.522699    82A      0.538059    83A      0.543384  
	  84A      0.544289    85A      0.552840    86A      0.554972  
	  87A      0.569021    88A      0.580026    89A      0.580237  
	  90A      0.595419    91A      0.598746    92A      0.602682  
	  93A      0.614617    94A      0.621652    95A      0.625972  
	  96A      0.629151    97A      0.635232    98A      0.644249  
	  99A      0.657712   100A      0.660695   101A      0.673848  
	 102A      0.676232   103A      0.680711   104A      0.694684  
	 105A      0.696533   106A      0.705272   107A      0.710749  
	 108A      0.723983   109A      0.726186   110A      0.737849  
	 111A      0.744656   112A      0.769947   113A      0.773788  
	 114A      0.779073   115A      0.792789   116A      0.796986  
	 117A      0.811465   118A      0.811613   119A      0.834458  
	 120A      0.836826   121A      0.842277   122A      0.848288  
	 123A      0.856160   124A      0.863457   125A      0.880989  
	 126A      0.889417   127A      0.901433   128A      0.920247  
	 129A      0.924285   130A      0.936401   131A      0.963490  
	 132A      0.985621   133A      0.990312   134A      1.015937  
	 135A      1.022040   136A      1.035616   137A      1.038175  
	 138A      1.042188   139A      1.043530   140A      1.051950  
	 141A      1.066239   142A      1.071074   143A      1.077860  
	 144A      1.091093   145A      1.106019   146A      1.107449  
	 147A      1.115558   148A      1.121551   149A      1.126846  
	 150A      1.133081   151A      1.137357   152A      1.142947  
	 153A      1.148674   154A      1.150618   155A      1.157758  
	 156A      1.162427   157A      1.174330   158A      1.180716  
	 159A      1.196131   160A      1.197757   161A      1.205177  
	 162A      1.216536   163A      1.223376   164A      1.226465  
	 165A      1.235201   166A      1.248515   167A      1.253159  
	 168A      1.263485   169A      1.265214   170A      1.267847  
	 171A      1.289478   172A      1.294163   173A      1.309586  
	 174A      1.327563   175A      1.337354   176A      1.352834  
	 177A      1.356360   178A      1.358760   179A      1.372687  
	 180A      1.374579   181A      1.394573   182A      1.396105  
	 183A      1.407510   184A      1.421270   185A      1.424965  
	 186A      1.433485   187A      1.445303   188A      1.450741  
	 189A      1.454705   190A      1.463814   191A      1.471236  
	 192A      1.487275   193A      1.501240   194A      1.507112  
	 195A      1.513648   196A      1.523921   197A      1.528290  
	 198A      1.537624   199A      1.539532   200A      1.560009  
	 201A      1.561977   202A      1.581875   203A      1.582359  
	 204A      1.601275   205A      1.618002   206A      1.623896  
	 207A      1.626683   208A      1.640031   209A      1.646886  
	 210A      1.675060   211A      1.675286   212A      1.678444  
	 213A      1.692252   214A      1.699447   215A      1.703631  
	 216A      1.720007   217A      1.726156   218A      1.740135  
	 219A      1.770083   220A      1.784214   221A      1.788273  
	 222A      1.794546   223A      1.797857   224A      1.813214  
	 225A      1.815896   226A      1.823663   227A      1.848785  
	 228A      1.850751   229A      1.860408   230A      1.882876  
	 231A      1.895315   232A      1.921473   233A      1.933205  
	 234A      1.957674   235A      1.975724   236A      1.992337  
	 237A      2.013724   238A      2.021592   239A      2.030800  
	 240A      2.041319   241A      2.052645   242A      2.055669  
	 243A      2.074565   244A      2.081751   245A      2.100382  
	 246A      2.112553   247A      2.115587   248A      2.146656  
	 249A      2.153280   250A      2.163761   251A      2.193903  
	 252A      2.197038   253A      2.203165   254A      2.210203  
	 255A      2.223255   256A      2.229065   257A      2.238923  
	 258A      2.261566   259A      2.287247   260A      2.306468  
	 261A      2.317511   262A      2.334751   263A      2.352503  
	 264A      2.354634   265A      2.361784   266A      2.369530  
	 267A      2.383801   268A      2.419836   269A      2.429883  
	 270A      2.441847   271A      2.448482   272A      2.475663  
	 273A      2.477853   274A      2.501677   275A      2.507183  
	 276A      2.509581   277A      2.537486   278A      2.548552  
	 279A      2.584968   280A      2.586237   281A      2.588755  
	 282A      2.599247   283A      2.618882   284A      2.637698  
	 285A      2.661465   286A      2.668275   287A      2.675443  
	 288A      2.683737   289A      2.697240   290A      2.727874  
	 291A      2.733912   292A      2.746006   293A      2.776196  
	 294A      2.777216   295A      2.817845   296A      2.826949  
	 297A      2.840305   298A      2.842761   299A      2.861878  
	 300A      2.873016   301A      2.882828   302A      2.899500  
	 303A      2.927976   304A      2.939490   305A      2.950159  
	 306A      2.963690   307A      2.986642   308A      3.012978  
	 309A      3.016725   310A      3.044645   311A      3.132561  
	 312A      3.134948   313A      3.144773   314A      3.166917  
	 315A      3.188407   316A      3.191988   317A      3.218257  
	 318A      3.274553   319A      3.301994   320A      3.329791  
	 321A      3.342155   322A      3.379786   323A      3.450372  
	 324A      3.503374   325A      3.526425   326A      3.554627  
	 327A      3.566665   328A      3.795856   329A      3.832700  
	 330A      3.941517   331A      4.082277   332A      4.099226  
	 333A      4.129943   334A      4.143487   335A      4.164430  
	 336A      4.168241   337A      4.183446   338A      4.191098  
	 339A      4.237284   340A      4.252581   341A      4.280690  
	 342A      4.292438   343A      4.311989   344A      4.329199  
	 345A      4.342756   346A      4.345788   347A      4.366163  
	 348A      4.371128   349A      4.377455   350A      4.418669  
	 351A      4.426886   352A      4.445949   353A      4.448013  
	 354A      4.501027   355A      4.524838   356A      4.526304  
	 357A      4.557428   358A      4.572557   359A      4.585671  
	 360A      4.593961   361A      4.604779   362A      4.607839  
	 363A      4.632208   364A      4.671998   365A      4.675552  
	 366A      4.700962   367A      4.711712   368A      4.730065  
	 369A      4.745115   370A      4.759681   371A      4.772661  
	 372A      4.777590   373A      4.797441   374A      4.813261  
	 375A      4.814442   376A      4.833357   377A      4.835821  
	 378A      4.857329   379A      4.864965   380A      4.870161  
	 381A      4.877473   382A      4.892668   383A      4.892907  
	 384A      4.928479   385A      4.940689   386A      4.979854  
	 387A      4.983722   388A      4.984776   389A      5.008344  
	 390A      5.049084   391A      5.065893   392A      5.105537  
	 393A      5.110791   394A      5.124435   395A      5.139022  
	 396A      5.155152   397A      5.163376   398A      5.196289  
	 399A      5.204154   400A      5.208368   401A      5.254652  
	 402A      5.257411   403A      5.290769   404A      5.325061  
	 405A      5.330861   406A      5.336520   407A      5.339860  
	 408A      5.387448   409A      5.418221   410A      5.447289  
	 411A      5.449124   412A      5.461973   413A      5.477626  
	 414A      5.496756   415A      5.504086   416A      5.522336  
	 417A      5.522637   418A      5.552883   419A      5.568192  
	 420A      5.574551   421A      5.576955   422A      5.593632  
	 423A      5.630563   424A      5.631878   425A      5.643258  
	 426A      5.653095   427A      5.671155   428A      5.692466  
	 429A      5.720579   430A      5.722499   431A      5.742484  
	 432A      5.745110   433A      5.777936   434A      5.796073  
	 435A      5.817547   436A      5.868220   437A      5.885860  
	 438A      5.906488   439A      5.920403   440A      5.948805  
	 441A      5.982047   442A      6.030597   443A      6.039270  
	 444A      6.058306   445A      6.065168   446A      6.108796  
	 447A      6.128343   448A      6.132591   449A      6.147380  
	 450A      6.190619   451A      6.209538   452A      6.255791  
	 453A      6.303409   454A      6.330579   455A      6.341333  
	 456A      6.345791   457A      6.410084   458A      6.431535  
	 459A      6.432381   460A      6.470309   461A      6.510258  
	 462A      6.612044   463A      6.658016   464A      6.710933  
	 465A      6.738978   466A      6.799392   467A      6.839143  
	 468A      6.872530   469A      6.910339   470A      6.951289  
	 471A      7.000607   472A      7.049074   473A      7.061721  
	 474A      7.089023   475A      7.162676   476A      7.223717  
	 477A      7.266147   478A      7.354390   479A      7.367373  
	 480A      7.424451   481A      7.446075   482A      7.460763  
	 483A      7.470970   484A      7.492495   485A      7.512215  
	 486A      7.568642   487A      7.603595   488A      7.620071  
	 489A      7.632105   490A      7.683927   491A      7.787231  
	 492A      7.853660   493A      7.868095   494A      7.938645  
	 495A      7.942205   496A      7.980391   497A      7.997343  
	 498A      8.030829   499A      8.031907   500A      8.097567  
	 501A      8.145290   502A      8.183160   503A      8.235957  
	 504A      8.410292   505A      8.444543   506A      8.472346  
	 507A      8.550798   508A      8.601418   509A      8.699485  
	 510A      8.730794   511A      8.956909   512A      9.098623  
	 513A      9.117029   514A      9.360772   515A      9.408373  
	 516A     10.530767   517A     10.617756   518A     10.905574  
	 519A     10.906918   520A     11.164806   521A     11.474471  
	 522A     11.713603   523A     12.398361   524A     17.557195  
	 525A     54.246614   526A     55.231188   527A     55.270181  
	 528A     57.892237   529A     63.223167  

	Final Occupation by Irrep:
	          A 
	DOCC [     5 ]

  Energy converged.

  @RHF Final Energy:   -76.05985006550213

   => Energetics <=

    Nuclear Repulsion Energy =              9.1065840063062424
    One-Electron Energy =                -122.8866882975611077
    Two-Electron Energy =                  37.7202542257530098
    DFT Exchange-Correlation Energy =       0.0000000000000000
    Empirical Dispersion Energy =           0.0000000000000000
    Total Energy =                        -76.0598500655018626



Properties will be evaluated at   0.000000,   0.000000,   0.000000 Bohr
  ==> Properties <==


Properties computed using the SCF density density matrix
  Nuclear Dipole Moment: (a.u.)
     X:     7.7929      Y:    28.2917      Z:   -28.9041

  Electronic Dipole Moment: (a.u.)
     X:    -8.0470      Y:   -27.7287      Z:    29.3885

  Dipole Moment: (a.u.)
     X:    -0.2541      Y:     0.5630      Z:     0.4844     Total:     0.7850

  Dipole Moment: (Debye)
     X:    -0.6457      Y:     1.4310      Z:     1.2312     Total:     1.9952


  Saving occupied orbitals to File 180.

  Saving SAPT 2-MONOMER_B file.

*** tstop() called on node109.bme.utexas.edu at Wed Sep  3 12:50:26 2014
Module time:
	user time   =     279.19 seconds =       4.65 minutes
	system time =       2.91 seconds =       0.05 minutes
	total time  =         75 seconds =       1.25 minutes
Total time:
	user time   =    1133.35 seconds =      18.89 minutes
	system time =      14.72 seconds =       0.25 minutes
	total time  =        305 seconds =       5.08 minutes
  No DF_BASIS_SAPT auxiliary basis selected, defaulting to aug-cc-pvtz-ri

  //>>>>>>>>>>>>>>>>>>>>>>>>>>>>>>>>>>>//
  //               SAPT2+              //
  //<<<<<<<<<<<<<<<<<<<<<<<<<<<<<<<<<<<//


*** tstart() called on node109.bme.utexas.edu
*** at Wed Sep  3 12:50:26 2014

        SAPT2+  
    Ed Hohenstein
     6 June 2009

      Orbital Information
  --------------------------
    NSO        =       529
    NMO        =       529
    NRI        =      1142
    NOCC A     =        20
    NOCC B     =         5
    FOCC A     =         5
    FOCC B     =         1
    NVIR A     =       509
    NVIR B     =       524

    Estimated memory usage: 5144.5 MB

    Elst10,r            =    -0.046730067379 H
    Exch10 (S^2)        =     0.069783550348 H
    Exch10              =     0.072351519126 H
    Ind20,r (A<-B)      =    -0.028007741063 H
    Ind20,r (B<-A)      =    -0.009734763564 H
    Ind20,r             =    -0.037742504627 H
    Exch-Ind20,r (A<-B) =     0.017080500874 H
    Exch-Ind20,r (B<-A) =     0.007521228199 H
    Exch-Ind20,r        =     0.024601729074 H
    Disp20              =    -0.020768104555 H
    Exch-Disp20         =     0.004696358611 H
    Elst12,r            =    -0.001230746014 H
    Exch11              =     0.001344564876 H
    Exch12              =     0.004841440266 H
    Ind22               =    -0.004446806304 H
    Disp21              =     0.002273073251 H
    Disp22 (SDQ)        =    -0.000372430780 H

    (i =   1 of   4)       4822 seconds
    (i =   2 of   4)       9642 seconds
    (i =   3 of   4)      14458 seconds
    (i =   4 of   4)      19283 seconds

    Disp220 (T)         =    -0.001553996049 H

    (i =   1 of  15)        778 seconds
    (i =   2 of  15)       1556 seconds
    (i =   3 of  15)       2334 seconds
    (i =   4 of  15)       3112 seconds
    (i =   5 of  15)       3891 seconds
    (i =   6 of  15)       4670 seconds
    (i =   7 of  15)       5448 seconds
    (i =   8 of  15)       6226 seconds
    (i =   9 of  15)       7005 seconds
    (i =  10 of  15)       7784 seconds
    (i =  11 of  15)       8563 seconds
    (i =  12 of  15)       9342 seconds
    (i =  13 of  15)      10121 seconds
    (i =  14 of  15)      10900 seconds
    (i =  15 of  15)      11680 seconds

    Disp202 (T)         =    -0.001731908057 H

    Disp22 (T)          =    -0.003285904106 H

    SAPT Results  
  -----------------------------------------------------------------------
    Electrostatics         -47.96081339 mH     -30.09586603 kcal mol^-1
      Elst10,r             -46.73006738 mH     -29.32356122 kcal mol^-1
      Elst12,r              -1.23074601 mH      -0.77230482 kcal mol^-1

    Exchange                78.53752427 mH      49.28304258 kcal mol^-1
      Exch10                72.35151913 mH      45.40126559 kcal mol^-1
      Exch10(S^2)           69.78355035 mH      43.78984079 kcal mol^-1
      Exch11(S^2)            1.34456488 mH       0.84372723 kcal mol^-1
      Exch12(S^2)            4.84144027 mH       3.03804976 kcal mol^-1

    Induction              -23.66572620 mH     -14.85046801 kcal mol^-1
      Ind20,r              -37.74250463 mH     -23.68378021 kcal mol^-1
      Ind22                 -4.44680630 mH      -2.79041320 kcal mol^-1
      Exch-Ind20,r          24.60172907 mH      15.43781871 kcal mol^-1
      Exch-Ind22             2.89856556 mH       1.81887742 kcal mol^-1
      delta HF,r (2)        -8.97670990 mH      -5.63297074 kcal mol^-1

    Dispersion             -17.45700758 mH     -10.95443810 kcal mol^-1
      Disp20               -20.76810456 mH     -13.03218291 kcal mol^-1
      Disp21                 2.27307325 mH       1.42637506 kcal mol^-1
      Disp22 (SDQ)          -0.37243078 mH      -0.23370385 kcal mol^-1
      Disp22 (T)            -3.28590411 mH      -2.06193604 kcal mol^-1
      Exch-Disp20            4.69635861 mH       2.94700964 kcal mol^-1

    Total HF                 3.50396630 mH       2.19877214 kcal mol^-1
    Total SAPT0            -12.56777965 mH      -7.88640112 kcal mol^-1
    Total SAPT2             -9.16076127 mH      -5.74846472 kcal mol^-1
    Total SAPT2+           -10.54602290 mH      -6.61772956 kcal mol^-1

*** tstop() called on node109.bme.utexas.edu at Thu Sep  4 01:01:38 2014
Module time:
	user time   =  160924.69 seconds =    2682.08 minutes
	system time =     395.83 seconds =       6.60 minutes
	total time  =      43872 seconds =     731.20 minutes
Total time:
	user time   =  162058.05 seconds =    2700.97 minutes
	system time =     410.55 seconds =       6.84 minutes
	total time  =      44177 seconds =     736.28 minutes

*** PSI4 exiting successfully. Buy a developer a beer!
