    -----------------------------------------------------------------------
          PSI4: An Open-Source Ab Initio Electronic Structure Package
                              PSI 4.0.0-beta4 Driver

    J. M. Turney, A. C. Simmonett, R. M. Parrish, E. G. Hohenstein,
    F. A. Evangelista, J. T. Fermann, B. J. Mintz, L. A. Burns, J. J. Wilke,
    M. L. Abrams, N. J. Russ, M. L. Leininger, C. L. Janssen, E. T. Seidl,
    W. D. Allen, H. F. Schaefer, R. A. King, E. F. Valeev, C. D. Sherrill,
    and T. D. Crawford, WIREs Comput. Mol. Sci., (2011) (doi: 10.1002/wcms.93)

                         Additional Contributions by
    A. E. DePrince, M. Saitow, U. Bozkaya, A. Yu. Sokolov
    -----------------------------------------------------------------------

    Process ID:  19538
    PSI4DATADIR: /home/xzhu216/psi4/psi4-install/share/psi

    Using LocalCommunicator (Number of processes = 1)

    Memory level set to 256.000 MB

  ==> Input File <==

--------------------------------------------------------------------------
#psi4
#
memory 7 gb

molecule Pyrrolidine_Water {
0 1
    N    -2.266528000     1.755160000     0.352356000
    C    -3.256288000     0.724733000     0.014239000
    C    -2.422570000    -0.289462000    -0.775649000
    C    -0.987247000    -0.118691000    -0.221532000
    C    -1.119260000     0.978994000     0.839252000
    H    -4.073716000     1.148827000    -0.565264000
    H    -3.672928000     0.252964000     0.912842000
    H    -2.802786000    -1.300339000    -0.649956000
    H    -2.444773000    -0.045288000    -1.834258000
    H    -0.590358000    -1.037109000     0.204170000
    H    -0.318533000     0.207684000    -1.013409000
    H    -1.319496000     0.532973000     1.821399000
    H    -0.233293000     1.605754000     0.917352000
    H    -2.617716000     2.379585000     1.069595000
--
0 1
    O    -1.311075000     2.572438500    -2.374323650
    H    -1.651144000     2.480510500    -1.465165650
    H    -1.356379000     3.513890500    -2.547293650
units angstrom
no_reorient  #important for SAPT in psi4, default
symmetry c1  #important for SAPT in psi4, default
}

set {
basis aug-cc-pVTZ
scf_type DF
freeze_core True
}
energy('sapt2+')
--------------------------------------------------------------------------

  Memory set to   7.000 GiB by Python script.

  //>>>>>>>>>>>>>>>>>>>>>>>>>>>>>>>>>>>//
  //              Dimer HF             //
  //<<<<<<<<<<<<<<<<<<<<<<<<<<<<<<<<<<<//


  No DF_BASIS_SCF auxiliary basis selected, defaulting to aug-cc-pvtz-jkfit


*** tstart() called on node117.bme.utexas.edu
*** at Wed Sep  3 12:45:56 2014


         ---------------------------------------------------------
                                   SCF
            by Justin Turney, Rob Parrish, and Andy Simmonett
                              RHF Reference
                        4 Threads,   7000 MiB Core
         ---------------------------------------------------------

  ==> Geometry <==

    Molecular point group: c1
    Full point group: C1

    Geometry (in Angstrom), charge = 0, multiplicity = 1:

       Center              X                  Y                   Z       
    ------------   -----------------  -----------------  -----------------
           N         -0.387635783077     0.732686203907     0.778267799288
           C         -1.377395783077    -0.297740796093     0.440150799288
           C         -0.543677783077    -1.311935796093    -0.349737200712
           C          0.891645216923    -1.141164796093     0.204379799288
           C          0.759632216923    -0.043479796093     1.265163799288
           H         -2.194823783077     0.126353203907    -0.139352200712
           H         -1.794035783077    -0.769509796093     1.338753799288
           H         -0.923893783077    -2.322812796093    -0.224044200712
           H         -0.565880783077    -1.067761796093    -1.408346200712
           H          1.288534216923    -2.059582796093     0.630081799288
           H          1.560359216923    -0.814789796093    -0.587497200712
           H          0.559396216923    -0.489500796093     2.247310799288
           H          1.645599216923     0.583280203907     1.343263799288
           H         -0.738823783077     1.357111203907     1.495506799288
           O          0.567817216923     1.549964703907    -1.948411850712
           H          0.227748216923     1.458036703907    -1.039253850712
           H          0.522513216923     2.491416703907    -2.121381850712

  Running in c1 symmetry.

  Nuclear repulsion =  261.547976454371451

  Charge       = 0
  Multiplicity = 1
  Electrons    = 50
  Nalpha       = 25
  Nbeta        = 25

  ==> Algorithm <==

  SCF Algorithm Type is DF.
  DIIS enabled.
  MOM disabled.
  Fractional occupation disabled.
  Guess Type is CORE.
  Energy threshold   = 1.00e-08
  Density threshold  = 1.00e-08
  Integral threshold = 0.00e+00

  ==> Primary Basis <==

  Basis Set: AUG-CC-PVTZ
    Number of shells: 183
    Number of basis function: 529
    Number of Cartesian functions: 605
    Spherical Harmonics?: true
    Max angular momentum: 3

  ==> Pre-Iterations <==

   -------------------------------------------------------
    Irrep   Nso     Nmo     Nalpha   Nbeta   Ndocc  Nsocc
   -------------------------------------------------------
     A        529     529       0       0       0       0
   -------------------------------------------------------
    Total     529     529      25      25      25       0
   -------------------------------------------------------

 OEINTS: Wrapper to libmints.
   by Justin Turney

   Calculation information:
      Number of atoms:                  17
      Number of AO shells:             183
      Number of SO shells:             183
      Number of primitives:            301
      Number of atomic orbitals:       605
      Number of basis functions:       529

      Number of irreps:                  1
      Number of functions per irrep: [ 529 ]

      Overlap, kinetic, potential, dipole, and quadrupole integrals
        stored in file 35.

  ==> Integral Setup <==

  ==> DFJK: Density-Fitted J/K Matrices <==

    J tasked:                  Yes
    K tasked:                  Yes
    wK tasked:                  No
    OpenMP threads:              4
    Integrals threads:           4
    Memory (MB):              5006
    Algorithm:                Core
    Integral Cache:           SAVE
    Schwarz Cutoff:          0E+00
    Fitting Condition:       1E-12

   => Auxiliary Basis Set <=

  Basis Set: aug-cc-pvtz-jkfit
    Number of shells: 334
    Number of basis function: 1130
    Number of Cartesian functions: 1391
    Spherical Harmonics?: true
    Max angular momentum: 4

  Minimum eigenvalue in the overlap matrix is 1.7268229029E-06.
  Using Symmetric Orthogonalization.
  SCF Guess: Core (One-Electron) Hamiltonian.

  Guess energy:  -235.68375253016416

  ==> Iterations <==

                        Total Energy        Delta E     RMS |[F,P]|

   @RHF iter   1:  -206.91171211420868   -2.06912e+02   2.51832e-02 
   @RHF iter   2:  -155.85340623194202    5.10583e+01   1.41001e-02 DIIS
   @RHF iter   3:  -239.15799265718397   -8.33046e+01   1.23561e-02 DIIS
   @RHF iter   4:  -285.24655704349982   -4.60886e+01   3.99354e-03 DIIS
   @RHF iter   5:  -287.06830249400753   -1.82175e+00   1.36137e-03 DIIS
   @RHF iter   6:  -287.27482175145713   -2.06519e-01   3.01861e-04 DIIS
   @RHF iter   7:  -287.28843206132626   -1.36103e-02   8.93653e-05 DIIS
   @RHF iter   8:  -287.28988748824861   -1.45543e-03   4.69872e-05 DIIS
   @RHF iter   9:  -287.29019206201144   -3.04574e-04   1.41361e-05 DIIS
   @RHF iter  10:  -287.29021373118223   -2.16692e-05   6.97281e-06 DIIS
   @RHF iter  11:  -287.29022049771902   -6.76654e-06   1.76633e-06 DIIS
   @RHF iter  12:  -287.29022118839077   -6.90672e-07   3.73824e-07 DIIS
   @RHF iter  13:  -287.29022122423498   -3.58442e-08   1.13686e-07 DIIS
   @RHF iter  14:  -287.29022122750155   -3.26656e-09   3.37110e-08 DIIS
   @RHF iter  15:  -287.29022122790707   -4.05521e-10   8.32856e-09 DIIS

  ==> Post-Iterations <==

	Orbital Energies (a.u.)
	-----------------------

	Doubly Occupied:                                                      

	   1A    -20.532376     2A    -15.553632     3A    -11.247868  
	   4A    -11.247850     5A    -11.214289     6A    -11.213725  
	   7A     -1.317519     8A     -1.230389     9A     -1.026780  
	  10A     -0.978519    11A     -0.814640    12A     -0.784134  
	  13A     -0.701315    14A     -0.686369    15A     -0.655804  
	  16A     -0.596504    17A     -0.571128    18A     -0.548225  
	  19A     -0.517779    20A     -0.517149    21A     -0.483858  
	  22A     -0.478337    23A     -0.474059    24A     -0.458261  
	  25A     -0.389360  

	Virtual:                                                              

	  26A      0.025800    27A      0.035752    28A      0.038638  
	  29A      0.039860    30A      0.054518    31A      0.054915  
	  32A      0.058452    33A      0.059614    34A      0.063830  
	  35A      0.082160    36A      0.096213    37A      0.111170  
	  38A      0.116131    39A      0.117985    40A      0.120069  
	  41A      0.125230    42A      0.130823    43A      0.134104  
	  44A      0.136022    45A      0.145132    46A      0.152958  
	  47A      0.155191    48A      0.164204    49A      0.170231  
	  50A      0.172589    51A      0.177603    52A      0.184439  
	  53A      0.200068    54A      0.205398    55A      0.209204  
	  56A      0.217508    57A      0.223270    58A      0.232359  
	  59A      0.246796    60A      0.275720    61A      0.286412  
	  62A      0.287416    63A      0.293826    64A      0.295640  
	  65A      0.295752    66A      0.304309    67A      0.312124  
	  68A      0.317621    69A      0.320076    70A      0.329202  
	  71A      0.334598    72A      0.339264    73A      0.348064  
	  74A      0.348521    75A      0.358849    76A      0.366354  
	  77A      0.368650    78A      0.371647    79A      0.374641  
	  80A      0.381106    81A      0.384538    82A      0.389247  
	  83A      0.398743    84A      0.403613    85A      0.416132  
	  86A      0.420077    87A      0.428639    88A      0.429687  
	  89A      0.432686    90A      0.433401    91A      0.445572  
	  92A      0.453627    93A      0.462254    94A      0.473100  
	  95A      0.477459    96A      0.479779    97A      0.481363  
	  98A      0.489649    99A      0.494476   100A      0.502441  
	 101A      0.504626   102A      0.519740   103A      0.520935  
	 104A      0.532599   105A      0.532791   106A      0.540504  
	 107A      0.549670   108A      0.550455   109A      0.555067  
	 110A      0.560726   111A      0.568948   112A      0.572170  
	 113A      0.579164   114A      0.583038   115A      0.589273  
	 116A      0.590751   117A      0.609237   118A      0.610880  
	 119A      0.622880   120A      0.637987   121A      0.645966  
	 122A      0.648194   123A      0.649303   124A      0.652152  
	 125A      0.664267   126A      0.682095   127A      0.682761  
	 128A      0.712532   129A      0.717246   130A      0.728132  
	 131A      0.732730   132A      0.756819   133A      0.765746  
	 134A      0.767430   135A      0.789251   136A      0.797502  
	 137A      0.807250   138A      0.808629   139A      0.824598  
	 140A      0.842066   141A      0.850773   142A      0.861842  
	 143A      0.867081   144A      0.873082   145A      0.875999  
	 146A      0.889318   147A      0.892892   148A      0.900229  
	 149A      0.900489   150A      0.918476   151A      0.919018  
	 152A      0.930956   153A      0.940224   154A      0.946588  
	 155A      0.949649   156A      0.960252   157A      0.965136  
	 158A      0.972669   159A      0.974832   160A      0.993901  
	 161A      0.994845   162A      1.001487   163A      1.006826  
	 164A      1.011674   165A      1.027095   166A      1.037135  
	 167A      1.038387   168A      1.049661   169A      1.053578  
	 170A      1.065023   171A      1.071595   172A      1.078059  
	 173A      1.085716   174A      1.096705   175A      1.099116  
	 176A      1.107674   177A      1.108872   178A      1.119106  
	 179A      1.134828   180A      1.141907   181A      1.148157  
	 182A      1.149692   183A      1.158394   184A      1.166571  
	 185A      1.171086   186A      1.183109   187A      1.196601  
	 188A      1.200498   189A      1.214924   190A      1.216840  
	 191A      1.227612   192A      1.230385   193A      1.253397  
	 194A      1.254937   195A      1.264357   196A      1.281213  
	 197A      1.281290   198A      1.287773   199A      1.292972  
	 200A      1.307524   201A      1.314836   202A      1.330691  
	 203A      1.343726   204A      1.349994   205A      1.368257  
	 206A      1.378511   207A      1.379860   208A      1.391836  
	 209A      1.398781   210A      1.405779   211A      1.411166  
	 212A      1.435750   213A      1.439023   214A      1.453456  
	 215A      1.460142   216A      1.474133   217A      1.482869  
	 218A      1.488012   219A      1.502220   220A      1.517659  
	 221A      1.528327   222A      1.533265   223A      1.557295  
	 224A      1.558820   225A      1.570978   226A      1.577686  
	 227A      1.583616   228A      1.591595   229A      1.599517  
	 230A      1.601764   231A      1.620311   232A      1.627889  
	 233A      1.631920   234A      1.645385   235A      1.646767  
	 236A      1.656118   237A      1.659896   238A      1.683319  
	 239A      1.704553   240A      1.704938   241A      1.710765  
	 242A      1.717882   243A      1.729973   244A      1.736553  
	 245A      1.747334   246A      1.767029   247A      1.780508  
	 248A      1.792218   249A      1.793506   250A      1.815831  
	 251A      1.832048   252A      1.832108   253A      1.848782  
	 254A      1.862355   255A      1.863784   256A      1.902133  
	 257A      1.913373   258A      1.915299   259A      1.931061  
	 260A      1.938790   261A      1.949614   262A      1.959429  
	 263A      1.966553   264A      2.001831   265A      2.003606  
	 266A      2.007386   267A      2.020978   268A      2.028086  
	 269A      2.029776   270A      2.043768   271A      2.055857  
	 272A      2.061540   273A      2.071765   274A      2.094352  
	 275A      2.099486   276A      2.115651   277A      2.139705  
	 278A      2.159092   279A      2.161328   280A      2.173928  
	 281A      2.188071   282A      2.194459   283A      2.202456  
	 284A      2.210832   285A      2.247062   286A      2.248051  
	 287A      2.266929   288A      2.278173   289A      2.288956  
	 290A      2.305457   291A      2.311271   292A      2.340200  
	 293A      2.349477   294A      2.380894   295A      2.384593  
	 296A      2.405834   297A      2.419609   298A      2.431511  
	 299A      2.445305   300A      2.460163   301A      2.491755  
	 302A      2.499789   303A      2.518965   304A      2.530403  
	 305A      2.543913   306A      2.553814   307A      2.557905  
	 308A      2.586205   309A      2.613274   310A      2.618975  
	 311A      2.626773   312A      2.637833   313A      2.655076  
	 314A      2.663026   315A      2.681601   316A      2.701336  
	 317A      2.719570   318A      2.744145   319A      2.755509  
	 320A      2.771454   321A      2.813116   322A      2.828275  
	 323A      2.871133   324A      2.913645   325A      2.948951  
	 326A      2.979988   327A      2.999380   328A      3.033276  
	 329A      3.068427   330A      3.107147   331A      3.144379  
	 332A      3.160124   333A      3.250252   334A      3.272172  
	 335A      3.331910   336A      3.394045   337A      3.430957  
	 338A      3.433963   339A      3.492315   340A      3.515880  
	 341A      3.516666   342A      3.544565   343A      3.546893  
	 344A      3.604345   345A      3.621496   346A      3.630498  
	 347A      3.662690   348A      3.680011   349A      3.728414  
	 350A      3.738258   351A      3.743949   352A      3.770634  
	 353A      3.777649   354A      3.782670   355A      3.800993  
	 356A      3.821899   357A      3.826161   358A      3.843613  
	 359A      3.858953   360A      3.879332   361A      3.883128  
	 362A      3.891470   363A      3.893407   364A      3.926851  
	 365A      3.930972   366A      3.956665   367A      3.958044  
	 368A      3.974737   369A      4.011619   370A      4.036605  
	 371A      4.038870   372A      4.049081   373A      4.056066  
	 374A      4.077012   375A      4.087617   376A      4.094083  
	 377A      4.108763   378A      4.139488   379A      4.162474  
	 380A      4.165792   381A      4.168959   382A      4.173379  
	 383A      4.189024   384A      4.236016   385A      4.242817  
	 386A      4.245446   387A      4.282559   388A      4.294722  
	 389A      4.321021   390A      4.325150   391A      4.349418  
	 392A      4.374823   393A      4.376563   394A      4.389482  
	 395A      4.404332   396A      4.417894   397A      4.419685  
	 398A      4.431940   399A      4.434111   400A      4.444859  
	 401A      4.457410   402A      4.481459   403A      4.494977  
	 404A      4.498696   405A      4.529721   406A      4.543477  
	 407A      4.565132   408A      4.577787   409A      4.579900  
	 410A      4.596894   411A      4.599795   412A      4.611190  
	 413A      4.622805   414A      4.638193   415A      4.653713  
	 416A      4.699735   417A      4.716358   418A      4.722107  
	 419A      4.742880   420A      4.779831   421A      4.812051  
	 422A      4.851081   423A      4.858920   424A      4.904835  
	 425A      4.908812   426A      4.923760   427A      4.927416  
	 428A      4.964555   429A      4.966052   430A      4.987343  
	 431A      5.003533   432A      5.004565   433A      5.015437  
	 434A      5.042424   435A      5.051658   436A      5.068503  
	 437A      5.089345   438A      5.092658   439A      5.122174  
	 440A      5.122967   441A      5.126040   442A      5.155644  
	 443A      5.159194   444A      5.189097   445A      5.202035  
	 446A      5.231274   447A      5.239428   448A      5.270217  
	 449A      5.270938   450A      5.327246   451A      5.339321  
	 452A      5.342181   453A      5.366808   454A      5.383431  
	 455A      5.396844   456A      5.402896   457A      5.410119  
	 458A      5.467953   459A      5.473969   460A      5.495106  
	 461A      5.517757   462A      5.527566   463A      5.530084  
	 464A      5.545042   465A      5.565622   466A      5.584367  
	 467A      5.609361   468A      5.624855   469A      5.646681  
	 470A      5.668556   471A      5.678144   472A      5.714017  
	 473A      5.749760   474A      5.771113   475A      5.814338  
	 476A      5.837419   477A      5.843150   478A      5.856171  
	 479A      5.866230   480A      5.885477   481A      5.898059  
	 482A      5.948822   483A      5.990452   484A      6.039638  
	 485A      6.047829   486A      6.063161   487A      6.120234  
	 488A      6.179027   489A      6.213534   490A      6.221246  
	 491A      6.269056   492A      6.326525   493A      6.393626  
	 494A      6.401627   495A      6.407443   496A      6.439601  
	 497A      6.463877   498A      6.508867   499A      6.582707  
	 500A      6.620803   501A      6.671899   502A      6.675892  
	 503A      6.811009   504A      6.857271   505A      6.889013  
	 506A      6.905059   507A      6.921841   508A      6.983992  
	 509A      6.984480   510A      7.062165   511A      7.111448  
	 512A      7.131187   513A      7.239620   514A      7.416370  
	 515A      7.424359   516A      7.442364   517A      7.541604  
	 518A      7.620943   519A      7.766203   520A      7.909163  
	 521A      8.067275   522A      8.172417   523A      8.924707  
	 524A     16.657065   525A     17.628078   526A     18.455142  
	 527A     18.846918   528A     19.490287   529A     20.240151  

	Final Occupation by Irrep:
	          A 
	DOCC [    25 ]

  Energy converged.

  @RHF Final Energy:  -287.29022122790707

   => Energetics <=

    Nuclear Repulsion Energy =            261.5479764543714509
    One-Electron Energy =                -909.1966628084906006
    Two-Electron Energy =                 360.3584651262148668
    DFT Exchange-Correlation Energy =       0.0000000000000000
    Empirical Dispersion Energy =           0.0000000000000000
    Total Energy =                       -287.2902212279042828



Properties will be evaluated at   0.000000,   0.000000,   0.000000 Bohr
  ==> Properties <==


Properties computed using the SCF density density matrix
  Nuclear Dipole Moment: (a.u.)
     X:    -0.3836      Y:    -1.4082      Z:     1.4274

  Electronic Dipole Moment: (a.u.)
     X:    -0.0145      Y:     1.5492      Z:    -0.4398

  Dipole Moment: (a.u.)
     X:    -0.3981      Y:     0.1411      Z:     0.9876     Total:     1.0742

  Dipole Moment: (Debye)
     X:    -1.0119      Y:     0.3586      Z:     2.5103     Total:     2.7303


  Saving occupied orbitals to File 180.

  Saving SAPT 2-DIMER file.

*** tstop() called on node117.bme.utexas.edu at Wed Sep  3 12:48:04 2014
Module time:
	user time   =     474.30 seconds =       7.91 minutes
	system time =       6.99 seconds =       0.12 minutes
	total time  =        128 seconds =       2.13 minutes
Total time:
	user time   =     474.30 seconds =       7.91 minutes
	system time =       6.99 seconds =       0.12 minutes
	total time  =        128 seconds =       2.13 minutes

  //>>>>>>>>>>>>>>>>>>>>>>>>>>>>>>>>>>>//
  //            Monomer A HF           //
  //<<<<<<<<<<<<<<<<<<<<<<<<<<<<<<<<<<<//


  No DF_BASIS_SCF auxiliary basis selected, defaulting to aug-cc-pvtz-jkfit


*** tstart() called on node117.bme.utexas.edu
*** at Wed Sep  3 12:48:05 2014


         ---------------------------------------------------------
                                   SCF
            by Justin Turney, Rob Parrish, and Andy Simmonett
                              RHF Reference
                        4 Threads,   7000 MiB Core
         ---------------------------------------------------------

  ==> Geometry <==

    Molecular point group: c1
    Full point group: C1

    Geometry (in Angstrom), charge = 0, multiplicity = 1:

       Center              X                  Y                   Z       
    ------------   -----------------  -----------------  -----------------
           N         -0.387635783077     0.732686203907     0.778267799288
           C         -1.377395783077    -0.297740796093     0.440150799288
           C         -0.543677783077    -1.311935796093    -0.349737200712
           C          0.891645216923    -1.141164796093     0.204379799288
           C          0.759632216923    -0.043479796093     1.265163799288
           H         -2.194823783077     0.126353203907    -0.139352200712
           H         -1.794035783077    -0.769509796093     1.338753799288
           H         -0.923893783077    -2.322812796093    -0.224044200712
           H         -0.565880783077    -1.067761796093    -1.408346200712
           H          1.288534216923    -2.059582796093     0.630081799288
           H          1.560359216923    -0.814789796093    -0.587497200712
           H          0.559396216923    -0.489500796093     2.247310799288
           H          1.645599216923     0.583280203907     1.343263799288
           H         -0.738823783077     1.357111203907     1.495506799288
           O(Gh)      0.567817216923     1.549964703907    -1.948411850712
           H(Gh)      0.227748216923     1.458036703907    -1.039253850712
           H(Gh)      0.522513216923     2.491416703907    -2.121381850712

  Running in c1 symmetry.

  Nuclear repulsion =  190.835824192124591

  Charge       = 0
  Multiplicity = 1
  Electrons    = 40
  Nalpha       = 20
  Nbeta        = 20

  ==> Algorithm <==

  SCF Algorithm Type is DF.
  DIIS enabled.
  MOM disabled.
  Fractional occupation disabled.
  Guess Type is CORE.
  Energy threshold   = 1.00e-08
  Density threshold  = 1.00e-08
  Integral threshold = 0.00e+00

  ==> Primary Basis <==

  Basis Set: AUG-CC-PVTZ
    Number of shells: 183
    Number of basis function: 529
    Number of Cartesian functions: 605
    Spherical Harmonics?: true
    Max angular momentum: 3

  ==> Pre-Iterations <==

   -------------------------------------------------------
    Irrep   Nso     Nmo     Nalpha   Nbeta   Ndocc  Nsocc
   -------------------------------------------------------
     A        529     529       0       0       0       0
   -------------------------------------------------------
    Total     529     529      20      20      20       0
   -------------------------------------------------------

 OEINTS: Wrapper to libmints.
   by Justin Turney

   Calculation information:
      Number of atoms:                  17
      Number of AO shells:             183
      Number of SO shells:             183
      Number of primitives:            301
      Number of atomic orbitals:       605
      Number of basis functions:       529

      Number of irreps:                  1
      Number of functions per irrep: [ 529 ]

      Overlap, kinetic, potential, dipole, and quadrupole integrals
        stored in file 35.

  ==> Integral Setup <==

  ==> DFJK: Density-Fitted J/K Matrices <==

    J tasked:                  Yes
    K tasked:                  Yes
    wK tasked:                  No
    OpenMP threads:              4
    Integrals threads:           4
    Memory (MB):              5006
    Algorithm:                Core
    Integral Cache:           LOAD
    Schwarz Cutoff:          0E+00
    Fitting Condition:       1E-12

   => Auxiliary Basis Set <=

  Basis Set: aug-cc-pvtz-jkfit
    Number of shells: 334
    Number of basis function: 1130
    Number of Cartesian functions: 1391
    Spherical Harmonics?: true
    Max angular momentum: 4

  Minimum eigenvalue in the overlap matrix is 1.7268229032E-06.
  Using Symmetric Orthogonalization.
  SCF Guess: Core (One-Electron) Hamiltonian.

  Guess energy:  -173.50143642303178

  ==> Iterations <==

                        Total Energy        Delta E     RMS |[F,P]|

   @RHF iter   1:  -156.43176236437367   -1.56432e+02   2.16341e-02 
   @RHF iter   2:  -140.47021920765283    1.59615e+01   1.04481e-02 DIIS
   @RHF iter   3:  -183.91249101958195   -4.34423e+01   1.26468e-02 DIIS
   @RHF iter   4:  -205.76154533172573   -2.18491e+01   5.92796e-03 DIIS
   @RHF iter   5:  -209.76897507722848   -4.00743e+00   2.98267e-03 DIIS
   @RHF iter   6:  -211.04551442618200   -1.27654e+00   9.63141e-04 DIIS
   @RHF iter   7:  -211.21370727579952   -1.68193e-01   1.99285e-04 DIIS
   @RHF iter   8:  -211.22226282572692   -8.55555e-03   5.40202e-05 DIIS
   @RHF iter   9:  -211.22282159231744   -5.58767e-04   1.81680e-05 DIIS
   @RHF iter  10:  -211.22288462939579   -6.30371e-05   3.48641e-06 DIIS
   @RHF iter  11:  -211.22288781134350   -3.18195e-06   8.83830e-07 DIIS
   @RHF iter  12:  -211.22288803714238   -2.25799e-07   1.97173e-07 DIIS
   @RHF iter  13:  -211.22288804971910   -1.25767e-08   4.37340e-08 DIIS
   @RHF iter  14:  -211.22288805032534   -6.06235e-10   1.13423e-08 DIIS
   @RHF iter  15:  -211.22288805036797   -4.26326e-11   3.28162e-09 DIIS

  ==> Post-Iterations <==

	Orbital Energies (a.u.)
	-----------------------

	Doubly Occupied:                                                      

	   1A    -15.536938     2A    -11.240074     3A    -11.240056  
	   4A    -11.213364     5A    -11.212801     6A     -1.216729  
	   7A     -1.021163     8A     -0.971403     9A     -0.806308  
	  10A     -0.779982    11A     -0.686140    12A     -0.657754  
	  13A     -0.588087    14A     -0.558165    15A     -0.510074  
	  16A     -0.507129    17A     -0.479126    18A     -0.471064  
	  19A     -0.456844    20A     -0.370892  

	Virtual:                                                              

	  21A      0.028095    22A      0.036350    23A      0.038161  
	  24A      0.039052    25A      0.054637    26A      0.055749  
	  27A      0.058117    28A      0.059314    29A      0.060726  
	  30A      0.079035    31A      0.092240    32A      0.113201  
	  33A      0.115519    34A      0.120442    35A      0.121558  
	  36A      0.125881    37A      0.128014    38A      0.133204  
	  39A      0.134810    40A      0.140289    41A      0.144734  
	  42A      0.156212    43A      0.163122    44A      0.163384  
	  45A      0.171651    46A      0.173691    47A      0.179948  
	  48A      0.195698    49A      0.200235    50A      0.201368  
	  51A      0.212859    52A      0.220991    53A      0.232152  
	  54A      0.232631    55A      0.265785    56A      0.286670  
	  57A      0.288191    58A      0.293517    59A      0.300302  
	  60A      0.301439    61A      0.304721    62A      0.311140  
	  63A      0.316550    64A      0.320681    65A      0.328582  
	  66A      0.332498    67A      0.343117    68A      0.349474  
	  69A      0.354211    70A      0.364580    71A      0.364671  
	  72A      0.366005    73A      0.371816    74A      0.377139  
	  75A      0.381621    76A      0.387605    77A      0.392726  
	  78A      0.396371    79A      0.397307    80A      0.405020  
	  81A      0.417226    82A      0.421132    83A      0.430936  
	  84A      0.431571    85A      0.434505    86A      0.438927  
	  87A      0.452111    88A      0.457305    89A      0.463468  
	  90A      0.465953    91A      0.474707    92A      0.482813  
	  93A      0.488313    94A      0.500281    95A      0.503240  
	  96A      0.512653    97A      0.524722    98A      0.526955  
	  99A      0.535217   100A      0.535601   101A      0.540354  
	 102A      0.551908   103A      0.554768   104A      0.557442  
	 105A      0.567308   106A      0.567791   107A      0.575409  
	 108A      0.577040   109A      0.578755   110A      0.589345  
	 111A      0.597402   112A      0.604711   113A      0.613893  
	 114A      0.618461   115A      0.621834   116A      0.639626  
	 117A      0.652205   118A      0.652972   119A      0.663325  
	 120A      0.669218   121A      0.693944   122A      0.698394  
	 123A      0.706578   124A      0.707434   125A      0.732737  
	 126A      0.740740   127A      0.765792   128A      0.768040  
	 129A      0.785151   130A      0.794850   131A      0.795915  
	 132A      0.815141   133A      0.824977   134A      0.836169  
	 135A      0.841860   136A      0.850264   137A      0.857111  
	 138A      0.874377   139A      0.882840   140A      0.888018  
	 141A      0.892940   142A      0.900052   143A      0.906437  
	 144A      0.907801   145A      0.909989   146A      0.918279  
	 147A      0.921624   148A      0.927109   149A      0.929739  
	 150A      0.950766   151A      0.962467   152A      0.964446  
	 153A      0.975796   154A      0.980928   155A      0.982579  
	 156A      0.999339   157A      1.006137   158A      1.007010  
	 159A      1.016156   160A      1.022149   161A      1.037607  
	 162A      1.044308   163A      1.047865   164A      1.062999  
	 165A      1.063573   166A      1.064291   167A      1.089781  
	 168A      1.094406   169A      1.098795   170A      1.102340  
	 171A      1.106193   172A      1.110375   173A      1.120337  
	 174A      1.132023   175A      1.146817   176A      1.149797  
	 177A      1.151306   178A      1.152756   179A      1.170398  
	 180A      1.171490   181A      1.186743   182A      1.193036  
	 183A      1.208708   184A      1.213138   185A      1.215885  
	 186A      1.220285   187A      1.235653   188A      1.249212  
	 189A      1.262798   190A      1.266005   191A      1.269379  
	 192A      1.280469   193A      1.289593   194A      1.303669  
	 195A      1.319051   196A      1.326562   197A      1.334553  
	 198A      1.342451   199A      1.354677   200A      1.365745  
	 201A      1.376104   202A      1.397539   203A      1.404375  
	 204A      1.420513   205A      1.429643   206A      1.432830  
	 207A      1.444471   208A      1.446929   209A      1.452667  
	 210A      1.460656   211A      1.486485   212A      1.489956  
	 213A      1.490838   214A      1.516020   215A      1.524142  
	 216A      1.544638   217A      1.545911   218A      1.562578  
	 219A      1.565847   220A      1.581831   221A      1.587774  
	 222A      1.594899   223A      1.596802   224A      1.609319  
	 225A      1.614848   226A      1.632827   227A      1.643725  
	 228A      1.647115   229A      1.647365   230A      1.654038  
	 231A      1.663382   232A      1.688947   233A      1.689236  
	 234A      1.699850   235A      1.716274   236A      1.717765  
	 237A      1.735364   238A      1.736033   239A      1.753981  
	 240A      1.763983   241A      1.785742   242A      1.790617  
	 243A      1.809365   244A      1.820412   245A      1.824250  
	 246A      1.829517   247A      1.837055   248A      1.857784  
	 249A      1.869651   250A      1.871883   251A      1.901844  
	 252A      1.907392   253A      1.923463   254A      1.929372  
	 255A      1.936411   256A      1.955548   257A      1.969353  
	 258A      1.970330   259A      1.992914   260A      2.004628  
	 261A      2.005115   262A      2.012722   263A      2.033877  
	 264A      2.035511   265A      2.054055   266A      2.059609  
	 267A      2.068449   268A      2.074620   269A      2.090363  
	 270A      2.108632   271A      2.110410   272A      2.132370  
	 273A      2.149926   274A      2.163060   275A      2.189190  
	 276A      2.194977   277A      2.208870   278A      2.211056  
	 279A      2.216685   280A      2.234817   281A      2.261263  
	 282A      2.263951   283A      2.281660   284A      2.298369  
	 285A      2.302785   286A      2.315000   287A      2.329470  
	 288A      2.351397   289A      2.400441   290A      2.401609  
	 291A      2.429168   292A      2.445849   293A      2.449016  
	 294A      2.468395   295A      2.493694   296A      2.505595  
	 297A      2.508048   298A      2.534561   299A      2.549889  
	 300A      2.556751   301A      2.589882   302A      2.599815  
	 303A      2.612471   304A      2.631969   305A      2.641368  
	 306A      2.646884   307A      2.661644   308A      2.676961  
	 309A      2.677942   310A      2.695440   311A      2.712973  
	 312A      2.759836   313A      2.776651   314A      2.783741  
	 315A      2.815774   316A      2.837932   317A      2.876195  
	 318A      2.890870   319A      2.911261   320A      2.986291  
	 321A      3.025421   322A      3.041553   323A      3.131834  
	 324A      3.159623   325A      3.255297   326A      3.260972  
	 327A      3.283030   328A      3.326848   329A      3.327390  
	 330A      3.367498   331A      3.416633   332A      3.424327  
	 333A      3.471864   334A      3.500000   335A      3.510668  
	 336A      3.525868   337A      3.539297   338A      3.553539  
	 339A      3.593234   340A      3.603351   341A      3.616606  
	 342A      3.623751   343A      3.631915   344A      3.674902  
	 345A      3.691137   346A      3.707841   347A      3.731319  
	 348A      3.751977   349A      3.761586   350A      3.783938  
	 351A      3.797307   352A      3.804247   353A      3.806333  
	 354A      3.835766   355A      3.839816   356A      3.859695  
	 357A      3.882391   358A      3.890103   359A      3.902272  
	 360A      3.908574   361A      3.911122   362A      3.939375  
	 363A      3.943418   364A      3.965217   365A      3.997921  
	 366A      4.014800   367A      4.031135   368A      4.045942  
	 369A      4.063445   370A      4.078280   371A      4.080209  
	 372A      4.086532   373A      4.104570   374A      4.119867  
	 375A      4.121567   376A      4.170172   377A      4.170314  
	 378A      4.179802   379A      4.192173   380A      4.233984  
	 381A      4.240053   382A      4.277492   383A      4.280170  
	 384A      4.302828   385A      4.303176   386A      4.337411  
	 387A      4.383073   388A      4.401138   389A      4.404927  
	 390A      4.414820   391A      4.419582   392A      4.439719  
	 393A      4.448575   394A      4.461417   395A      4.461485  
	 396A      4.506765   397A      4.509539   398A      4.519009  
	 399A      4.545276   400A      4.563184   401A      4.573061  
	 402A      4.582589   403A      4.611343   404A      4.617220  
	 405A      4.621707   406A      4.644397   407A      4.695717  
	 408A      4.697294   409A      4.706317   410A      4.731376  
	 411A      4.752877   412A      4.776952   413A      4.791843  
	 414A      4.817292   415A      4.846727   416A      4.893295  
	 417A      4.908929   418A      4.917947   419A      4.928387  
	 420A      4.955005   421A      4.977381   422A      4.981228  
	 423A      4.986169   424A      4.990153   425A      5.009015  
	 426A      5.023216   427A      5.053475   428A      5.061256  
	 429A      5.086176   430A      5.086311   431A      5.115623  
	 432A      5.121495   433A      5.123868   434A      5.143374  
	 435A      5.151424   436A      5.151974   437A      5.169938  
	 438A      5.181505   439A      5.234014   440A      5.242693  
	 441A      5.276007   442A      5.290122   443A      5.314349  
	 444A      5.350370   445A      5.352785   446A      5.365373  
	 447A      5.385513   448A      5.397863   449A      5.400135  
	 450A      5.421044   451A      5.441501   452A      5.498215  
	 453A      5.509392   454A      5.517727   455A      5.529046  
	 456A      5.549131   457A      5.559820   458A      5.594134  
	 459A      5.595328   460A      5.616628   461A      5.633110  
	 462A      5.635666   463A      5.700955   464A      5.704484  
	 465A      5.736558   466A      5.745012   467A      5.776461  
	 468A      5.798145   469A      5.820348   470A      5.838122  
	 471A      5.841782   472A      5.880999   473A      5.884680  
	 474A      5.902981   475A      5.954698   476A      6.002710  
	 477A      6.014802   478A      6.033852   479A      6.076879  
	 480A      6.077338   481A      6.110008   482A      6.170794  
	 483A      6.224843   484A      6.233991   485A      6.276080  
	 486A      6.333150   487A      6.380463   488A      6.420121  
	 489A      6.421432   490A      6.447592   491A      6.468961  
	 492A      6.524493   493A      6.587991   494A      6.630517  
	 495A      6.636080   496A      6.680112   497A      6.791582  
	 498A      6.824530   499A      6.906000   500A      6.910415  
	 501A      6.967562   502A      6.992716   503A      7.004417  
	 504A      7.073354   505A      7.137837   506A      7.165494  
	 507A      7.795417   508A      7.810100   509A      7.925336  
	 510A      8.131782   511A      8.272702   512A      8.372347  
	 513A      8.911524   514A      9.143570   515A      9.798332  
	 516A      9.981807   517A     10.173969   518A     10.450195  
	 519A     11.283080   520A     11.843109   521A     12.288165  
	 522A     13.714927   523A     14.143133   524A     17.545181  
	 525A     18.454833   526A     18.854703   527A     19.488832  
	 528A     20.242332   529A     66.831767  

	Final Occupation by Irrep:
	          A 
	DOCC [    20 ]

  Energy converged.

  @RHF Final Energy:  -211.22288805036797

   => Energetics <=

    Nuclear Repulsion Energy =            190.8358241921245906
    One-Electron Energy =                -663.0692334792552174
    Two-Electron Energy =                 261.0105212367637932
    DFT Exchange-Correlation Energy =       0.0000000000000000
    Empirical Dispersion Energy =           0.0000000000000000
    Total Energy =                       -211.2228880503668051



Properties will be evaluated at   0.000000,   0.000000,   0.000000 Bohr
  ==> Properties <==


Properties computed using the SCF density density matrix
  Nuclear Dipole Moment: (a.u.)
     X:   -10.3855      Y:   -32.3036      Z:    36.8559

  Electronic Dipole Moment: (a.u.)
     X:    10.2758      Y:    32.0545      Z:   -36.4947

  Dipole Moment: (a.u.)
     X:    -0.1098      Y:    -0.2491      Z:     0.3612     Total:     0.4523

  Dipole Moment: (Debye)
     X:    -0.2791      Y:    -0.6332      Z:     0.9180     Total:     1.1496


  Saving occupied orbitals to File 180.

  Saving SAPT 2-MONOMER_A file.

*** tstop() called on node117.bme.utexas.edu at Wed Sep  3 12:49:47 2014
Module time:
	user time   =     383.82 seconds =       6.40 minutes
	system time =       4.37 seconds =       0.07 minutes
	total time  =        102 seconds =       1.70 minutes
Total time:
	user time   =     858.15 seconds =      14.30 minutes
	system time =      11.36 seconds =       0.19 minutes
	total time  =        231 seconds =       3.85 minutes

  //>>>>>>>>>>>>>>>>>>>>>>>>>>>>>>>>>>>//
  //            Monomer B HF           //
  //<<<<<<<<<<<<<<<<<<<<<<<<<<<<<<<<<<<//


  No DF_BASIS_SCF auxiliary basis selected, defaulting to aug-cc-pvtz-jkfit


*** tstart() called on node117.bme.utexas.edu
*** at Wed Sep  3 12:49:47 2014


         ---------------------------------------------------------
                                   SCF
            by Justin Turney, Rob Parrish, and Andy Simmonett
                              RHF Reference
                        4 Threads,   7000 MiB Core
         ---------------------------------------------------------

  ==> Geometry <==

    Molecular point group: c1
    Full point group: C1

    Geometry (in Angstrom), charge = 0, multiplicity = 1:

       Center              X                  Y                   Z       
    ------------   -----------------  -----------------  -----------------
           N(Gh)     -0.387635783077     0.732686203907     0.778267799288
           C(Gh)     -1.377395783077    -0.297740796093     0.440150799288
           C(Gh)     -0.543677783077    -1.311935796093    -0.349737200712
           C(Gh)      0.891645216923    -1.141164796093     0.204379799288
           C(Gh)      0.759632216923    -0.043479796093     1.265163799288
           H(Gh)     -2.194823783077     0.126353203907    -0.139352200712
           H(Gh)     -1.794035783077    -0.769509796093     1.338753799288
           H(Gh)     -0.923893783077    -2.322812796093    -0.224044200712
           H(Gh)     -0.565880783077    -1.067761796093    -1.408346200712
           H(Gh)      1.288534216923    -2.059582796093     0.630081799288
           H(Gh)      1.560359216923    -0.814789796093    -0.587497200712
           H(Gh)      0.559396216923    -0.489500796093     2.247310799288
           H(Gh)      1.645599216923     0.583280203907     1.343263799288
           H(Gh)     -0.738823783077     1.357111203907     1.495506799288
           O          0.567817216923     1.549964703907    -1.948411850712
           H          0.227748216923     1.458036703907    -1.039253850712
           H          0.522513216923     2.491416703907    -2.121381850712

  Running in c1 symmetry.

  Nuclear repulsion =    9.106584006306237

  Charge       = 0
  Multiplicity = 1
  Electrons    = 10
  Nalpha       = 5
  Nbeta        = 5

  ==> Algorithm <==

  SCF Algorithm Type is DF.
  DIIS enabled.
  MOM disabled.
  Fractional occupation disabled.
  Guess Type is CORE.
  Energy threshold   = 1.00e-08
  Density threshold  = 1.00e-08
  Integral threshold = 0.00e+00

  ==> Primary Basis <==

  Basis Set: AUG-CC-PVTZ
    Number of shells: 183
    Number of basis function: 529
    Number of Cartesian functions: 605
    Spherical Harmonics?: true
    Max angular momentum: 3

  ==> Pre-Iterations <==

   -------------------------------------------------------
    Irrep   Nso     Nmo     Nalpha   Nbeta   Ndocc  Nsocc
   -------------------------------------------------------
     A        529     529       0       0       0       0
   -------------------------------------------------------
    Total     529     529       5       5       5       0
   -------------------------------------------------------

 OEINTS: Wrapper to libmints.
   by Justin Turney

   Calculation information:
      Number of atoms:                  17
      Number of AO shells:             183
      Number of SO shells:             183
      Number of primitives:            301
      Number of atomic orbitals:       605
      Number of basis functions:       529

      Number of irreps:                  1
      Number of functions per irrep: [ 529 ]

      Overlap, kinetic, potential, dipole, and quadrupole integrals
        stored in file 35.

  ==> Integral Setup <==

  ==> DFJK: Density-Fitted J/K Matrices <==

    J tasked:                  Yes
    K tasked:                  Yes
    wK tasked:                  No
    OpenMP threads:              4
    Integrals threads:           4
    Memory (MB):              5006
    Algorithm:                Core
    Integral Cache:           LOAD
    Schwarz Cutoff:          0E+00
    Fitting Condition:       1E-12

   => Auxiliary Basis Set <=

  Basis Set: aug-cc-pvtz-jkfit
    Number of shells: 334
    Number of basis function: 1130
    Number of Cartesian functions: 1391
    Spherical Harmonics?: true
    Max angular momentum: 4

  Minimum eigenvalue in the overlap matrix is 1.7268229032E-06.
  Using Symmetric Orthogonalization.
  SCF Guess: Core (One-Electron) Hamiltonian.

  Guess energy:   -60.21319804871963

  ==> Iterations <==

                        Total Energy        Delta E     RMS |[F,P]|

   @RHF iter   1:   -61.27625860364063   -6.12763e+01   1.53132e-02 
   @RHF iter   2:   -61.56705046313660   -2.90792e-01   5.37946e-03 DIIS
   @RHF iter   3:   -72.53038084220896   -1.09633e+01   6.57180e-03 DIIS
   @RHF iter   4:   -75.10543690272654   -2.57506e+00   3.08619e-03 DIIS
   @RHF iter   5:   -76.03235032568072   -9.26913e-01   4.02984e-04 DIIS
   @RHF iter   6:   -76.05897759992543   -2.66273e-02   9.61044e-05 DIIS
   @RHF iter   7:   -76.05976039403484   -7.82794e-04   1.39612e-05 DIIS
   @RHF iter   8:   -76.05977993022132   -1.95362e-05   2.17511e-06 DIIS
   @RHF iter   9:   -76.05978052358662   -5.93365e-07   3.26584e-07 DIIS
   @RHF iter  10:   -76.05978054482435   -2.12377e-08   4.90938e-08 DIIS
   @RHF iter  11:   -76.05978054539004   -5.65691e-10   1.95197e-08 DIIS
   @RHF iter  12:   -76.05978054544546   -5.54223e-11   1.59408e-09 DIIS

  ==> Post-Iterations <==

	Orbital Energies (a.u.)
	-----------------------

	Doubly Occupied:                                                      

	   1A    -20.568900     2A     -1.349023     3A     -0.711960  
	   4A     -0.583744     5A     -0.509665  

	Virtual:                                                              

	   6A      0.016055     7A      0.031618     8A      0.034789  
	   9A      0.037254    10A      0.052880    11A      0.054929  
	  12A      0.058933    13A      0.059998    14A      0.062037  
	  15A      0.070553    16A      0.081264    17A      0.098773  
	  18A      0.103157    19A      0.104141    20A      0.113950  
	  21A      0.120183    22A      0.124605    23A      0.132494  
	  24A      0.132836    25A      0.135891    26A      0.137069  
	  27A      0.148620    28A      0.157641    29A      0.158240  
	  30A      0.166905    31A      0.170665    32A      0.176965  
	  33A      0.188215    34A      0.190457    35A      0.196355  
	  36A      0.202517    37A      0.208335    38A      0.216800  
	  39A      0.222732    40A      0.238076    41A      0.277743  
	  42A      0.280241    43A      0.281114    44A      0.295249  
	  45A      0.300810    46A      0.302459    47A      0.304556  
	  48A      0.313695    49A      0.316163    50A      0.325440  
	  51A      0.328150    52A      0.330912    53A      0.335771  
	  54A      0.344382    55A      0.351979    56A      0.359764  
	  57A      0.360191    58A      0.366531    59A      0.369268  
	  60A      0.375387    61A      0.380877    62A      0.381175  
	  63A      0.392759    64A      0.394637    65A      0.403697  
	  66A      0.404317    67A      0.421214    68A      0.424307  
	  69A      0.425531    70A      0.433784    71A      0.441634  
	  72A      0.448115    73A      0.463229    74A      0.467582  
	  75A      0.469030    76A      0.475968    77A      0.478113  
	  78A      0.500091    79A      0.501842    80A      0.513429  
	  81A      0.520839    82A      0.522461    83A      0.539003  
	  84A      0.541835    85A      0.552088    86A      0.554353  
	  87A      0.570711    88A      0.572104    89A      0.578335  
	  90A      0.592017    91A      0.592190    92A      0.602125  
	  93A      0.611482    94A      0.612571    95A      0.616756  
	  96A      0.620224    97A      0.633687    98A      0.642601  
	  99A      0.652072   100A      0.652237   101A      0.673187  
	 102A      0.675117   103A      0.676428   104A      0.685372  
	 105A      0.691249   106A      0.695943   107A      0.702939  
	 108A      0.716064   109A      0.723235   110A      0.728492  
	 111A      0.740527   112A      0.747277   113A      0.767769  
	 114A      0.771995   115A      0.778039   116A      0.792139  
	 117A      0.797533   118A      0.804952   119A      0.807078  
	 120A      0.825302   121A      0.826077   122A      0.845104  
	 123A      0.855192   124A      0.862588   125A      0.879030  
	 126A      0.880751   127A      0.895065   128A      0.904317  
	 129A      0.913515   130A      0.930563   131A      0.966319  
	 132A      0.977766   133A      0.979310   134A      0.992124  
	 135A      0.997163   136A      1.008396   137A      1.020142  
	 138A      1.030761   139A      1.031357   140A      1.040909  
	 141A      1.057857   142A      1.059539   143A      1.070330  
	 144A      1.083290   145A      1.089136   146A      1.092594  
	 147A      1.097586   148A      1.105353   149A      1.117218  
	 150A      1.121590   151A      1.124510   152A      1.132981  
	 153A      1.133839   154A      1.137294   155A      1.140633  
	 156A      1.144491   157A      1.151050   158A      1.164616  
	 159A      1.175567   160A      1.176644   161A      1.187679  
	 162A      1.193171   163A      1.207622   164A      1.219431  
	 165A      1.222831   166A      1.229071   167A      1.232143  
	 168A      1.238553   169A      1.256771   170A      1.260295  
	 171A      1.283154   172A      1.285095   173A      1.298659  
	 174A      1.309181   175A      1.318884   176A      1.338059  
	 177A      1.339629   178A      1.342085   179A      1.351321  
	 180A      1.369643   181A      1.372372   182A      1.382275  
	 183A      1.387806   184A      1.395996   185A      1.401925  
	 186A      1.414614   187A      1.421923   188A      1.426601  
	 189A      1.441776   190A      1.446645   191A      1.452869  
	 192A      1.459331   193A      1.472290   194A      1.483367  
	 195A      1.493235   196A      1.493977   197A      1.505838  
	 198A      1.515487   199A      1.519935   200A      1.530501  
	 201A      1.546918   202A      1.550973   203A      1.571328  
	 204A      1.578711   205A      1.579842   206A      1.586060  
	 207A      1.598334   208A      1.618940   209A      1.635805  
	 210A      1.640385   211A      1.644725   212A      1.666120  
	 213A      1.667527   214A      1.687415   215A      1.688148  
	 216A      1.698114   217A      1.703987   218A      1.720418  
	 219A      1.720571   220A      1.733230   221A      1.757575  
	 222A      1.777575   223A      1.782484   224A      1.784141  
	 225A      1.800376   226A      1.805371   227A      1.813400  
	 228A      1.829705   229A      1.836168   230A      1.869967  
	 231A      1.882851   232A      1.895832   233A      1.899181  
	 234A      1.916385   235A      1.925208   236A      1.963328  
	 237A      1.970922   238A      1.995696   239A      2.002245  
	 240A      2.022861   241A      2.038927   242A      2.045040  
	 243A      2.051312   244A      2.070235   245A      2.076133  
	 246A      2.090371   247A      2.106522   248A      2.120307  
	 249A      2.132553   250A      2.137461   251A      2.165649  
	 252A      2.184081   253A      2.191165   254A      2.197927  
	 255A      2.207746   256A      2.217310   257A      2.224835  
	 258A      2.233178   259A      2.260916   260A      2.272046  
	 261A      2.275210   262A      2.293290   263A      2.319166  
	 264A      2.330424   265A      2.348024   266A      2.362587  
	 267A      2.363078   268A      2.389327   269A      2.390846  
	 270A      2.398446   271A      2.433845   272A      2.444584  
	 273A      2.445084   274A      2.465359   275A      2.472779  
	 276A      2.487089   277A      2.515940   278A      2.535299  
	 279A      2.538031   280A      2.545961   281A      2.551122  
	 282A      2.559298   283A      2.586681   284A      2.607547  
	 285A      2.616819   286A      2.646687   287A      2.660038  
	 288A      2.666234   289A      2.680035   290A      2.690025  
	 291A      2.697502   292A      2.709783   293A      2.722781  
	 294A      2.743919   295A      2.757284   296A      2.772425  
	 297A      2.784750   298A      2.797879   299A      2.817238  
	 300A      2.844661   301A      2.859723   302A      2.861216  
	 303A      2.879445   304A      2.892804   305A      2.929226  
	 306A      2.937542   307A      2.939889   308A      2.970738  
	 309A      2.993660   310A      3.005212   311A      3.047857  
	 312A      3.052592   313A      3.079661   314A      3.106566  
	 315A      3.109554   316A      3.176279   317A      3.181625  
	 318A      3.184691   319A      3.240814   320A      3.251029  
	 321A      3.258025   322A      3.286623   323A      3.383311  
	 324A      3.431412   325A      3.475850   326A      3.542154  
	 327A      3.555323   328A      3.709278   329A      3.794694  
	 330A      3.849436   331A      4.056712   332A      4.081391  
	 333A      4.103883   334A      4.114756   335A      4.134933  
	 336A      4.137326   337A      4.157661   338A      4.186630  
	 339A      4.194198   340A      4.220366   341A      4.231633  
	 342A      4.268035   343A      4.286368   344A      4.298044  
	 345A      4.313928   346A      4.321222   347A      4.342576  
	 348A      4.356888   349A      4.361685   350A      4.381667  
	 351A      4.400384   352A      4.404974   353A      4.428776  
	 354A      4.449448   355A      4.450513   356A      4.476036  
	 357A      4.505777   358A      4.518220   359A      4.531258  
	 360A      4.545592   361A      4.546506   362A      4.578669  
	 363A      4.583003   364A      4.611109   365A      4.620526  
	 366A      4.634573   367A      4.662515   368A      4.700738  
	 369A      4.711011   370A      4.718741   371A      4.737227  
	 372A      4.742877   373A      4.753155   374A      4.783392  
	 375A      4.791800   376A      4.806104   377A      4.815212  
	 378A      4.829992   379A      4.838925   380A      4.861058  
	 381A      4.861700   382A      4.874866   383A      4.876156  
	 384A      4.911640   385A      4.920014   386A      4.926857  
	 387A      4.958285   388A      4.960108   389A      5.000879  
	 390A      5.002268   391A      5.028247   392A      5.049317  
	 393A      5.051270   394A      5.086262   395A      5.110669  
	 396A      5.117343   397A      5.152085   398A      5.157114  
	 399A      5.168231   400A      5.173846   401A      5.184714  
	 402A      5.212365   403A      5.232822   404A      5.264525  
	 405A      5.286317   406A      5.308886   407A      5.312185  
	 408A      5.354968   409A      5.380697   410A      5.406677  
	 411A      5.425199   412A      5.438600   413A      5.450439  
	 414A      5.458074   415A      5.471457   416A      5.494455  
	 417A      5.503474   418A      5.524200   419A      5.527018  
	 420A      5.528571   421A      5.557854   422A      5.563384  
	 423A      5.577365   424A      5.584523   425A      5.611127  
	 426A      5.618247   427A      5.631899   428A      5.634292  
	 429A      5.657748   430A      5.677296   431A      5.714364  
	 432A      5.725138   433A      5.737671   434A      5.766184  
	 435A      5.791584   436A      5.823717   437A      5.849072  
	 438A      5.895046   439A      5.912769   440A      5.918261  
	 441A      5.940342   442A      5.968822   443A      6.012083  
	 444A      6.024987   445A      6.026594   446A      6.036401  
	 447A      6.075877   448A      6.105084   449A      6.118109  
	 450A      6.149749   451A      6.185203   452A      6.237087  
	 453A      6.253432   454A      6.275053   455A      6.301892  
	 456A      6.302132   457A      6.333406   458A      6.358258  
	 459A      6.420395   460A      6.470137   461A      6.471409  
	 462A      6.565531   463A      6.577730   464A      6.597207  
	 465A      6.653250   466A      6.771544   467A      6.804879  
	 468A      6.810880   469A      6.853207   470A      6.896593  
	 471A      6.950592   472A      7.027503   473A      7.027805  
	 474A      7.078723   475A      7.082981   476A      7.179585  
	 477A      7.206512   478A      7.335038   479A      7.359482  
	 480A      7.376410   481A      7.392050   482A      7.402711  
	 483A      7.413223   484A      7.448906   485A      7.484642  
	 486A      7.519586   487A      7.542929   488A      7.554497  
	 489A      7.619918   490A      7.624052   491A      7.693908  
	 492A      7.813144   493A      7.854757   494A      7.875957  
	 495A      7.887604   496A      7.921352   497A      7.963163  
	 498A      7.986257   499A      8.023816   500A      8.026850  
	 501A      8.071683   502A      8.087277   503A      8.164293  
	 504A      8.189152   505A      8.344348   506A      8.399296  
	 507A      8.480220   508A      8.552092   509A      8.607360  
	 510A      8.674297   511A      8.896252   512A      8.931486  
	 513A      9.105566   514A      9.181176   515A      9.322499  
	 516A     10.410137   517A     10.560869   518A     10.813846  
	 519A     10.859043   520A     11.134268   521A     11.443070  
	 522A     11.715164   523A     12.050826   524A     16.763805  
	 525A     54.053031   526A     54.974957   527A     54.986750  
	 528A     57.654001   529A     61.604799  

	Final Occupation by Irrep:
	          A 
	DOCC [     5 ]

  Energy converged.

  @RHF Final Energy:   -76.05978054544546

   => Energetics <=

    Nuclear Repulsion Energy =              9.1065840063062371
    One-Electron Energy =                -122.8861417795527160
    Two-Electron Energy =                  37.7197772278011030
    DFT Exchange-Correlation Energy =       0.0000000000000000
    Empirical Dispersion Energy =           0.0000000000000000
    Total Energy =                        -76.0597805454453777



Properties will be evaluated at   0.000000,   0.000000,   0.000000 Bohr
  ==> Properties <==


Properties computed using the SCF density density matrix
  Nuclear Dipole Moment: (a.u.)
     X:    10.0019      Y:    30.8955      Z:   -35.4285

  Electronic Dipole Moment: (a.u.)
     X:   -10.2561      Y:   -30.3322      Z:    35.9131

  Dipole Moment: (a.u.)
     X:    -0.2542      Y:     0.5633      Z:     0.4847     Total:     0.7853

  Dipole Moment: (Debye)
     X:    -0.6461      Y:     1.4317      Z:     1.2319     Total:     1.9961


  Saving occupied orbitals to File 180.

  Saving SAPT 2-MONOMER_B file.

*** tstop() called on node117.bme.utexas.edu at Wed Sep  3 12:51:01 2014
Module time:
	user time   =     277.97 seconds =       4.63 minutes
	system time =       2.88 seconds =       0.05 minutes
	total time  =         74 seconds =       1.23 minutes
Total time:
	user time   =    1136.14 seconds =      18.94 minutes
	system time =      14.24 seconds =       0.24 minutes
	total time  =        305 seconds =       5.08 minutes
  No DF_BASIS_SAPT auxiliary basis selected, defaulting to aug-cc-pvtz-ri

  //>>>>>>>>>>>>>>>>>>>>>>>>>>>>>>>>>>>//
  //               SAPT2+              //
  //<<<<<<<<<<<<<<<<<<<<<<<<<<<<<<<<<<<//


*** tstart() called on node117.bme.utexas.edu
*** at Wed Sep  3 12:51:01 2014

        SAPT2+  
    Ed Hohenstein
     6 June 2009

      Orbital Information
  --------------------------
    NSO        =       529
    NMO        =       529
    NRI        =      1142
    NOCC A     =        20
    NOCC B     =         5
    FOCC A     =         5
    FOCC B     =         1
    NVIR A     =       509
    NVIR B     =       524

    Estimated memory usage: 5144.5 MB

    Elst10,r            =    -0.017687262427 H
    Exch10 (S^2)        =     0.015579543911 H
    Exch10              =     0.015719219244 H
    Ind20,r (A<-B)      =    -0.006765087372 H
    Ind20,r (B<-A)      =    -0.001537092688 H
    Ind20,r             =    -0.008302180060 H
    Exch-Ind20,r (A<-B) =     0.004186477905 H
    Exch-Ind20,r (B<-A) =     0.000769831826 H
    Exch-Ind20,r        =     0.004956309731 H
    Disp20              =    -0.008030075900 H
    Exch-Disp20         =     0.001318514387 H
    Elst12,r            =    -0.000619596643 H
    Exch11              =     0.000338527751 H
    Exch12              =     0.001990066068 H
    Ind22               =    -0.001181614361 H
    Disp21              =     0.000675366343 H
    Disp22 (SDQ)        =    -0.000147461046 H

    (i =   1 of   4)       4823 seconds
    (i =   2 of   4)       9646 seconds
    (i =   3 of   4)      14469 seconds
    (i =   4 of   4)      19295 seconds

    Disp220 (T)         =    -0.000666378026 H

    (i =   1 of  15)        779 seconds
    (i =   2 of  15)       1559 seconds
    (i =   3 of  15)       2338 seconds
    (i =   4 of  15)       3117 seconds
    (i =   5 of  15)       3896 seconds
    (i =   6 of  15)       4676 seconds
    (i =   7 of  15)       5456 seconds
    (i =   8 of  15)       6236 seconds
    (i =   9 of  15)       7016 seconds
    (i =  10 of  15)       7796 seconds
    (i =  11 of  15)       8575 seconds
    (i =  12 of  15)       9355 seconds
    (i =  13 of  15)      10135 seconds
    (i =  14 of  15)      10915 seconds
    (i =  15 of  15)      11695 seconds

    Disp202 (T)         =    -0.000730763254 H

    Disp22 (T)          =    -0.001397141279 H

    SAPT Results  
  -----------------------------------------------------------------------
    Electrostatics         -18.30685907 mH     -11.48772798 kcal mol^-1
      Elst10,r             -17.68726243 mH     -11.09892520 kcal mol^-1
      Elst12,r              -0.61959664 mH      -0.38880278 kcal mol^-1

    Exchange                18.04781306 mH      11.32517415 kcal mol^-1
      Exch10                15.71921924 mH       9.86395941 kcal mol^-1
      Exch10(S^2)           15.57954391 mH       9.77631181 kcal mol^-1
      Exch11(S^2)            0.33852775 mH       0.21242938 kcal mol^-1
      Exch12(S^2)            1.99006607 mH       1.24878536 kcal mol^-1

    Induction               -6.06079256 mH      -3.80320491 kcal mol^-1
      Ind20,r               -8.30218006 mH      -5.20969686 kcal mol^-1
      Ind22                 -1.18161436 mH      -0.74147424 kcal mol^-1
      Exch-Ind20,r           4.95630973 mH       3.11013144 kcal mol^-1
      Exch-Ind22             0.70541071 mH       0.44265192 kcal mol^-1
      delta HF,r (2)        -2.23871858 mH      -1.40481718 kcal mol^-1

    Dispersion              -7.58079749 mH      -4.75702245 kcal mol^-1
      Disp20                -8.03007590 mH      -5.03894891 kcal mol^-1
      Disp21                 0.67536634 mH       0.42379880 kcal mol^-1
      Disp22 (SDQ)          -0.14746105 mH      -0.09253321 kcal mol^-1
      Disp22 (T)            -1.39714128 mH      -0.87671943 kcal mol^-1
      Exch-Disp20            1.31851439 mH       0.82738030 kcal mol^-1

    Total HF                -7.55263209 mH      -4.73934839 kcal mol^-1
    Total SAPT0            -14.26419361 mH      -8.95091700 kcal mol^-1
    Total SAPT2            -13.03140008 mH      -8.17732735 kcal mol^-1
    Total SAPT2+           -13.90063606 mH      -8.72278118 kcal mol^-1

*** tstop() called on node117.bme.utexas.edu at Thu Sep  4 01:08:29 2014
Module time:
	user time   =  161101.38 seconds =    2685.02 minutes
	system time =     394.43 seconds =       6.57 minutes
	total time  =      44248 seconds =     737.47 minutes
Total time:
	user time   =  162237.52 seconds =    2703.96 minutes
	system time =     408.67 seconds =       6.81 minutes
	total time  =      44553 seconds =     742.55 minutes

*** PSI4 exiting successfully. Buy a developer a beer!
