
    -----------------------------------------------------------------------
          Psi4: An Open-Source Ab Initio Electronic Structure Package
                               Psi4 1.4a2.dev224 

                         Git: Rev {master} e453b16 


    R. M. Parrish, L. A. Burns, D. G. A. Smith, A. C. Simmonett,
    A. E. DePrince III, E. G. Hohenstein, U. Bozkaya, A. Yu. Sokolov,
    R. Di Remigio, R. M. Richard, J. F. Gonthier, A. M. James,
    H. R. McAlexander, A. Kumar, M. Saitow, X. Wang, B. P. Pritchard,
    P. Verma, H. F. Schaefer III, K. Patkowski, R. A. King, E. F. Valeev,
    F. A. Evangelista, J. M. Turney, T. D. Crawford, and C. D. Sherrill,
    J. Chem. Theory Comput. 13(7) pp 3185--3197 (2017).
    (doi: 10.1021/acs.jctc.7b00174)


                         Additional Contributions by
    P. Kraus, H. Kruse, M. H. Lechner, M. C. Schieber, R. A. Shaw,
    A. Alenaizan, R. Galvelis, Z. L. Glick, S. Lehtola, and J. P. Misiewicz

    -----------------------------------------------------------------------


    Psi4 started on: Thursday, 23 April 2020 11:49PM

    Process ID: 81682
    Host:       node43.bme.utexas.edu
    PSIDATADIR: /home/liuchw/anaconda3/envs/psi4env/share/psi4
    Memory:     500.0 MiB
    Threads:    8
    
  ==> Input File <==

--------------------------------------------------------------------------
#Generated by lconvert.py for sapt job

memory 50 GB

molecule  {
0 1
  C      -3.904190    0.464230    0.173390
  C      -3.131950    1.494990    0.704750
  C      -1.763680    1.547210    0.454380
  C      -1.172050    0.560880   -0.333670
  C      -1.933130   -0.472460   -0.870840
  C      -3.300910   -0.514670   -0.611530
  O      -4.016840   -1.554910   -1.157160
  H      -4.969020    0.422110    0.369330
  H      -3.604730    2.253400    1.313310
  H      -1.165630    2.346970    0.866930
  H      -0.110510    0.593760   -0.536420
  H      -1.488590   -1.240700   -1.488160
  H      -4.945500   -1.431020   -0.935450
--
0 1
  O      -2.043280   -3.678260   -3.285260
  H      -2.087010   -4.593210   -3.003220
  H      -2.723800   -3.243060   -2.760140
units angstrom
no_reorient
symmetry c1
}

set {
scf_type DF
basis aug-cc-pvtz
freeze_core True
guess SAD
}
energy('sapt2+')
--------------------------------------------------------------------------

  Memory set to  46.566 GiB by Python driver.

Scratch directory: /scratch/liuchw/

  //>>>>>>>>>>>>>>>>>>>>>>>>>>>>>>>>>>>//
  //              Dimer HF             //
  //<<<<<<<<<<<<<<<<<<<<<<<<<<<<<<<<<<<//


*** tstart() called on node43.bme.utexas.edu
*** at Thu Apr 23 23:49:59 2020

   => Loading Basis Set <=

    Name: AUG-CC-PVTZ
    Role: ORBITAL
    Keyword: BASIS
    atoms 1-6         entry C          line   239 file /home/liuchw/anaconda3/envs/psi4env/share/psi4/basis/aug-cc-pvtz.gbs 
    atoms 7, 14       entry O          line   331 file /home/liuchw/anaconda3/envs/psi4env/share/psi4/basis/aug-cc-pvtz.gbs 
    atoms 8-13, 15-16 entry H          line    40 file /home/liuchw/anaconda3/envs/psi4env/share/psi4/basis/aug-cc-pvtz.gbs 


         ---------------------------------------------------------
                                   SCF
               by Justin Turney, Rob Parrish, Andy Simmonett
                          and Daniel G. A. Smith
                              RHF Reference
                        8 Threads,  47683 MiB Core
         ---------------------------------------------------------

  ==> Geometry <==

    Molecular point group: c1
    Full point group: C1

    Geometry (in Angstrom), charge = 0, multiplicity = 1:

       Center              X                  Y                   Z               Mass       
    ------------   -----------------  -----------------  -----------------  -----------------
         C           -1.220965006613     0.925371053997     0.914833084436    12.000000000000
         C           -0.448725006613     1.956131053997     1.446193084436    12.000000000000
         C            0.919544993387     2.008351053997     1.195823084436    12.000000000000
         C            1.511174993387     1.022021053997     0.407773084436    12.000000000000
         C            0.750094993387    -0.011318946003    -0.129396915564    12.000000000000
         C           -0.617685006613    -0.053528946003     0.129913084436    12.000000000000
         O           -1.333615006613    -1.093768946003    -0.415716915564    15.994914619570
         H           -2.285795006613     0.883251053997     1.110773084436     1.007825032230
         H           -0.921505006613     2.714541053997     2.054753084436     1.007825032230
         H            1.517594993387     2.808111053997     1.608373084436     1.007825032230
         H            2.572714993387     1.054901053997     0.205023084436     1.007825032230
         H            1.194634993387    -0.779558946003    -0.746716915564     1.007825032230
         H           -2.262275006613    -0.969878946003    -0.194006915564     1.007825032230
         O            0.639944993387    -3.217118946003    -2.543816915564    15.994914619570
         H            0.596214993387    -4.132068946003    -2.261776915564     1.007825032230
         H           -0.040575006613    -2.781918946003    -2.018696915564     1.007825032230

  Running in c1 symmetry.

  Rotational constants: A =      0.12836  B =      0.03240  C =      0.02592 [cm^-1]
  Rotational constants: A =   3848.07685  B =    971.42531  C =    777.18039 [MHz]
  Nuclear repulsion =  335.562601567291154

  Charge       = 0
  Multiplicity = 1
  Electrons    = 60
  Nalpha       = 30
  Nbeta        = 30

  ==> Algorithm <==

  SCF Algorithm Type is DF.
  DIIS enabled.
  MOM disabled.
  Fractional occupation disabled.
  Guess Type is SAD.
  Energy threshold   = 1.00e-08
  Density threshold  = 1.00e-08
  Integral threshold = 0.00e+00

  ==> Primary Basis <==

  Basis Set: AUG-CC-PVTZ
    Blend: AUG-CC-PVTZ
    Number of shells: 184
    Number of basis function: 552
    Number of Cartesian functions: 640
    Spherical Harmonics?: true
    Max angular momentum: 3

   => Loading Basis Set <=

    Name: (AUG-CC-PVTZ AUX)
    Role: JKFIT
    Keyword: DF_BASIS_SCF
    atoms 1-6         entry C          line   162 file /home/liuchw/anaconda3/envs/psi4env/share/psi4/basis/aug-cc-pvtz-jkfit.gbs 
    atoms 7, 14       entry O          line   286 file /home/liuchw/anaconda3/envs/psi4env/share/psi4/basis/aug-cc-pvtz-jkfit.gbs 
    atoms 8-13, 15-16 entry H          line    70 file /home/liuchw/anaconda3/envs/psi4env/share/psi4/basis/aug-cc-pvtz-jkfit.gbs 

  ==> Pre-Iterations <==

   -------------------------------------------------------
    Irrep   Nso     Nmo     Nalpha   Nbeta   Ndocc  Nsocc
   -------------------------------------------------------
     A        552     552       0       0       0       0
   -------------------------------------------------------
    Total     552     552      30      30      30       0
   -------------------------------------------------------

  ==> Integral Setup <==

  ==> DiskDFJK: Density-Fitted J/K Matrices <==

    J tasked:                  Yes
    K tasked:                  Yes
    wK tasked:                  No
    OpenMP threads:              8
    Integrals threads:           8
    Memory [MiB]:            35762
    Algorithm:                Core
    Integral Cache:           SAVE
    Schwarz Cutoff:          1E-12
    Fitting Condition:       1E-10

   => Auxiliary Basis Set <=

  Basis Set: (AUG-CC-PVTZ AUX)
    Blend: AUG-CC-PVTZ-JKFIT
    Number of shells: 352
    Number of basis function: 1200
    Number of Cartesian functions: 1488
    Spherical Harmonics?: true
    Max angular momentum: 4

  Minimum eigenvalue in the overlap matrix is 7.1270997539E-07.
  Using Symmetric Orthogonalization.

  SCF Guess: Superposition of Atomic Densities via on-the-fly atomic UHF.

  ==> Iterations <==

                           Total Energy        Delta E     RMS |[F,P]|

   @DF-RHF iter SAD:  -380.56160350612532   -3.80562e+02   0.00000e+00 
   @DF-RHF iter   1:  -381.44354655792750   -8.81943e-01   1.38908e-03 DIIS
   @DF-RHF iter   2:  -381.66392601704933   -2.20379e-01   7.76878e-04 DIIS
   @DF-RHF iter   3:  -381.73285329770852   -6.89273e-02   1.05866e-04 DIIS
   @DF-RHF iter   4:  -381.73530219805048   -2.44890e-03   4.02184e-05 DIIS
   @DF-RHF iter   5:  -381.73555572012248   -2.53522e-04   8.21507e-06 DIIS
   @DF-RHF iter   6:  -381.73557448457484   -1.87645e-05   2.90309e-06 DIIS
   @DF-RHF iter   7:  -381.73557676883973   -2.28426e-06   1.13313e-06 DIIS
   @DF-RHF iter   8:  -381.73557715995554   -3.91116e-07   3.66630e-07 DIIS
   @DF-RHF iter   9:  -381.73557720969711   -4.97416e-08   8.63275e-08 DIIS
   @DF-RHF iter  10:  -381.73557721316899   -3.47188e-09   3.64899e-08 DIIS
   @DF-RHF iter  11:  -381.73557721408747   -9.18476e-10   1.69705e-08 DIIS
   @DF-RHF iter  12:  -381.73557721436509   -2.77623e-10   8.14254e-09 DIIS
  Energy and wave function converged.


  ==> Post-Iterations <==

    Orbital Energies [Eh]
    ---------------------

    Doubly Occupied:                                                      

       1A    -20.600943     2A    -20.556418     3A    -11.308183  
       4A    -11.246102     5A    -11.243401     6A    -11.238920  
       7A    -11.231791     8A    -11.230924     9A     -1.412805  
      10A     -1.341102    11A     -1.152527    12A     -1.024932  
      13A     -1.010217    14A     -0.852099    15A     -0.827693  
      16A     -0.738517    17A     -0.703853    18A     -0.691175  
      19A     -0.657951    20A     -0.614371    21A     -0.598445  
      22A     -0.596374    23A     -0.579769    24A     -0.572808  
      25A     -0.520729    26A     -0.502142    27A     -0.497248  
      28A     -0.488998    29A     -0.346391    30A     -0.321816  

    Virtual:                                                              

      31A      0.023218    32A      0.032024    33A      0.034641  
      34A      0.043603    35A      0.048629    36A      0.061405  
      37A      0.067608    38A      0.079969    39A      0.094149  
      40A      0.098910    41A      0.102612    42A      0.105937  
      43A      0.106232    44A      0.111241    45A      0.116653  
      46A      0.120811    47A      0.124408    48A      0.129850  
      49A      0.134744    50A      0.137152    51A      0.142111  
      52A      0.146568    53A      0.155941    54A      0.157132  
      55A      0.160214    56A      0.162946    57A      0.165308  
      58A      0.173086    59A      0.184127    60A      0.200079  
      61A      0.205699    62A      0.210363    63A      0.220650  
      64A      0.225768    65A      0.231159    66A      0.240794  
      67A      0.253744    68A      0.255600    69A      0.258507  
      70A      0.269933    71A      0.276650    72A      0.280166  
      73A      0.283026    74A      0.288394    75A      0.293976  
      76A      0.305924    77A      0.311000    78A      0.315603  
      79A      0.318689    80A      0.321046    81A      0.324281  
      82A      0.326197    83A      0.336400    84A      0.346218  
      85A      0.349444    86A      0.354737    87A      0.361832  
      88A      0.369042    89A      0.377268    90A      0.381430  
      91A      0.386329    92A      0.400619    93A      0.409149  
      94A      0.415257    95A      0.423097    96A      0.425326  
      97A      0.434851    98A      0.438748    99A      0.447340  
     100A      0.451562   101A      0.453043   102A      0.458294  
     103A      0.460951   104A      0.463835   105A      0.470424  
     106A      0.474909   107A      0.483046   108A      0.485959  
     109A      0.489230   110A      0.495237   111A      0.496960  
     112A      0.502394   113A      0.510715   114A      0.515109  
     115A      0.520649   116A      0.527412   117A      0.532200  
     118A      0.537917   119A      0.544434   120A      0.549487  
     121A      0.571307   122A      0.575890   123A      0.594358  
     124A      0.609504   125A      0.613631   126A      0.623154  
     127A      0.629570   128A      0.632598   129A      0.643217  
     130A      0.649331   131A      0.653010   132A      0.662227  
     133A      0.674043   134A      0.685009   135A      0.690719  
     136A      0.700584   137A      0.711500   138A      0.719738  
     139A      0.721937   140A      0.730727   141A      0.741519  
     142A      0.749129   143A      0.751302   144A      0.756533  
     145A      0.758169   146A      0.769856   147A      0.778503  
     148A      0.786678   149A      0.798583   150A      0.809288  
     151A      0.820876   152A      0.827647   153A      0.844146  
     154A      0.847584   155A      0.850818   156A      0.854757  
     157A      0.861947   158A      0.866250   159A      0.872913  
     160A      0.880714   161A      0.884840   162A      0.891853  
     163A      0.893773   164A      0.897230   165A      0.903787  
     166A      0.907826   167A      0.911868   168A      0.928749  
     169A      0.938936   170A      0.941773   171A      0.950972  
     172A      0.956200   173A      0.960342   174A      0.969688  
     175A      0.972103   176A      0.978564   177A      0.984990  
     178A      0.988996   179A      0.995228   180A      0.999185  
     181A      1.010667   182A      1.024068   183A      1.026354  
     184A      1.035158   185A      1.039235   186A      1.041611  
     187A      1.058010   188A      1.059254   189A      1.062930  
     190A      1.066489   191A      1.072158   192A      1.078395  
     193A      1.084094   194A      1.087783   195A      1.093025  
     196A      1.098355   197A      1.105886   198A      1.114307  
     199A      1.121109   200A      1.126321   201A      1.137741  
     202A      1.148944   203A      1.158453   204A      1.161273  
     205A      1.174537   206A      1.177766   207A      1.182513  
     208A      1.187514   209A      1.195784   210A      1.208468  
     211A      1.214002   212A      1.223727   213A      1.229175  
     214A      1.237859   215A      1.250755   216A      1.257873  
     217A      1.273152   218A      1.282475   219A      1.285734  
     220A      1.294751   221A      1.306064   222A      1.309604  
     223A      1.317149   224A      1.338478   225A      1.344305  
     226A      1.354507   227A      1.361795   228A      1.373253  
     229A      1.384529   230A      1.389666   231A      1.396835  
     232A      1.408244   233A      1.421114   234A      1.428527  
     235A      1.444253   236A      1.460664   237A      1.467037  
     238A      1.479651   239A      1.500387   240A      1.505800  
     241A      1.512031   242A      1.521811   243A      1.533484  
     244A      1.548974   245A      1.570411   246A      1.575737  
     247A      1.591721   248A      1.607365   249A      1.611767  
     250A      1.628833   251A      1.652584   252A      1.667089  
     253A      1.680553   254A      1.692914   255A      1.697255  
     256A      1.705186   257A      1.718843   258A      1.742552  
     259A      1.746681   260A      1.760004   261A      1.777457  
     262A      1.788491   263A      1.808422   264A      1.810614  
     265A      1.825999   266A      1.830643   267A      1.840068  
     268A      1.845748   269A      1.854221   270A      1.862408  
     271A      1.872533   272A      1.890279   273A      1.895298  
     274A      1.910137   275A      1.913180   276A      1.931755  
     277A      1.936958   278A      1.966207   279A      1.974374  
     280A      1.983019   281A      1.995202   282A      2.002609  
     283A      2.020556   284A      2.030114   285A      2.043885  
     286A      2.049717   287A      2.056398   288A      2.061018  
     289A      2.073213   290A      2.078697   291A      2.094594  
     292A      2.112358   293A      2.120205   294A      2.134205  
     295A      2.141704   296A      2.151304   297A      2.165247  
     298A      2.203730   299A      2.232344   300A      2.257979  
     301A      2.267843   302A      2.295053   303A      2.316196  
     304A      2.325144   305A      2.348103   306A      2.352985  
     307A      2.366293   308A      2.375253   309A      2.379336  
     310A      2.392020   311A      2.413060   312A      2.414144  
     313A      2.432901   314A      2.451748   315A      2.466149  
     316A      2.490714   317A      2.494454   318A      2.498239  
     319A      2.514663   320A      2.526640   321A      2.553122  
     322A      2.569979   323A      2.587236   324A      2.598880  
     325A      2.610071   326A      2.622385   327A      2.641024  
     328A      2.658316   329A      2.676747   330A      2.716621  
     331A      2.739399   332A      2.752854   333A      2.760688  
     334A      2.766494   335A      2.787054   336A      2.816259  
     337A      2.836822   338A      2.853475   339A      2.871865  
     340A      2.877056   341A      2.900210   342A      2.922852  
     343A      2.937411   344A      2.976121   345A      2.996937  
     346A      3.015744   347A      3.022169   348A      3.092590  
     349A      3.154428   350A      3.158563   351A      3.194290  
     352A      3.211779   353A      3.218306   354A      3.253138  
     355A      3.259741   356A      3.283424   357A      3.316150  
     358A      3.328056   359A      3.355915   360A      3.359459  
     361A      3.386716   362A      3.387977   363A      3.408494  
     364A      3.416079   365A      3.424814   366A      3.441264  
     367A      3.451985   368A      3.480992   369A      3.509812  
     370A      3.528585   371A      3.534859   372A      3.542774  
     373A      3.553178   374A      3.563851   375A      3.565331  
     376A      3.610957   377A      3.612993   378A      3.635642  
     379A      3.656574   380A      3.673109   381A      3.680967  
     382A      3.705957   383A      3.720934   384A      3.737848  
     385A      3.753268   386A      3.789042   387A      3.821248  
     388A      3.836708   389A      3.840269   390A      3.845142  
     391A      3.851695   392A      3.861745   393A      3.866715  
     394A      3.892326   395A      3.897337   396A      3.913034  
     397A      3.927006   398A      3.938573   399A      3.969339  
     400A      3.975340   401A      3.980401   402A      4.014257  
     403A      4.027522   404A      4.045094   405A      4.071464  
     406A      4.088270   407A      4.102551   408A      4.113967  
     409A      4.120332   410A      4.124497   411A      4.129305  
     412A      4.156253   413A      4.181886   414A      4.210465  
     415A      4.216392   416A      4.237112   417A      4.249677  
     418A      4.261830   419A      4.267075   420A      4.276279  
     421A      4.282122   422A      4.294320   423A      4.314841  
     424A      4.320684   425A      4.340819   426A      4.368532  
     427A      4.377174   428A      4.382182   429A      4.391428  
     430A      4.402300   431A      4.413279   432A      4.419916  
     433A      4.430348   434A      4.435377   435A      4.441996  
     436A      4.446871   437A      4.454636   438A      4.462512  
     439A      4.473238   440A      4.480716   441A      4.519935  
     442A      4.531054   443A      4.540219   444A      4.572605  
     445A      4.579425   446A      4.611654   447A      4.624900  
     448A      4.677311   449A      4.705079   450A      4.719779  
     451A      4.741575   452A      4.757698   453A      4.763505  
     454A      4.782756   455A      4.786394   456A      4.826700  
     457A      4.869552   458A      4.889968   459A      4.933813  
     460A      4.937837   461A      4.947693   462A      4.966601  
     463A      4.972612   464A      5.025827   465A      5.051184  
     466A      5.066195   467A      5.076159   468A      5.093768  
     469A      5.107943   470A      5.125193   471A      5.146523  
     472A      5.149259   473A      5.153471   474A      5.174780  
     475A      5.179036   476A      5.187959   477A      5.214235  
     478A      5.229437   479A      5.264686   480A      5.289643  
     481A      5.300925   482A      5.312141   483A      5.333337  
     484A      5.339419   485A      5.342742   486A      5.358383  
     487A      5.405267   488A      5.431619   489A      5.437478  
     490A      5.449788   491A      5.461518   492A      5.515069  
     493A      5.553224   494A      5.589469   495A      5.629146  
     496A      5.700849   497A      5.738888   498A      5.769436  
     499A      5.782353   500A      5.809544   501A      5.854727  
     502A      5.901820   503A      6.051803   504A      6.106144  
     505A      6.155294   506A      6.226404   507A      6.240465  
     508A      6.266276   509A      6.301550   510A      6.345858  
     511A      6.414248   512A      6.464578   513A      6.566717  
     514A      6.591819   515A      6.698093   516A      6.757665  
     517A      6.798167   518A      6.881321   519A      6.891248  
     520A      6.957848   521A      6.960659   522A      6.983249  
     523A      7.057403   524A      7.097025   525A      7.174118  
     526A      7.280043   527A      7.283684   528A      7.322785  
     529A      7.337008   530A      7.379409   531A      7.389436  
     532A      7.419248   533A      7.465902   534A      7.476840  
     535A      7.650858   536A      7.675936   537A      7.720840  
     538A      7.810062   539A      7.966972   540A      7.998885  
     541A      8.013335   542A      8.371364   543A      8.653054  
     544A      8.873121   545A     16.138961   546A     16.153876  
     547A     16.245093   548A     16.622966   549A     18.104706  
     550A     19.433568   551A     19.600310   552A     19.849578  

    Final Occupation by Irrep:
              A 
    DOCC [    30 ]

  @DF-RHF Final Energy:  -381.73557721436509

   => Energetics <=

    Nuclear Repulsion Energy =            335.5626015672911535
    One-Electron Energy =               -1185.1790636071420977
    Two-Electron Energy =                 467.8808848254858503
    Total Energy =                       -381.7355772143650938

Computation Completed


Properties will be evaluated at   0.000000,   0.000000,   0.000000 [a0]

Properties computed using the SCF density matrix

  Nuclear Dipole Moment: [e a0]
     X:     0.3445      Y:    -1.1481      Z:    -0.2413

  Electronic Dipole Moment: [e a0]
     X:    -1.1587      Y:     1.2314      Z:     1.0627

  Dipole Moment: [e a0]
     X:    -0.8142      Y:     0.0833      Z:     0.8214     Total:     1.1595

  Dipole Moment: [D]
     X:    -2.0695      Y:     0.2116      Z:     2.0877     Total:     2.9472


*** tstop() called on node43.bme.utexas.edu at Thu Apr 23 23:50:26 2020
Module time:
	user time   =     191.15 seconds =       3.19 minutes
	system time =       4.11 seconds =       0.07 minutes
	total time  =         27 seconds =       0.45 minutes
Total time:
	user time   =     191.15 seconds =       3.19 minutes
	system time =       4.11 seconds =       0.07 minutes
	total time  =         27 seconds =       0.45 minutes

  //>>>>>>>>>>>>>>>>>>>>>>>>>>>>>>>>>>>//
  //            Monomer A HF           //
  //<<<<<<<<<<<<<<<<<<<<<<<<<<<<<<<<<<<//


*** tstart() called on node43.bme.utexas.edu
*** at Thu Apr 23 23:50:26 2020

   => Loading Basis Set <=

    Name: AUG-CC-PVTZ
    Role: ORBITAL
    Keyword: BASIS
    atoms 1-6         entry C          line   239 file /home/liuchw/anaconda3/envs/psi4env/share/psi4/basis/aug-cc-pvtz.gbs 
    atoms 7, 14       entry O          line   331 file /home/liuchw/anaconda3/envs/psi4env/share/psi4/basis/aug-cc-pvtz.gbs 
    atoms 8-13, 15-16 entry H          line    40 file /home/liuchw/anaconda3/envs/psi4env/share/psi4/basis/aug-cc-pvtz.gbs 


         ---------------------------------------------------------
                                   SCF
               by Justin Turney, Rob Parrish, Andy Simmonett
                          and Daniel G. A. Smith
                              RHF Reference
                        8 Threads,  47683 MiB Core
         ---------------------------------------------------------

  ==> Geometry <==

    Molecular point group: c1
    Full point group: C1

    Geometry (in Angstrom), charge = 0, multiplicity = 1:

       Center              X                  Y                   Z               Mass       
    ------------   -----------------  -----------------  -----------------  -----------------
         C           -1.220965006613     0.925371053997     0.914833084436    12.000000000000
         C           -0.448725006613     1.956131053997     1.446193084436    12.000000000000
         C            0.919544993387     2.008351053997     1.195823084436    12.000000000000
         C            1.511174993387     1.022021053997     0.407773084436    12.000000000000
         C            0.750094993387    -0.011318946003    -0.129396915564    12.000000000000
         C           -0.617685006613    -0.053528946003     0.129913084436    12.000000000000
         O           -1.333615006613    -1.093768946003    -0.415716915564    15.994914619570
         H           -2.285795006613     0.883251053997     1.110773084436     1.007825032230
         H           -0.921505006613     2.714541053997     2.054753084436     1.007825032230
         H            1.517594993387     2.808111053997     1.608373084436     1.007825032230
         H            2.572714993387     1.054901053997     0.205023084436     1.007825032230
         H            1.194634993387    -0.779558946003    -0.746716915564     1.007825032230
         H           -2.262275006613    -0.969878946003    -0.194006915564     1.007825032230
      Gh(O)           0.639944993387    -3.217118946003    -2.543816915564    15.994914619570
      Gh(H)           0.596214993387    -4.132068946003    -2.261776915564     1.007825032230
      Gh(H)          -0.040575006613    -2.781918946003    -2.018696915564     1.007825032230

  Running in c1 symmetry.

  Rotational constants: A =      0.12836  B =      0.03240  C =      0.02592 [cm^-1]
  Rotational constants: A =   3848.07685  B =    971.42531  C =    777.18039 [MHz]
  Nuclear repulsion =  271.381136320509427

  Charge       = 0
  Multiplicity = 1
  Electrons    = 50
  Nalpha       = 25
  Nbeta        = 25

  ==> Algorithm <==

  SCF Algorithm Type is DF.
  DIIS enabled.
  MOM disabled.
  Fractional occupation disabled.
  Guess Type is SAD.
  Energy threshold   = 1.00e-08
  Density threshold  = 1.00e-08
  Integral threshold = 0.00e+00

  ==> Primary Basis <==

  Basis Set: AUG-CC-PVTZ
    Blend: AUG-CC-PVTZ
    Number of shells: 184
    Number of basis function: 552
    Number of Cartesian functions: 640
    Spherical Harmonics?: true
    Max angular momentum: 3

   => Loading Basis Set <=

    Name: (AUG-CC-PVTZ AUX)
    Role: JKFIT
    Keyword: DF_BASIS_SCF
    atoms 1-6         entry C          line   162 file /home/liuchw/anaconda3/envs/psi4env/share/psi4/basis/aug-cc-pvtz-jkfit.gbs 
    atoms 7, 14       entry O          line   286 file /home/liuchw/anaconda3/envs/psi4env/share/psi4/basis/aug-cc-pvtz-jkfit.gbs 
    atoms 8-13, 15-16 entry H          line    70 file /home/liuchw/anaconda3/envs/psi4env/share/psi4/basis/aug-cc-pvtz-jkfit.gbs 

  ==> Pre-Iterations <==

   -------------------------------------------------------
    Irrep   Nso     Nmo     Nalpha   Nbeta   Ndocc  Nsocc
   -------------------------------------------------------
     A        552     552       0       0       0       0
   -------------------------------------------------------
    Total     552     552      25      25      25       0
   -------------------------------------------------------

  ==> Integral Setup <==

  ==> DiskDFJK: Density-Fitted J/K Matrices <==

    J tasked:                  Yes
    K tasked:                  Yes
    wK tasked:                  No
    OpenMP threads:              8
    Integrals threads:           8
    Memory [MiB]:            35762
    Algorithm:                Core
    Integral Cache:           LOAD
    Schwarz Cutoff:          1E-12
    Fitting Condition:       1E-10

   => Auxiliary Basis Set <=

  Basis Set: (AUG-CC-PVTZ AUX)
    Blend: AUG-CC-PVTZ-JKFIT
    Number of shells: 352
    Number of basis function: 1200
    Number of Cartesian functions: 1488
    Spherical Harmonics?: true
    Max angular momentum: 4

  Minimum eigenvalue in the overlap matrix is 7.1270997539E-07.
  Using Symmetric Orthogonalization.

  SCF Guess: Superposition of Atomic Densities via on-the-fly atomic UHF.

  ==> Iterations <==

                           Total Energy        Delta E     RMS |[F,P]|

   @DF-RHF iter SAD:  -305.05411564849834   -3.05054e+02   0.00000e+00 
   @DF-RHF iter   1:  -305.46074143574356   -4.06626e-01   1.11239e-03 DIIS
   @DF-RHF iter   2:  -305.63053815062034   -1.69797e-01   5.35102e-04 DIIS
   @DF-RHF iter   3:  -305.66982307438639   -3.92849e-02   8.69988e-05 DIIS
   @DF-RHF iter   4:  -305.67171698257738   -1.89391e-03   2.81827e-05 DIIS
   @DF-RHF iter   5:  -305.67185671147655   -1.39729e-04   8.16995e-06 DIIS
   @DF-RHF iter   6:  -305.67187385565990   -1.71442e-05   2.36726e-06 DIIS
   @DF-RHF iter   7:  -305.67187574491948   -1.88926e-06   7.68800e-07 DIIS
   @DF-RHF iter   8:  -305.67187596099075   -2.16071e-07   2.61870e-07 DIIS
   @DF-RHF iter   9:  -305.67187598964972   -2.86590e-08   7.82830e-08 DIIS
   @DF-RHF iter  10:  -305.67187599267834   -3.02862e-09   3.85347e-08 DIIS
   @DF-RHF iter  11:  -305.67187599360898   -9.30640e-10   1.84445e-08 DIIS
   @DF-RHF iter  12:  -305.67187599395470   -3.45722e-10   7.46511e-09 DIIS
  Energy and wave function converged.


  ==> Post-Iterations <==

    Orbital Energies [Eh]
    ---------------------

    Doubly Occupied:                                                      

       1A    -20.591517     2A    -11.304475     3A    -11.243811  
       4A    -11.241758     5A    -11.235458     6A    -11.229785  
       7A    -11.228467     8A     -1.403631     9A     -1.149787  
      10A     -1.022514    11A     -1.006867    12A     -0.848338  
      13A     -0.824160    14A     -0.733274    15A     -0.687428  
      16A     -0.653392    17A     -0.611631    18A     -0.594088  
      19A     -0.590110    20A     -0.570451    21A     -0.517702  
      22A     -0.497228    23A     -0.485190    24A     -0.344375  
      25A     -0.317999  

    Virtual:                                                              

      26A      0.025839    27A      0.032212    28A      0.033329  
      29A      0.044098    30A      0.048481    31A      0.061800  
      32A      0.066322    33A      0.074081    34A      0.095759  
      35A      0.098137    36A      0.100997    37A      0.106809  
      38A      0.107956    39A      0.110757    40A      0.116879  
      41A      0.122607    42A      0.125104    43A      0.126847  
      44A      0.133346    45A      0.135498    46A      0.137076  
      47A      0.142337    48A      0.146062    49A      0.158047  
      50A      0.161746    51A      0.163908    52A      0.164415  
      53A      0.173413    54A      0.181219    55A      0.185926  
      56A      0.195854    57A      0.210537    58A      0.220422  
      59A      0.222938    60A      0.230395    61A      0.242930  
      62A      0.245686    63A      0.255746    64A      0.256809  
      65A      0.270972    66A      0.276785    67A      0.285010  
      68A      0.287371    69A      0.294907    70A      0.301409  
      71A      0.303922    72A      0.312398    73A      0.315585  
      74A      0.318440    75A      0.322317    76A      0.324104  
      77A      0.327295    78A      0.337361    79A      0.347907  
      80A      0.352864    81A      0.356529    82A      0.360599  
      83A      0.367108    84A      0.376152    85A      0.379252  
      86A      0.387266    87A      0.394301    88A      0.403434  
      89A      0.408521    90A      0.421881    91A      0.429805  
      92A      0.435361    93A      0.439231    94A      0.442163  
      95A      0.451623    96A      0.454511    97A      0.459149  
      98A      0.461080    99A      0.466851   100A      0.472856  
     101A      0.476013   102A      0.485529   103A      0.487222  
     104A      0.491033   105A      0.498043   106A      0.501283  
     107A      0.507417   108A      0.511222   109A      0.518372  
     110A      0.521507   111A      0.528229   112A      0.532319  
     113A      0.539596   114A      0.544452   115A      0.547353  
     116A      0.556960   117A      0.568424   118A      0.578820  
     119A      0.599966   120A      0.611788   121A      0.614298  
     122A      0.631940   123A      0.635174   124A      0.643589  
     125A      0.650746   126A      0.652933   127A      0.660389  
     128A      0.673882   129A      0.687257   130A      0.689964  
     131A      0.701005   132A      0.703210   133A      0.725028  
     134A      0.730093   135A      0.736733   136A      0.742706  
     137A      0.752243   138A      0.760550   139A      0.768656  
     140A      0.776454   141A      0.781145   142A      0.797051  
     143A      0.804793   144A      0.807568   145A      0.829004  
     146A      0.833656   147A      0.843221   148A      0.843958  
     149A      0.853894   150A      0.857670   151A      0.862211  
     152A      0.868355   153A      0.871102   154A      0.876610  
     155A      0.881797   156A      0.888094   157A      0.893503  
     158A      0.895000   159A      0.897536   160A      0.904216  
     161A      0.907242   162A      0.913683   163A      0.925168  
     164A      0.930621   165A      0.936205   166A      0.946493  
     167A      0.952245   168A      0.956662   169A      0.963338  
     170A      0.972778   171A      0.982305   172A      0.985332  
     173A      0.990657   174A      0.995260   175A      0.998153  
     176A      1.004552   177A      1.016916   178A      1.031490  
     179A      1.035434   180A      1.042035   181A      1.050854  
     182A      1.058880   183A      1.060056   184A      1.064360  
     185A      1.069579   186A      1.079532   187A      1.084781  
     188A      1.087223   189A      1.095574   190A      1.100084  
     191A      1.104381   192A      1.112828   193A      1.113345  
     194A      1.125228   195A      1.130732   196A      1.137722  
     197A      1.151477   198A      1.159583   199A      1.168965  
     200A      1.177916   201A      1.182113   202A      1.183431  
     203A      1.192951   204A      1.198787   205A      1.211380  
     206A      1.213310   207A      1.218877   208A      1.221383  
     209A      1.239781   210A      1.249324   211A      1.263457  
     212A      1.274704   213A      1.286222   214A      1.295141  
     215A      1.303815   216A      1.309779   217A      1.314780  
     218A      1.325600   219A      1.336067   220A      1.342019  
     221A      1.362463   222A      1.377266   223A      1.380382  
     224A      1.390826   225A      1.394975   226A      1.398277  
     227A      1.405059   228A      1.418602   229A      1.433485  
     230A      1.438361   231A      1.469763   232A      1.483566  
     233A      1.491098   234A      1.506483   235A      1.512868  
     236A      1.519906   237A      1.525895   238A      1.531926  
     239A      1.548945   240A      1.580893   241A      1.587839  
     242A      1.605869   243A      1.633246   244A      1.652593  
     245A      1.668157   246A      1.680076   247A      1.689323  
     248A      1.699450   249A      1.703373   250A      1.720325  
     251A      1.735269   252A      1.743473   253A      1.755161  
     254A      1.758118   255A      1.770177   256A      1.786543  
     257A      1.799579   258A      1.809197   259A      1.817312  
     260A      1.827148   261A      1.836051   262A      1.844924  
     263A      1.848293   264A      1.853792   265A      1.863678  
     266A      1.874254   267A      1.875972   268A      1.893090  
     269A      1.902772   270A      1.911425   271A      1.916008  
     272A      1.928088   273A      1.955656   274A      1.968909  
     275A      1.984328   276A      1.985853   277A      1.998390  
     278A      2.007756   279A      2.033845   280A      2.037595  
     281A      2.048438   282A      2.052374   283A      2.062492  
     284A      2.070257   285A      2.081514   286A      2.089618  
     287A      2.108779   288A      2.116660   289A      2.123963  
     290A      2.138190   291A      2.156569   292A      2.168726  
     293A      2.198998   294A      2.211031   295A      2.235036  
     296A      2.264691   297A      2.277325   298A      2.298255  
     299A      2.323849   300A      2.331778   301A      2.368155  
     302A      2.375012   303A      2.381552   304A      2.397380  
     305A      2.411811   306A      2.434625   307A      2.443501  
     308A      2.465938   309A      2.478486   310A      2.496615  
     311A      2.510858   312A      2.543568   313A      2.562534  
     314A      2.563665   315A      2.576757   316A      2.590519  
     317A      2.597989   318A      2.608901   319A      2.628889  
     320A      2.636437   321A      2.648186   322A      2.658235  
     323A      2.671360   324A      2.718571   325A      2.731302  
     326A      2.735314   327A      2.767083   328A      2.784912  
     329A      2.794437   330A      2.827931   331A      2.835143  
     332A      2.868945   333A      2.891884   334A      2.920925  
     335A      2.925550   336A      2.953423   337A      2.978117  
     338A      3.012406   339A      3.028000   340A      3.095449  
     341A      3.145499   342A      3.157285   343A      3.193245  
     344A      3.202930   345A      3.213072   346A      3.218437  
     347A      3.236486   348A      3.253466   349A      3.257747  
     350A      3.288714   351A      3.301984   352A      3.318697  
     353A      3.326654   354A      3.358523   355A      3.363848  
     356A      3.384696   357A      3.390700   358A      3.395197  
     359A      3.409988   360A      3.423552   361A      3.426674  
     362A      3.446463   363A      3.455276   364A      3.463976  
     365A      3.492925   366A      3.531122   367A      3.538762  
     368A      3.539598   369A      3.545493   370A      3.555671  
     371A      3.567832   372A      3.572045   373A      3.599293  
     374A      3.615082   375A      3.621741   376A      3.652967  
     377A      3.662574   378A      3.681241   379A      3.686094  
     380A      3.712449   381A      3.732833   382A      3.744169  
     383A      3.756380   384A      3.816444   385A      3.823419  
     386A      3.842129   387A      3.848319   388A      3.853455  
     389A      3.859527   390A      3.866876   391A      3.897092  
     392A      3.907500   393A      3.915655   394A      3.931501  
     395A      3.946644   396A      3.963435   397A      3.978568  
     398A      3.982755   399A      4.019491   400A      4.028887  
     401A      4.050564   402A      4.075424   403A      4.099188  
     404A      4.117709   405A      4.120063   406A      4.127641  
     407A      4.130021   408A      4.162465   409A      4.184354  
     410A      4.218291   411A      4.234986   412A      4.244137  
     413A      4.267623   414A      4.271267   415A      4.285227  
     416A      4.314878   417A      4.321831   418A      4.343237  
     419A      4.371342   420A      4.377116   421A      4.393560  
     422A      4.403559   423A      4.412610   424A      4.418659  
     425A      4.430555   426A      4.442925   427A      4.448385  
     428A      4.459210   429A      4.467272   430A      4.476239  
     431A      4.496913   432A      4.516121   433A      4.528941  
     434A      4.535612   435A      4.553015   436A      4.576859  
     437A      4.604291   438A      4.613325   439A      4.664167  
     440A      4.678246   441A      4.700295   442A      4.716483  
     443A      4.723202   444A      4.745857   445A      4.756802  
     446A      4.764854   447A      4.775846   448A      4.785671  
     449A      4.792630   450A      4.874366   451A      4.894006  
     452A      4.911759   453A      4.931795   454A      4.936758  
     455A      4.940383   456A      4.961918   457A      4.971528  
     458A      4.977209   459A      5.021171   460A      5.058930  
     461A      5.069614   462A      5.078712   463A      5.096680  
     464A      5.110301   465A      5.133616   466A      5.149866  
     467A      5.152294   468A      5.156654   469A      5.177007  
     470A      5.191856   471A      5.231262   472A      5.263712  
     473A      5.270007   474A      5.292974   475A      5.303550  
     476A      5.332196   477A      5.339388   478A      5.345692  
     479A      5.356776   480A      5.410316   481A      5.438843  
     482A      5.453565   483A      5.464765   484A      5.517179  
     485A      5.576520   486A      5.590131   487A      5.628848  
     488A      5.666054   489A      5.666467   490A      5.706804  
     491A      5.772625   492A      5.783599   493A      5.811755  
     494A      5.856478   495A      5.899244   496A      5.931159  
     497A      6.057990   498A      6.102275   499A      6.156429  
     500A      6.192753   501A      6.238540   502A      6.245529  
     503A      6.305949   504A      6.350570   505A      6.419928  
     506A      6.457439   507A      6.474432   508A      6.593623  
     509A      6.682090   510A      6.713702   511A      6.770794  
     512A      6.881179   513A      6.905726   514A      6.965705  
     515A      6.993550   516A      7.057234   517A      7.100256  
     518A      7.129958   519A      7.289649   520A      7.294411  
     521A      7.425517   522A      7.475441   523A      7.660396  
     524A      7.697711   525A      7.729241   526A      7.813034  
     527A      7.851964   528A      8.020289   529A      8.075284  
     530A      8.191376   531A      8.328666   532A      8.378761  
     533A      8.660119   534A      8.817056   535A      8.956228  
     536A      9.706841   537A      9.912441   538A     10.071582  
     539A     10.280364   540A     11.257828   541A     11.729564  
     542A     12.167655   543A     13.626473   544A     13.961153  
     545A     16.142199   546A     16.159156   547A     16.628764  
     548A     18.108833   549A     19.435587   550A     19.602562  
     551A     19.852245   552A     65.653737  

    Final Occupation by Irrep:
              A 
    DOCC [    25 ]

  @DF-RHF Final Energy:  -305.67187599395470

   => Energetics <=

    Nuclear Repulsion Energy =            271.3811363205094267
    One-Electron Energy =                -952.2391488258807613
    Two-Electron Energy =                 375.1861365114166347
    Total Energy =                       -305.6718759939546999

Computation Completed


Properties will be evaluated at   0.000000,   0.000000,   0.000000 [a0]

Properties computed using the SCF density matrix

  Nuclear Dipole Moment: [e a0]
     X:   -10.3801      Y:    60.5532      Z:    46.3045

  Electronic Dipole Moment: [e a0]
     X:    10.0129      Y:   -60.2429      Z:   -46.0566

  Dipole Moment: [e a0]
     X:    -0.3672      Y:     0.3103      Z:     0.2479     Total:     0.5409

  Dipole Moment: [D]
     X:    -0.9333      Y:     0.7887      Z:     0.6302     Total:     1.3748


*** tstop() called on node43.bme.utexas.edu at Thu Apr 23 23:50:44 2020
Module time:
	user time   =     124.91 seconds =       2.08 minutes
	system time =       2.38 seconds =       0.04 minutes
	total time  =         18 seconds =       0.30 minutes
Total time:
	user time   =     316.12 seconds =       5.27 minutes
	system time =       6.49 seconds =       0.11 minutes
	total time  =         45 seconds =       0.75 minutes

  //>>>>>>>>>>>>>>>>>>>>>>>>>>>>>>>>>>>//
  //            Monomer B HF           //
  //<<<<<<<<<<<<<<<<<<<<<<<<<<<<<<<<<<<//


*** tstart() called on node43.bme.utexas.edu
*** at Thu Apr 23 23:50:44 2020

   => Loading Basis Set <=

    Name: AUG-CC-PVTZ
    Role: ORBITAL
    Keyword: BASIS
    atoms 1-6         entry C          line   239 file /home/liuchw/anaconda3/envs/psi4env/share/psi4/basis/aug-cc-pvtz.gbs 
    atoms 7, 14       entry O          line   331 file /home/liuchw/anaconda3/envs/psi4env/share/psi4/basis/aug-cc-pvtz.gbs 
    atoms 8-13, 15-16 entry H          line    40 file /home/liuchw/anaconda3/envs/psi4env/share/psi4/basis/aug-cc-pvtz.gbs 


         ---------------------------------------------------------
                                   SCF
               by Justin Turney, Rob Parrish, Andy Simmonett
                          and Daniel G. A. Smith
                              RHF Reference
                        8 Threads,  47683 MiB Core
         ---------------------------------------------------------

  ==> Geometry <==

    Molecular point group: c1
    Full point group: C1

    Geometry (in Angstrom), charge = 0, multiplicity = 1:

       Center              X                  Y                   Z               Mass       
    ------------   -----------------  -----------------  -----------------  -----------------
      Gh(C)          -1.220965006613     0.925371053997     0.914833084436    12.000000000000
      Gh(C)          -0.448725006613     1.956131053997     1.446193084436    12.000000000000
      Gh(C)           0.919544993387     2.008351053997     1.195823084436    12.000000000000
      Gh(C)           1.511174993387     1.022021053997     0.407773084436    12.000000000000
      Gh(C)           0.750094993387    -0.011318946003    -0.129396915564    12.000000000000
      Gh(C)          -0.617685006613    -0.053528946003     0.129913084436    12.000000000000
      Gh(O)          -1.333615006613    -1.093768946003    -0.415716915564    15.994914619570
      Gh(H)          -2.285795006613     0.883251053997     1.110773084436     1.007825032230
      Gh(H)          -0.921505006613     2.714541053997     2.054753084436     1.007825032230
      Gh(H)           1.517594993387     2.808111053997     1.608373084436     1.007825032230
      Gh(H)           2.572714993387     1.054901053997     0.205023084436     1.007825032230
      Gh(H)           1.194634993387    -0.779558946003    -0.746716915564     1.007825032230
      Gh(H)          -2.262275006613    -0.969878946003    -0.194006915564     1.007825032230
         O            0.639944993387    -3.217118946003    -2.543816915564    15.994914619570
         H            0.596214993387    -4.132068946003    -2.261776915564     1.007825032230
         H           -0.040575006613    -2.781918946003    -2.018696915564     1.007825032230

  Running in c1 symmetry.

  Rotational constants: A =      0.12836  B =      0.03240  C =      0.02592 [cm^-1]
  Rotational constants: A =   3848.07685  B =    971.42531  C =    777.18039 [MHz]
  Nuclear repulsion =    9.160872925248768

  Charge       = 0
  Multiplicity = 1
  Electrons    = 10
  Nalpha       = 5
  Nbeta        = 5

  ==> Algorithm <==

  SCF Algorithm Type is DF.
  DIIS enabled.
  MOM disabled.
  Fractional occupation disabled.
  Guess Type is SAD.
  Energy threshold   = 1.00e-08
  Density threshold  = 1.00e-08
  Integral threshold = 0.00e+00

  ==> Primary Basis <==

  Basis Set: AUG-CC-PVTZ
    Blend: AUG-CC-PVTZ
    Number of shells: 184
    Number of basis function: 552
    Number of Cartesian functions: 640
    Spherical Harmonics?: true
    Max angular momentum: 3

   => Loading Basis Set <=

    Name: (AUG-CC-PVTZ AUX)
    Role: JKFIT
    Keyword: DF_BASIS_SCF
    atoms 1-6         entry C          line   162 file /home/liuchw/anaconda3/envs/psi4env/share/psi4/basis/aug-cc-pvtz-jkfit.gbs 
    atoms 7, 14       entry O          line   286 file /home/liuchw/anaconda3/envs/psi4env/share/psi4/basis/aug-cc-pvtz-jkfit.gbs 
    atoms 8-13, 15-16 entry H          line    70 file /home/liuchw/anaconda3/envs/psi4env/share/psi4/basis/aug-cc-pvtz-jkfit.gbs 

  ==> Pre-Iterations <==

   -------------------------------------------------------
    Irrep   Nso     Nmo     Nalpha   Nbeta   Ndocc  Nsocc
   -------------------------------------------------------
     A        552     552       0       0       0       0
   -------------------------------------------------------
    Total     552     552       5       5       5       0
   -------------------------------------------------------

  ==> Integral Setup <==

  ==> DiskDFJK: Density-Fitted J/K Matrices <==

    J tasked:                  Yes
    K tasked:                  Yes
    wK tasked:                  No
    OpenMP threads:              8
    Integrals threads:           8
    Memory [MiB]:            35762
    Algorithm:                Core
    Integral Cache:           LOAD
    Schwarz Cutoff:          1E-12
    Fitting Condition:       1E-10

   => Auxiliary Basis Set <=

  Basis Set: (AUG-CC-PVTZ AUX)
    Blend: AUG-CC-PVTZ-JKFIT
    Number of shells: 352
    Number of basis function: 1200
    Number of Cartesian functions: 1488
    Spherical Harmonics?: true
    Max angular momentum: 4

  Minimum eigenvalue in the overlap matrix is 7.1270997539E-07.
  Using Symmetric Orthogonalization.

  SCF Guess: Superposition of Atomic Densities via on-the-fly atomic UHF.

  ==> Iterations <==

                           Total Energy        Delta E     RMS |[F,P]|

   @DF-RHF iter SAD:   -75.47451353786198   -7.54745e+01   0.00000e+00 
   @DF-RHF iter   1:   -75.97583452427766   -5.01321e-01   8.48560e-04 DIIS
   @DF-RHF iter   2:   -76.02830801166567   -5.24735e-02   5.79735e-04 DIIS
   @DF-RHF iter   3:   -76.05990417852148   -3.15962e-02   3.93860e-05 DIIS
   @DF-RHF iter   4:   -76.06029476772433   -3.90589e-04   9.46360e-06 DIIS
   @DF-RHF iter   5:   -76.06031939555180   -2.46278e-05   2.15269e-06 DIIS
   @DF-RHF iter   6:   -76.06032141542572   -2.01987e-06   4.71415e-07 DIIS
   @DF-RHF iter   7:   -76.06032152190613   -1.06480e-07   8.47557e-08 DIIS
   @DF-RHF iter   8:   -76.06032152492895   -3.02282e-09   1.42150e-08 DIIS
   @DF-RHF iter   9:   -76.06032152499563   -6.66773e-11   3.48597e-09 DIIS
  Energy and wave function converged.


  ==> Post-Iterations <==

    Orbital Energies [Eh]
    ---------------------

    Doubly Occupied:                                                      

       1A    -20.568115     2A     -1.352168     3A     -0.714400  
       4A     -0.585580     5A     -0.510251  

    Virtual:                                                              

       6A      0.015629     7A      0.027802     8A      0.031975  
       9A      0.042645    10A      0.048328    11A      0.057103  
      12A      0.061179    13A      0.070666    14A      0.081430  
      15A      0.082891    16A      0.089435    17A      0.093762  
      18A      0.097621    19A      0.103614    20A      0.107707  
      21A      0.121545    22A      0.124964    23A      0.130682  
      24A      0.131855    25A      0.132089    26A      0.137784  
      27A      0.142145    28A      0.152180    29A      0.157614  
      30A      0.158956    31A      0.165966    32A      0.179700  
      33A      0.189480    34A      0.192778    35A      0.195350  
      36A      0.203764    37A      0.208892    38A      0.213106  
      39A      0.221323    40A      0.228046    41A      0.229834  
      42A      0.237564    43A      0.245770    44A      0.255279  
      45A      0.267346    46A      0.273257    47A      0.274941  
      48A      0.281859    49A      0.290147    50A      0.297515  
      51A      0.306103    52A      0.307769    53A      0.312896  
      54A      0.322486    55A      0.332523    56A      0.336148  
      57A      0.339985    58A      0.343887    59A      0.346851  
      60A      0.353350    61A      0.354646    62A      0.360025  
      63A      0.362866    64A      0.369601    65A      0.382461  
      66A      0.386722    67A      0.388297    68A      0.390731  
      69A      0.400209    70A      0.402576    71A      0.411369  
      72A      0.414893    73A      0.427469    74A      0.432648  
      75A      0.438967    76A      0.442306    77A      0.448855  
      78A      0.453405    79A      0.466407    80A      0.474671  
      81A      0.481130    82A      0.490250    83A      0.499970  
      84A      0.500428    85A      0.502770    86A      0.510048  
      87A      0.513773    88A      0.530474    89A      0.537601  
      90A      0.556355    91A      0.558072    92A      0.568815  
      93A      0.590946    94A      0.593227    95A      0.602803  
      96A      0.609677    97A      0.612372    98A      0.621719  
      99A      0.627809   100A      0.630074   101A      0.644261  
     102A      0.654342   103A      0.655650   104A      0.664260  
     105A      0.668477   106A      0.675563   107A      0.679138  
     108A      0.686908   109A      0.690026   110A      0.700819  
     111A      0.707948   112A      0.722191   113A      0.729674  
     114A      0.734137   115A      0.739817   116A      0.740626  
     117A      0.745639   118A      0.750066   119A      0.755611  
     120A      0.761292   121A      0.764273   122A      0.779139  
     123A      0.788086   124A      0.799431   125A      0.816313  
     126A      0.818668   127A      0.828592   128A      0.833739  
     129A      0.846654   130A      0.854502   131A      0.863233  
     132A      0.874272   133A      0.889710   134A      0.893294  
     135A      0.904640   136A      0.910488   137A      0.913281  
     138A      0.931153   139A      0.938467   140A      0.950335  
     141A      0.956767   142A      0.971045   143A      0.974665  
     144A      0.985291   145A      0.986323   146A      0.991924  
     147A      1.006923   148A      1.011885   149A      1.018519  
     150A      1.034389   151A      1.035956   152A      1.047296  
     153A      1.054364   154A      1.062004   155A      1.063946  
     156A      1.069344   157A      1.076777   158A      1.081783  
     159A      1.086493   160A      1.087184   161A      1.091212  
     162A      1.098206   163A      1.108619   164A      1.112400  
     165A      1.128213   166A      1.131570   167A      1.146647  
     168A      1.154083   169A      1.159333   170A      1.174529  
     171A      1.182352   172A      1.186822   173A      1.194218  
     174A      1.201445   175A      1.205595   176A      1.223032  
     177A      1.229315   178A      1.234111   179A      1.245477  
     180A      1.251709   181A      1.255454   182A      1.261380  
     183A      1.265173   184A      1.274551   185A      1.283984  
     186A      1.290920   187A      1.298411   188A      1.305674  
     189A      1.309757   190A      1.314654   191A      1.322094  
     192A      1.331189   193A      1.335705   194A      1.344191  
     195A      1.358848   196A      1.370082   197A      1.373506  
     198A      1.381739   199A      1.391472   200A      1.397071  
     201A      1.418842   202A      1.425235   203A      1.435336  
     204A      1.457796   205A      1.467714   206A      1.475687  
     207A      1.487047   208A      1.495344   209A      1.506656  
     210A      1.513091   211A      1.519726   212A      1.531666  
     213A      1.542515   214A      1.553325   215A      1.556521  
     216A      1.560881   217A      1.570894   218A      1.576655  
     219A      1.585990   220A      1.605519   221A      1.609791  
     222A      1.630629   223A      1.639958   224A      1.647077  
     225A      1.654201   226A      1.664071   227A      1.669110  
     228A      1.681434   229A      1.683222   230A      1.702354  
     231A      1.710868   232A      1.736122   233A      1.738237  
     234A      1.759244   235A      1.770249   236A      1.799334  
     237A      1.838467   238A      1.846563   239A      1.872306  
     240A      1.886241   241A      1.888842   242A      1.893149  
     243A      1.910977   244A      1.919994   245A      1.931077  
     246A      1.956583   247A      1.971392   248A      1.977785  
     249A      1.994110   250A      2.008998   251A      2.025646  
     252A      2.056608   253A      2.068167   254A      2.087411  
     255A      2.111149   256A      2.130294   257A      2.149783  
     258A      2.161595   259A      2.166784   260A      2.169625  
     261A      2.188274   262A      2.203255   263A      2.205700  
     264A      2.214694   265A      2.228438   266A      2.235639  
     267A      2.247859   268A      2.272117   269A      2.274022  
     270A      2.306156   271A      2.324315   272A      2.329447  
     273A      2.334379   274A      2.338175   275A      2.344996  
     276A      2.348622   277A      2.353277   278A      2.363026  
     279A      2.367468   280A      2.385334   281A      2.395769  
     282A      2.408012   283A      2.412786   284A      2.440909  
     285A      2.454630   286A      2.457637   287A      2.465797  
     288A      2.479335   289A      2.491437   290A      2.505577  
     291A      2.512519   292A      2.517566   293A      2.536600  
     294A      2.543623   295A      2.564397   296A      2.569971  
     297A      2.578498   298A      2.584168   299A      2.618566  
     300A      2.648379   301A      2.665097   302A      2.682545  
     303A      2.688611   304A      2.702264   305A      2.736592  
     306A      2.741618   307A      2.754515   308A      2.758927  
     309A      2.779447   310A      2.786122   311A      2.798530  
     312A      2.843942   313A      2.850949   314A      2.869034  
     315A      2.879953   316A      2.907715   317A      2.915236  
     318A      2.941402   319A      2.950200   320A      2.984186  
     321A      3.014961   322A      3.037225   323A      3.072596  
     324A      3.100312   325A      3.129597   326A      3.177307  
     327A      3.202216   328A      3.233239   329A      3.271485  
     330A      3.298418   331A      3.329163   332A      3.350642  
     333A      3.437412   334A      3.469645   335A      3.508057  
     336A      3.564545   337A      3.606171   338A      3.699537  
     339A      3.763044   340A      3.783955   341A      3.803555  
     342A      3.860294   343A      3.864530   344A      3.871390  
     345A      3.911836   346A      3.976412   347A      4.001685  
     348A      4.009056   349A      4.022896   350A      4.050479  
     351A      4.057404   352A      4.068654   353A      4.078849  
     354A      4.082177   355A      4.087599   356A      4.093550  
     357A      4.106693   358A      4.116549   359A      4.131081  
     360A      4.169519   361A      4.175076   362A      4.192593  
     363A      4.208445   364A      4.221078   365A      4.229330  
     366A      4.251502   367A      4.263071   368A      4.276958  
     369A      4.278855   370A      4.289036   371A      4.304032  
     372A      4.315450   373A      4.347516   374A      4.350373  
     375A      4.369808   376A      4.376098   377A      4.387886  
     378A      4.391163   379A      4.400862   380A      4.415355  
     381A      4.430989   382A      4.437528   383A      4.466931  
     384A      4.488030   385A      4.513491   386A      4.517422  
     387A      4.529267   388A      4.542628   389A      4.564673  
     390A      4.570753   391A      4.577649   392A      4.599198  
     393A      4.606865   394A      4.624933   395A      4.644420  
     396A      4.661619   397A      4.699911   398A      4.702357  
     399A      4.718805   400A      4.770233   401A      4.798704  
     402A      4.806202   403A      4.813364   404A      4.844989  
     405A      4.859047   406A      4.923200   407A      4.957581  
     408A      4.975868   409A      4.977902   410A      4.991366  
     411A      5.008761   412A      5.017059   413A      5.028425  
     414A      5.044270   415A      5.072011   416A      5.080485  
     417A      5.084309   418A      5.126927   419A      5.141114  
     420A      5.150224   421A      5.167128   422A      5.179055  
     423A      5.184180   424A      5.193720   425A      5.197367  
     426A      5.207829   427A      5.253465   428A      5.261726  
     429A      5.288585   430A      5.312641   431A      5.323564  
     432A      5.392868   433A      5.403822   434A      5.419851  
     435A      5.421817   436A      5.446575   437A      5.456717  
     438A      5.488113   439A      5.490137   440A      5.498168  
     441A      5.504660   442A      5.537668   443A      5.545150  
     444A      5.594969   445A      5.624162   446A      5.637008  
     447A      5.649837   448A      5.674490   449A      5.712784  
     450A      5.725415   451A      5.730066   452A      5.758936  
     453A      5.762945   454A      5.783651   455A      5.790370  
     456A      5.806769   457A      5.812202   458A      5.819805  
     459A      5.860949   460A      5.936565   461A      5.945983  
     462A      6.007257   463A      6.016306   464A      6.063410  
     465A      6.086353   466A      6.136748   467A      6.165145  
     468A      6.178676   469A      6.186303   470A      6.221716  
     471A      6.248702   472A      6.308429   473A      6.314881  
     474A      6.370061   475A      6.456959   476A      6.476308  
     477A      6.546772   478A      6.559030   479A      6.621713  
     480A      6.700808   481A      6.775405   482A      6.791754  
     483A      6.904697   484A      6.943315   485A      6.992163  
     486A      7.053614   487A      7.074463   488A      7.105581  
     489A      7.112248   490A      7.140813   491A      7.145602  
     492A      7.152437   493A      7.164392   494A      7.279358  
     495A      7.317631   496A      7.326294   497A      7.364223  
     498A      7.382613   499A      7.397864   500A      7.452048  
     501A      7.479002   502A      7.521878   503A      7.581380  
     504A      7.623204   505A      7.692391   506A      7.732381  
     507A      7.860625   508A      7.897115   509A      7.922549  
     510A      7.961070   511A      7.982883   512A      8.011314  
     513A      8.048299   514A      8.106033   515A      8.142236  
     516A      8.206071   517A      8.220944   518A      8.275292  
     519A      8.365991   520A      8.403917   521A      8.742249  
     522A      8.855137   523A      8.874573   524A      8.966658  
     525A      9.248430   526A      9.370204   527A      9.406238  
     528A      9.423311   529A      9.913785   530A     10.008878  
     531A     10.020268   532A     10.067158   533A     10.239999  
     534A     10.676921   535A     10.973142   536A     11.004788  
     537A     11.099204   538A     11.324822   539A     11.382717  
     540A     11.406654   541A     11.782763   542A     12.841377  
     543A     13.448928   544A     14.282157   545A     16.240167  
     546A     49.878691   547A     49.904394   548A     51.576000  
     549A     55.087993   550A     56.179999   551A     56.685118  
     552A     68.216321  

    Final Occupation by Irrep:
              A 
    DOCC [     5 ]

  @DF-RHF Final Energy:   -76.06032152499563

   => Energetics <=

    Nuclear Repulsion Energy =              9.1608729252487677
    One-Electron Energy =                -122.9813589696307332
    Two-Electron Energy =                  37.7601645193863362
    Total Energy =                        -76.0603215249956293

Computation Completed


Properties will be evaluated at   0.000000,   0.000000,   0.000000 [a0]

Properties computed using the SCF density matrix

  Nuclear Dipole Moment: [e a0]
     X:    10.7246      Y:   -61.7013      Z:   -46.5459

  Electronic Dipole Moment: [e a0]
     X:   -11.2045      Y:    61.3826      Z:    47.0804

  Dipole Moment: [e a0]
     X:    -0.4799      Y:    -0.3187      Z:     0.5345     Total:     0.7859

  Dipole Moment: [D]
     X:    -1.2198      Y:    -0.8100      Z:     1.3586     Total:     1.9975


*** tstop() called on node43.bme.utexas.edu at Thu Apr 23 23:50:56 2020
Module time:
	user time   =      80.70 seconds =       1.35 minutes
	system time =       1.54 seconds =       0.03 minutes
	total time  =         12 seconds =       0.20 minutes
Total time:
	user time   =     396.87 seconds =       6.61 minutes
	system time =       8.04 seconds =       0.13 minutes
	total time  =         57 seconds =       0.95 minutes
  Constructing Basis Sets for SAPT...

   => Loading Basis Set <=

    Name: (AUG-CC-PVTZ AUX)
    Role: RIFIT
    Keyword: DF_BASIS_SAPT
    atoms 1-6         entry C          line   148 file /home/liuchw/anaconda3/envs/psi4env/share/psi4/basis/aug-cc-pvtz-ri.gbs 
    atoms 7, 14       entry O          line   264 file /home/liuchw/anaconda3/envs/psi4env/share/psi4/basis/aug-cc-pvtz-ri.gbs 
    atoms 8-13, 15-16 entry H          line    30 file /home/liuchw/anaconda3/envs/psi4env/share/psi4/basis/aug-cc-pvtz-ri.gbs 


  //>>>>>>>>>>>>>>>>>>>>>>>>>>>>>>>>>>>//
  //               SAPT2+              //
  //<<<<<<<<<<<<<<<<<<<<<<<<<<<<<<<<<<<//


*** tstart() called on node43.bme.utexas.edu
*** at Thu Apr 23 23:50:56 2020

        SAPT2+  
    Ed Hohenstein
     6 June 2009

      Orbital Information
  --------------------------
    NSO        =       552
    NMO        =       552
    NRI        =      1216
    NOCC A     =        25
    NOCC B     =         5
    FOCC A     =         7
    FOCC B     =         1
    NVIR A     =       527
    NVIR B     =       547

    Estimated memory usage: 7398.8 MB

    Natural Orbital Cutoff:   1.000E-06
    Disp(T3) Truncation:            Yes
    CCD (vv|vv) Truncation:         Yes
    MBPT T2 Truncation:             Yes

    Monomer A: 143 virtual orbitals dropped
    Monomer B: 468 virtual orbitals dropped

    Elst10,r            =    -0.003949155408 [Eh]
    Exch10 (S^2)        =     0.001083291388 [Eh]
    Exch10              =     0.001083965431 [Eh]
    Ind20,r (A<-B)      =    -0.000409024996 [Eh]
    Ind20,r (B<-A)      =    -0.000160024969 [Eh]
    Ind20,r             =    -0.000569049965 [Eh]
    Exch-Ind20,r (A<-B) =     0.000106319168 [Eh]
    Exch-Ind20,r (B<-A) =     0.000061085528 [Eh]
    Exch-Ind20,r        =     0.000167404696 [Eh]
    Disp20              =    -0.001679120173 [Eh]
    Disp20 (NO)         =    -0.001518288366 [Eh]
    Exch-Disp20         =     0.000105705342 [Eh]
    Elst12,r            =     0.000223741456 [Eh]
    Exch11              =     0.000000417420 [Eh]
    Exch12              =     0.000277564768 [Eh]
    Ind22               =    -0.000070804920 [Eh]
    Disp21              =     0.000109954959 [Eh]
    Disp22 (SDQ)        =    -0.000022023953 [Eh]

    (i =   1 of   4)        151 seconds
    (i =   2 of   4)        298 seconds
    (i =   3 of   4)        445 seconds
    (i =   4 of   4)        592 seconds

    Disp220 (T)         =    -0.000155713445 [Eh]

    (i =   1 of  18)          3 seconds
    (i =   2 of  18)          6 seconds
    (i =   3 of  18)          9 seconds
    (i =   4 of  18)         11 seconds
    (i =   5 of  18)         14 seconds
    (i =   6 of  18)         17 seconds
    (i =   7 of  18)         19 seconds
    (i =   8 of  18)         22 seconds
    (i =   9 of  18)         25 seconds
    (i =  10 of  18)         27 seconds
    (i =  11 of  18)         30 seconds
    (i =  12 of  18)         33 seconds
    (i =  13 of  18)         35 seconds
    (i =  14 of  18)         38 seconds
    (i =  15 of  18)         41 seconds
    (i =  16 of  18)         43 seconds
    (i =  17 of  18)         46 seconds
    (i =  18 of  18)         49 seconds

    Disp202 (T)         =    -0.000149732295 [Eh]

    Disp22 (T)          =    -0.000305445740 [Eh]

    Est. Disp220 (T)    =    -0.000172208121 [Eh]
    Est. Disp202 (T)    =    -0.000165593390 [Eh]

    Est. Disp22 (T)     =    -0.000337801511 [Eh]

    SAPT Results 
  --------------------------------------------------------------------------------------------------------
    Electrostatics                 -3.72541395 [mEh]      -2.33773255 [kcal/mol]      -9.78107298 [kJ/mol]
      Elst10,r                     -3.94915541 [mEh]      -2.47813243 [kcal/mol]     -10.36850610 [kJ/mol]
      Elst12,r                      0.22374146 [mEh]       0.14039988 [kcal/mol]       0.58743311 [kJ/mol]

    Exchange                        1.36194762 [mEh]       0.85463503 [kcal/mol]       3.57579298 [kJ/mol]
      Exch10                        1.08396543 [mEh]       0.68019858 [kcal/mol]       2.84595085 [kJ/mol]
      Exch10(S^2)                   1.08329139 [mEh]       0.67977561 [kcal/mol]       2.84418115 [kJ/mol]
      Exch11(S^2)                   0.00041742 [mEh]       0.00026193 [kcal/mol]       0.00109594 [kJ/mol]
      Exch12(S^2)                   0.27756477 [mEh]       0.17417452 [kcal/mol]       0.72874620 [kJ/mol]

    Induction                      -0.56448077 [mEh]      -0.35421703 [kcal/mol]      -1.48204406 [kJ/mol]
      Ind20,r                      -0.56904996 [mEh]      -0.35708424 [kcal/mol]      -1.49404048 [kJ/mol]
      Ind22                        -0.07080492 [mEh]      -0.04443076 [kcal/mol]      -0.18589829 [kJ/mol]
      Exch-Ind20,r                  0.16740470 [mEh]       0.10504803 [kcal/mol]       0.43952097 [kJ/mol]
      Exch-Ind22                    0.02082959 [mEh]       0.01307076 [kcal/mol]       0.05468807 [kJ/mol]
      delta HF,r (2)               -0.11286017 [mEh]      -0.07082083 [kcal/mol]      -0.29631433 [kJ/mol]

    Dispersion                     -1.82328534 [mEh]      -1.14412882 [kcal/mol]      -4.78703499 [kJ/mol]
      Disp20                       -1.67912017 [mEh]      -1.05366382 [kcal/mol]      -4.40852941 [kJ/mol]
      Disp21                        0.10995496 [mEh]       0.06899778 [kcal/mol]       0.28868671 [kJ/mol]
      Disp22 (SDQ)                 -0.02202395 [mEh]      -0.01382024 [kcal/mol]      -0.05782388 [kJ/mol]
      Disp22 (T)                   -0.30544574 [mEh]      -0.19167010 [kcal/mol]      -0.80194768 [kJ/mol]
      Est. Disp22 (T)              -0.33780151 [mEh]      -0.21197365 [kcal/mol]      -0.88689774 [kJ/mol]
      Exch-Disp20                   0.10570534 [mEh]       0.06633110 [kcal/mol]       0.27752934 [kJ/mol]

  Total HF                         -3.37969541 [mEh]      -2.12079089 [kcal/mol]      -8.87338909 [kJ/mol]
  Total SAPT0                      -4.95311025 [mEh]      -3.10812360 [kcal/mol]     -13.00438916 [kJ/mol]
  Total SAPT2                      -4.50136193 [mEh]      -2.82464726 [kcal/mol]     -11.81832413 [kJ/mol]
  Total SAPT2+                     -4.75123244 [mEh]      -2.98144337 [kcal/mol]     -12.47435905 [kJ/mol]

  Special recipe for scaled SAPT0 (see Manual):
    Electrostatics sSAPT0          -3.94915541 [mEh]      -2.47813243 [kcal/mol]     -10.36850610 [kJ/mol]
    Exchange sSAPT0                 1.08396543 [mEh]       0.68019858 [kcal/mol]       2.84595085 [kJ/mol]
    Induction sSAPT0               -0.51419276 [mEh]      -0.32266083 [kcal/mol]      -1.35001290 [kJ/mol]
    Dispersion sSAPT0              -1.57321739 [mEh]      -0.98720882 [kcal/mol]      -4.13048170 [kJ/mol]
  Total sSAPT0                     -4.95260013 [mEh]      -3.10780350 [kcal/mol]     -13.00304984 [kJ/mol]
  --------------------------------------------------------------------------------------------------------

*** tstop() called on node43.bme.utexas.edu at Fri Apr 24 00:16:47 2020
Module time:
	user time   =   10795.98 seconds =     179.93 minutes
	system time =     182.54 seconds =       3.04 minutes
	total time  =       1551 seconds =      25.85 minutes
Total time:
	user time   =   11194.05 seconds =     186.57 minutes
	system time =     190.66 seconds =       3.18 minutes
	total time  =       1608 seconds =      26.80 minutes

    Psi4 stopped on: Friday, 24 April 2020 12:16AM
    Psi4 wall time for execution: 0:26:48.12

*** Psi4 exiting successfully. Buy a developer a beer!
