
    -----------------------------------------------------------------------
          Psi4: An Open-Source Ab Initio Electronic Structure Package
                               Psi4 1.4a2.dev224 

                         Git: Rev {master} e453b16 


    R. M. Parrish, L. A. Burns, D. G. A. Smith, A. C. Simmonett,
    A. E. DePrince III, E. G. Hohenstein, U. Bozkaya, A. Yu. Sokolov,
    R. Di Remigio, R. M. Richard, J. F. Gonthier, A. M. James,
    H. R. McAlexander, A. Kumar, M. Saitow, X. Wang, B. P. Pritchard,
    P. Verma, H. F. Schaefer III, K. Patkowski, R. A. King, E. F. Valeev,
    F. A. Evangelista, J. M. Turney, T. D. Crawford, and C. D. Sherrill,
    J. Chem. Theory Comput. 13(7) pp 3185--3197 (2017).
    (doi: 10.1021/acs.jctc.7b00174)


                         Additional Contributions by
    P. Kraus, H. Kruse, M. H. Lechner, M. C. Schieber, R. A. Shaw,
    A. Alenaizan, R. Galvelis, Z. L. Glick, S. Lehtola, and J. P. Misiewicz

    -----------------------------------------------------------------------


    Psi4 started on: Thursday, 23 April 2020 06:29PM

    Process ID: 15129
    Host:       node73.bme.utexas.edu
    PSIDATADIR: /home/liuchw/anaconda3/envs/psi4env/share/psi4
    Memory:     500.0 MiB
    Threads:    8
    
  ==> Input File <==

--------------------------------------------------------------------------
#Generated by lconvert.py for sapt job

memory 50 GB

molecule  {
0 1
  C      -3.904190    0.464230    0.173390
  C      -3.131950    1.494990    0.704750
  C      -1.763680    1.547210    0.454380
  C      -1.172050    0.560880   -0.333670
  C      -1.933130   -0.472460   -0.870840
  C      -3.300910   -0.514670   -0.611530
  O      -4.016840   -1.554910   -1.157160
  H      -4.969020    0.422110    0.369330
  H      -3.604730    2.253400    1.313310
  H      -1.165630    2.346970    0.866930
  H      -0.110510    0.593760   -0.536420
  H      -1.488590   -1.240700   -1.488160
  H      -4.945500   -1.431020   -0.935450
--
0 1
  O      -1.744880   -4.067830   -3.655180
  H      -1.788620   -4.982790   -3.373130
  H      -2.425400   -3.632640   -3.130060
units angstrom
no_reorient
symmetry c1
}

set {
scf_type DF
basis aug-cc-pvtz
freeze_core True
guess SAD
}
energy('sapt2+')
--------------------------------------------------------------------------

  Memory set to  46.566 GiB by Python driver.

Scratch directory: /scratch/liuchw/

  //>>>>>>>>>>>>>>>>>>>>>>>>>>>>>>>>>>>//
  //              Dimer HF             //
  //<<<<<<<<<<<<<<<<<<<<<<<<<<<<<<<<<<<//


*** tstart() called on node73.bme.utexas.edu
*** at Thu Apr 23 18:29:28 2020

   => Loading Basis Set <=

    Name: AUG-CC-PVTZ
    Role: ORBITAL
    Keyword: BASIS
    atoms 1-6         entry C          line   239 file /home/liuchw/anaconda3/envs/psi4env/share/psi4/basis/aug-cc-pvtz.gbs 
    atoms 7, 14       entry O          line   331 file /home/liuchw/anaconda3/envs/psi4env/share/psi4/basis/aug-cc-pvtz.gbs 
    atoms 8-13, 15-16 entry H          line    40 file /home/liuchw/anaconda3/envs/psi4env/share/psi4/basis/aug-cc-pvtz.gbs 


         ---------------------------------------------------------
                                   SCF
               by Justin Turney, Rob Parrish, Andy Simmonett
                          and Daniel G. A. Smith
                              RHF Reference
                        8 Threads,  47683 MiB Core
         ---------------------------------------------------------

  ==> Geometry <==

    Molecular point group: c1
    Full point group: C1

    Geometry (in Angstrom), charge = 0, multiplicity = 1:

       Center              X                  Y                   Z               Mass       
    ------------   -----------------  -----------------  -----------------  -----------------
         C           -1.268927754477     0.987988133090     0.974291482969    12.000000000000
         C           -0.496687754477     2.018748133090     1.505651482969    12.000000000000
         C            0.871582245523     2.070968133090     1.255281482969    12.000000000000
         C            1.463212245523     1.084638133090     0.467231482969    12.000000000000
         C            0.702132245523     0.051298133090    -0.069938517031    12.000000000000
         C           -0.665647754477     0.009088133090     0.189371482969    12.000000000000
         O           -1.381577754477    -1.031151866910    -0.356258517031    15.994914619570
         H           -2.333757754477     0.945868133090     1.170231482969     1.007825032230
         H           -0.969467754477     2.777158133090     2.114211482969     1.007825032230
         H            1.469632245523     2.870728133090     1.667831482969     1.007825032230
         H            2.524752245523     1.117518133090     0.264481482969     1.007825032230
         H            1.146672245523    -0.716941866910    -0.687258517031     1.007825032230
         H           -2.310237754477    -0.907261866910    -0.134548517031     1.007825032230
         O            0.890382245523    -3.544071866910    -2.854278517031    15.994914619570
         H            0.846642245523    -4.459031866910    -2.572228517031     1.007825032230
         H            0.209862245523    -3.108881866910    -2.329158517031     1.007825032230

  Running in c1 symmetry.

  Rotational constants: A =      0.12330  B =      0.02782  C =      0.02274 [cm^-1]
  Rotational constants: A =   3696.31829  B =    834.16975  C =    681.82641 [MHz]
  Nuclear repulsion =  329.489068494140042

  Charge       = 0
  Multiplicity = 1
  Electrons    = 60
  Nalpha       = 30
  Nbeta        = 30

  ==> Algorithm <==

  SCF Algorithm Type is DF.
  DIIS enabled.
  MOM disabled.
  Fractional occupation disabled.
  Guess Type is SAD.
  Energy threshold   = 1.00e-08
  Density threshold  = 1.00e-08
  Integral threshold = 0.00e+00

  ==> Primary Basis <==

  Basis Set: AUG-CC-PVTZ
    Blend: AUG-CC-PVTZ
    Number of shells: 184
    Number of basis function: 552
    Number of Cartesian functions: 640
    Spherical Harmonics?: true
    Max angular momentum: 3

   => Loading Basis Set <=

    Name: (AUG-CC-PVTZ AUX)
    Role: JKFIT
    Keyword: DF_BASIS_SCF
    atoms 1-6         entry C          line   162 file /home/liuchw/anaconda3/envs/psi4env/share/psi4/basis/aug-cc-pvtz-jkfit.gbs 
    atoms 7, 14       entry O          line   286 file /home/liuchw/anaconda3/envs/psi4env/share/psi4/basis/aug-cc-pvtz-jkfit.gbs 
    atoms 8-13, 15-16 entry H          line    70 file /home/liuchw/anaconda3/envs/psi4env/share/psi4/basis/aug-cc-pvtz-jkfit.gbs 

  ==> Pre-Iterations <==

   -------------------------------------------------------
    Irrep   Nso     Nmo     Nalpha   Nbeta   Ndocc  Nsocc
   -------------------------------------------------------
     A        552     552       0       0       0       0
   -------------------------------------------------------
    Total     552     552      30      30      30       0
   -------------------------------------------------------

  ==> Integral Setup <==

  ==> DiskDFJK: Density-Fitted J/K Matrices <==

    J tasked:                  Yes
    K tasked:                  Yes
    wK tasked:                  No
    OpenMP threads:              8
    Integrals threads:           8
    Memory [MiB]:            35762
    Algorithm:                Core
    Integral Cache:           SAVE
    Schwarz Cutoff:          1E-12
    Fitting Condition:       1E-10

   => Auxiliary Basis Set <=

  Basis Set: (AUG-CC-PVTZ AUX)
    Blend: AUG-CC-PVTZ-JKFIT
    Number of shells: 352
    Number of basis function: 1200
    Number of Cartesian functions: 1488
    Spherical Harmonics?: true
    Max angular momentum: 4

  Minimum eigenvalue in the overlap matrix is 7.5478010758E-07.
  Using Symmetric Orthogonalization.

  SCF Guess: Superposition of Atomic Densities via on-the-fly atomic UHF.

  ==> Iterations <==

                           Total Energy        Delta E     RMS |[F,P]|

   @DF-RHF iter SAD:  -380.53931840497296   -3.80539e+02   0.00000e+00 
   @DF-RHF iter   1:  -381.43997593496539   -9.00658e-01   1.39491e-03 DIIS
   @DF-RHF iter   2:  -381.66135193769355   -2.21376e-01   7.84091e-04 DIIS
   @DF-RHF iter   3:  -381.73134901917160   -6.99971e-02   1.05585e-04 DIIS
   @DF-RHF iter   4:  -381.73379712367876   -2.44810e-03   4.00136e-05 DIIS
   @DF-RHF iter   5:  -381.73404959674104   -2.52473e-04   8.20379e-06 DIIS
   @DF-RHF iter   6:  -381.73406851059508   -1.89139e-05   2.86548e-06 DIIS
   @DF-RHF iter   7:  -381.73407081361376   -2.30302e-06   1.14534e-06 DIIS
   @DF-RHF iter   8:  -381.73407120731611   -3.93702e-07   3.71457e-07 DIIS
   @DF-RHF iter   9:  -381.73407125797695   -5.06608e-08   8.32030e-08 DIIS
   @DF-RHF iter  10:  -381.73407126147265   -3.49570e-09   3.77467e-08 DIIS
   @DF-RHF iter  11:  -381.73407126237498   -9.02332e-10   1.64591e-08 DIIS
   @DF-RHF iter  12:  -381.73407126265965   -2.84672e-10   7.92510e-09 DIIS
  Energy and wave function converged.


  ==> Post-Iterations <==

    Orbital Energies [Eh]
    ---------------------

    Doubly Occupied:                                                      

       1A    -20.597883     2A    -20.560632     3A    -11.307466  
       4A    -11.245837     5A    -11.243427     6A    -11.238167  
       7A    -11.231995     8A    -11.230507     9A     -1.409786  
      10A     -1.344874    11A     -1.152112    12A     -1.024680  
      13A     -1.009541    14A     -0.851253    15A     -0.826961  
      16A     -0.737040    17A     -0.707071    18A     -0.690353  
      19A     -0.656907    20A     -0.613971    21A     -0.596358  
      22A     -0.595602    23A     -0.578876    24A     -0.575045  
      25A     -0.520150    26A     -0.503406    27A     -0.499387  
      28A     -0.488129    29A     -0.346286    30A     -0.320980  

    Virtual:                                                              

      31A      0.023420    32A      0.032064    33A      0.033906  
      34A      0.042647    35A      0.048604    36A      0.060106  
      37A      0.066924    38A      0.078871    39A      0.094155  
      40A      0.098825    41A      0.102275    42A      0.106044  
      43A      0.106646    44A      0.109546    45A      0.116670  
      46A      0.120260    47A      0.124569    48A      0.129371  
      49A      0.133894    50A      0.135486    51A      0.140636  
      52A      0.146063    53A      0.155057    54A      0.156936  
      55A      0.158442    56A      0.162925    57A      0.163177  
      58A      0.171558    59A      0.178588    60A      0.194129  
      61A      0.203618    62A      0.209255    63A      0.219271  
      64A      0.223000    65A      0.225601    66A      0.241025  
      67A      0.250620    68A      0.253052    69A      0.255064  
      70A      0.265101    71A      0.273360    72A      0.274986  
      73A      0.278512    74A      0.286620    75A      0.292367  
      76A      0.303495    77A      0.306222    78A      0.309972  
      79A      0.311624    80A      0.319173    81A      0.323108  
      82A      0.323627    83A      0.327268    84A      0.338708  
      85A      0.347034    86A      0.351584    87A      0.356500  
      88A      0.360765    89A      0.376476    90A      0.378512  
      91A      0.384123    92A      0.389373    93A      0.401040  
      94A      0.412224    95A      0.417213    96A      0.419087  
      97A      0.433353    98A      0.434375    99A      0.441458  
     100A      0.448626   101A      0.452128   102A      0.457874  
     103A      0.459159   104A      0.461718   105A      0.464780  
     106A      0.472187   107A      0.480206   108A      0.485591  
     109A      0.486852   110A      0.495564   111A      0.498016  
     112A      0.499574   113A      0.503331   114A      0.516087  
     115A      0.519952   116A      0.524125   117A      0.527960  
     118A      0.537902   119A      0.542428   120A      0.545506  
     121A      0.555898   122A      0.568867   123A      0.582699  
     124A      0.604104   125A      0.609977   126A      0.622392  
     127A      0.630579   128A      0.631360   129A      0.637794  
     130A      0.644114   131A      0.649757   132A      0.653084  
     133A      0.666375   134A      0.677880   135A      0.688982  
     136A      0.694729   137A      0.696894   138A      0.702494  
     139A      0.712614   140A      0.723460   141A      0.732153  
     142A      0.740869   143A      0.748281   144A      0.750725  
     145A      0.756178   146A      0.766387   147A      0.770891  
     148A      0.782374   149A      0.796265   150A      0.800921  
     151A      0.812810   152A      0.815601   153A      0.832365  
     154A      0.838516   155A      0.847967   156A      0.849150  
     157A      0.856737   158A      0.859232   159A      0.868800  
     160A      0.878341   161A      0.883457   162A      0.884749  
     163A      0.894386   164A      0.897561   165A      0.899632  
     166A      0.903048   167A      0.911620   168A      0.917290  
     169A      0.926650   170A      0.938431   171A      0.942597  
     172A      0.954979   173A      0.956976   174A      0.961328  
     175A      0.965600   176A      0.971611   177A      0.973488  
     178A      0.976224   179A      0.985143   180A      0.991781  
     181A      0.995120   182A      1.009500   183A      1.014940  
     184A      1.024668   185A      1.028277   186A      1.031396  
     187A      1.037022   188A      1.045628   189A      1.052240  
     190A      1.057965   191A      1.063773   192A      1.068869  
     193A      1.076212   194A      1.081505   195A      1.087979  
     196A      1.089701   197A      1.094123   198A      1.104460  
     199A      1.105082   200A      1.119022   201A      1.133571  
     202A      1.142217   203A      1.148486   204A      1.152339  
     205A      1.166224   206A      1.169340   207A      1.175001  
     208A      1.180154   209A      1.189778   210A      1.193658  
     211A      1.201329   212A      1.210157   213A      1.214232  
     214A      1.222936   215A      1.227005   216A      1.232766  
     217A      1.235095   218A      1.248966   219A      1.273486  
     220A      1.276005   221A      1.279343   222A      1.291073  
     223A      1.309015   224A      1.312897   225A      1.322189  
     226A      1.338690   227A      1.343282   228A      1.362393  
     229A      1.370498   230A      1.379804   231A      1.385047  
     232A      1.394617   233A      1.399658   234A      1.407341  
     235A      1.410400   236A      1.423346   237A      1.454762  
     238A      1.476039   239A      1.493734   240A      1.500821  
     241A      1.512301   242A      1.516358   243A      1.525314  
     244A      1.528857   245A      1.547671   246A      1.551355  
     247A      1.569667   248A      1.577094   249A      1.596849  
     250A      1.601383   251A      1.613282   252A      1.640194  
     253A      1.663125   254A      1.684772   255A      1.691712  
     256A      1.695116   257A      1.702587   258A      1.714016  
     259A      1.721390   260A      1.745632   261A      1.764921  
     262A      1.773202   263A      1.775639   264A      1.804227  
     265A      1.815754   266A      1.818977   267A      1.837881  
     268A      1.839846   269A      1.849473   270A      1.851931  
     271A      1.869135   272A      1.876409   273A      1.889037  
     274A      1.895529   275A      1.900031   276A      1.910561  
     277A      1.914789   278A      1.943924   279A      1.968488  
     280A      1.980963   281A      1.992409   282A      1.995696  
     283A      2.017846   284A      2.027959   285A      2.033291  
     286A      2.036117   287A      2.046468   288A      2.053112  
     289A      2.063132   290A      2.076595   291A      2.083961  
     292A      2.101339   293A      2.113271   294A      2.119265  
     295A      2.132794   296A      2.146046   297A      2.162866  
     298A      2.190224   299A      2.231239   300A      2.239604  
     301A      2.254466   302A      2.263675   303A      2.294088  
     304A      2.309634   305A      2.316412   306A      2.334246  
     307A      2.355594   308A      2.365680   309A      2.374952  
     310A      2.379675   311A      2.394762   312A      2.410445  
     313A      2.419533   314A      2.432731   315A      2.450174  
     316A      2.457194   317A      2.468492   318A      2.485633  
     319A      2.495939   320A      2.498106   321A      2.537594  
     322A      2.541129   323A      2.561829   324A      2.575319  
     325A      2.602818   326A      2.610296   327A      2.621378  
     328A      2.645450   329A      2.655653   330A      2.683427  
     331A      2.721052   332A      2.733133   333A      2.738911  
     334A      2.758648   335A      2.770738   336A      2.784551  
     337A      2.807273   338A      2.822111   339A      2.849424  
     340A      2.871219   341A      2.877497   342A      2.896468  
     343A      2.914740   344A      2.929964   345A      2.971243  
     346A      2.991191   347A      3.018593   348A      3.086467  
     349A      3.137086   350A      3.152097   351A      3.187097  
     352A      3.210831   353A      3.214344   354A      3.240737  
     355A      3.251468   356A      3.281296   357A      3.283875  
     358A      3.322588   359A      3.350823   360A      3.357418  
     361A      3.383846   362A      3.387772   363A      3.400181  
     364A      3.404567   365A      3.417270   366A      3.434947  
     367A      3.449630   368A      3.468273   369A      3.499459  
     370A      3.524108   371A      3.528437   372A      3.542706  
     373A      3.553076   374A      3.559069   375A      3.563617  
     376A      3.605813   377A      3.610304   378A      3.624745  
     379A      3.653464   380A      3.670077   381A      3.679064  
     382A      3.698338   383A      3.714267   384A      3.732548  
     385A      3.751040   386A      3.753313   387A      3.810527  
     388A      3.819525   389A      3.833116   390A      3.843306  
     391A      3.845881   392A      3.857466   393A      3.860933  
     394A      3.880448   395A      3.890471   396A      3.909137  
     397A      3.910262   398A      3.928484   399A      3.954036  
     400A      3.975265   401A      3.979067   402A      4.007861  
     403A      4.024441   404A      4.038207   405A      4.063565  
     406A      4.072828   407A      4.091810   408A      4.101148  
     409A      4.113689   410A      4.120676   411A      4.124965  
     412A      4.153886   413A      4.179700   414A      4.181917  
     415A      4.198832   416A      4.215398   417A      4.230037  
     418A      4.234635   419A      4.259361   420A      4.266422  
     421A      4.275148   422A      4.282687   423A      4.307078  
     424A      4.315491   425A      4.334525   426A      4.337694  
     427A      4.368007   428A      4.372804   429A      4.386356  
     430A      4.393959   431A      4.401345   432A      4.404374  
     433A      4.410201   434A      4.418851   435A      4.426780  
     436A      4.435313   437A      4.440997   438A      4.451537  
     439A      4.457629   440A      4.470065   441A      4.506197  
     442A      4.513863   443A      4.528310   444A      4.554983  
     445A      4.567299   446A      4.593892   447A      4.604083  
     448A      4.664407   449A      4.697630   450A      4.719040  
     451A      4.735825   452A      4.751889   453A      4.758323  
     454A      4.780999   455A      4.783624   456A      4.806192  
     457A      4.864863   458A      4.887806   459A      4.919028  
     460A      4.932380   461A      4.937868   462A      4.944097  
     463A      4.969644   464A      4.995867   465A      5.045268  
     466A      5.063257   467A      5.075022   468A      5.079177  
     469A      5.107699   470A      5.121234   471A      5.145377  
     472A      5.149553   473A      5.154077   474A      5.166349  
     475A      5.174485   476A      5.179668   477A      5.188237  
     478A      5.225538   479A      5.254733   480A      5.288452  
     481A      5.292550   482A      5.299429   483A      5.309891  
     484A      5.330751   485A      5.337938   486A      5.342895  
     487A      5.370726   488A      5.404907   489A      5.436401  
     490A      5.446681   491A      5.452001   492A      5.512371  
     493A      5.539917   494A      5.584189   495A      5.625261  
     496A      5.696248   497A      5.704539   498A      5.767585  
     499A      5.778293   500A      5.809441   501A      5.852326  
     502A      5.897820   503A      6.048606   504A      6.095903  
     505A      6.151161   506A      6.213349   507A      6.225985  
     508A      6.240387   509A      6.297856   510A      6.340217  
     511A      6.413974   512A      6.460056   513A      6.551754  
     514A      6.587490   515A      6.690736   516A      6.760285  
     517A      6.771924   518A      6.877716   519A      6.888280  
     520A      6.935272   521A      6.943791   522A      6.982929  
     523A      7.052158   524A      7.096921   525A      7.156521  
     526A      7.273072   527A      7.278826   528A      7.293911  
     529A      7.318250   530A      7.347346   531A      7.368227  
     532A      7.408399   533A      7.415059   534A      7.455532  
     535A      7.617181   536A      7.652203   537A      7.686336  
     538A      7.750673   539A      7.923642   540A      7.964631  
     541A      8.007349   542A      8.364282   543A      8.649785  
     544A      8.842652   545A     15.916275   546A     16.136366  
     547A     16.141001   548A     16.591877   549A     18.006184  
     550A     19.385392   551A     19.586978   552A     19.788255  

    Final Occupation by Irrep:
              A 
    DOCC [    30 ]

  @DF-RHF Final Energy:  -381.73407126265965

   => Energetics <=

    Nuclear Repulsion Energy =            329.4890684941400423
    One-Electron Energy =               -1173.0369147672713552
    Two-Electron Energy =                 461.8137750104716588
    Total Energy =                       -381.7340712626596542

Computation Completed


Properties will be evaluated at   0.000000,   0.000000,   0.000000 [a0]

Properties computed using the SCF density matrix

  Nuclear Dipole Moment: [e a0]
     X:     0.5452      Y:    -1.4102      Z:    -0.4902

  Electronic Dipole Moment: [e a0]
     X:    -1.3670      Y:     1.4671      Z:     1.2987

  Dipole Moment: [e a0]
     X:    -0.8218      Y:     0.0569      Z:     0.8085     Total:     1.1542

  Dipole Moment: [D]
     X:    -2.0888      Y:     0.1445      Z:     2.0550     Total:     2.9338


*** tstop() called on node73.bme.utexas.edu at Thu Apr 23 18:29:53 2020
Module time:
	user time   =     175.18 seconds =       2.92 minutes
	system time =       3.43 seconds =       0.06 minutes
	total time  =         25 seconds =       0.42 minutes
Total time:
	user time   =     175.18 seconds =       2.92 minutes
	system time =       3.43 seconds =       0.06 minutes
	total time  =         25 seconds =       0.42 minutes

  //>>>>>>>>>>>>>>>>>>>>>>>>>>>>>>>>>>>//
  //            Monomer A HF           //
  //<<<<<<<<<<<<<<<<<<<<<<<<<<<<<<<<<<<//


*** tstart() called on node73.bme.utexas.edu
*** at Thu Apr 23 18:29:53 2020

   => Loading Basis Set <=

    Name: AUG-CC-PVTZ
    Role: ORBITAL
    Keyword: BASIS
    atoms 1-6         entry C          line   239 file /home/liuchw/anaconda3/envs/psi4env/share/psi4/basis/aug-cc-pvtz.gbs 
    atoms 7, 14       entry O          line   331 file /home/liuchw/anaconda3/envs/psi4env/share/psi4/basis/aug-cc-pvtz.gbs 
    atoms 8-13, 15-16 entry H          line    40 file /home/liuchw/anaconda3/envs/psi4env/share/psi4/basis/aug-cc-pvtz.gbs 


         ---------------------------------------------------------
                                   SCF
               by Justin Turney, Rob Parrish, Andy Simmonett
                          and Daniel G. A. Smith
                              RHF Reference
                        8 Threads,  47683 MiB Core
         ---------------------------------------------------------

  ==> Geometry <==

    Molecular point group: c1
    Full point group: C1

    Geometry (in Angstrom), charge = 0, multiplicity = 1:

       Center              X                  Y                   Z               Mass       
    ------------   -----------------  -----------------  -----------------  -----------------
         C           -1.268927754477     0.987988133090     0.974291482969    12.000000000000
         C           -0.496687754477     2.018748133090     1.505651482969    12.000000000000
         C            0.871582245523     2.070968133090     1.255281482969    12.000000000000
         C            1.463212245523     1.084638133090     0.467231482969    12.000000000000
         C            0.702132245523     0.051298133090    -0.069938517031    12.000000000000
         C           -0.665647754477     0.009088133090     0.189371482969    12.000000000000
         O           -1.381577754477    -1.031151866910    -0.356258517031    15.994914619570
         H           -2.333757754477     0.945868133090     1.170231482969     1.007825032230
         H           -0.969467754477     2.777158133090     2.114211482969     1.007825032230
         H            1.469632245523     2.870728133090     1.667831482969     1.007825032230
         H            2.524752245523     1.117518133090     0.264481482969     1.007825032230
         H            1.146672245523    -0.716941866910    -0.687258517031     1.007825032230
         H           -2.310237754477    -0.907261866910    -0.134548517031     1.007825032230
      Gh(O)           0.890382245523    -3.544071866910    -2.854278517031    15.994914619570
      Gh(H)           0.846642245523    -4.459031866910    -2.572228517031     1.007825032230
      Gh(H)           0.209862245523    -3.108881866910    -2.329158517031     1.007825032230

  Running in c1 symmetry.

  Rotational constants: A =      0.12330  B =      0.02782  C =      0.02274 [cm^-1]
  Rotational constants: A =   3696.31829  B =    834.16975  C =    681.82641 [MHz]
  Nuclear repulsion =  271.381136320509370

  Charge       = 0
  Multiplicity = 1
  Electrons    = 50
  Nalpha       = 25
  Nbeta        = 25

  ==> Algorithm <==

  SCF Algorithm Type is DF.
  DIIS enabled.
  MOM disabled.
  Fractional occupation disabled.
  Guess Type is SAD.
  Energy threshold   = 1.00e-08
  Density threshold  = 1.00e-08
  Integral threshold = 0.00e+00

  ==> Primary Basis <==

  Basis Set: AUG-CC-PVTZ
    Blend: AUG-CC-PVTZ
    Number of shells: 184
    Number of basis function: 552
    Number of Cartesian functions: 640
    Spherical Harmonics?: true
    Max angular momentum: 3

   => Loading Basis Set <=

    Name: (AUG-CC-PVTZ AUX)
    Role: JKFIT
    Keyword: DF_BASIS_SCF
    atoms 1-6         entry C          line   162 file /home/liuchw/anaconda3/envs/psi4env/share/psi4/basis/aug-cc-pvtz-jkfit.gbs 
    atoms 7, 14       entry O          line   286 file /home/liuchw/anaconda3/envs/psi4env/share/psi4/basis/aug-cc-pvtz-jkfit.gbs 
    atoms 8-13, 15-16 entry H          line    70 file /home/liuchw/anaconda3/envs/psi4env/share/psi4/basis/aug-cc-pvtz-jkfit.gbs 

  ==> Pre-Iterations <==

   -------------------------------------------------------
    Irrep   Nso     Nmo     Nalpha   Nbeta   Ndocc  Nsocc
   -------------------------------------------------------
     A        552     552       0       0       0       0
   -------------------------------------------------------
    Total     552     552      25      25      25       0
   -------------------------------------------------------

  ==> Integral Setup <==

  ==> DiskDFJK: Density-Fitted J/K Matrices <==

    J tasked:                  Yes
    K tasked:                  Yes
    wK tasked:                  No
    OpenMP threads:              8
    Integrals threads:           8
    Memory [MiB]:            35762
    Algorithm:                Core
    Integral Cache:           LOAD
    Schwarz Cutoff:          1E-12
    Fitting Condition:       1E-10

   => Auxiliary Basis Set <=

  Basis Set: (AUG-CC-PVTZ AUX)
    Blend: AUG-CC-PVTZ-JKFIT
    Number of shells: 352
    Number of basis function: 1200
    Number of Cartesian functions: 1488
    Spherical Harmonics?: true
    Max angular momentum: 4

  Minimum eigenvalue in the overlap matrix is 7.5478010758E-07.
  Using Symmetric Orthogonalization.

  SCF Guess: Superposition of Atomic Densities via on-the-fly atomic UHF.

  ==> Iterations <==

                           Total Energy        Delta E     RMS |[F,P]|

   @DF-RHF iter SAD:  -305.05411550728593   -3.05054e+02   0.00000e+00 
   @DF-RHF iter   1:  -305.46071478838280   -4.06599e-01   1.11238e-03 DIIS
   @DF-RHF iter   2:  -305.63051049978736   -1.69796e-01   5.35097e-04 DIIS
   @DF-RHF iter   3:  -305.66979484575285   -3.92843e-02   8.69981e-05 DIIS
   @DF-RHF iter   4:  -305.67168873066220   -1.89388e-03   2.81829e-05 DIIS
   @DF-RHF iter   5:  -305.67182846053498   -1.39730e-04   8.16964e-06 DIIS
   @DF-RHF iter   6:  -305.67184560405542   -1.71435e-05   2.36728e-06 DIIS
   @DF-RHF iter   7:  -305.67184749324059   -1.88919e-06   7.68703e-07 DIIS
   @DF-RHF iter   8:  -305.67184770924621   -2.16006e-07   2.61848e-07 DIIS
   @DF-RHF iter   9:  -305.67184773788063   -2.86344e-08   7.82368e-08 DIIS
   @DF-RHF iter  10:  -305.67184774090543   -3.02481e-09   3.85023e-08 DIIS
   @DF-RHF iter  11:  -305.67184774183124   -9.25809e-10   1.84253e-08 DIIS
   @DF-RHF iter  12:  -305.67184774217731   -3.46063e-10   7.46086e-09 DIIS
  Energy and wave function converged.


  ==> Post-Iterations <==

    Orbital Energies [Eh]
    ---------------------

    Doubly Occupied:                                                      

       1A    -20.591531     2A    -11.304479     3A    -11.243812  
       4A    -11.241760     5A    -11.235463     6A    -11.229786  
       7A    -11.228469     8A     -1.403643     9A     -1.149788  
      10A     -1.022515    11A     -1.006870    12A     -0.848339  
      13A     -0.824164    14A     -0.733279    15A     -0.687430  
      16A     -0.653393    17A     -0.611634    18A     -0.594090  
      19A     -0.590119    20A     -0.570451    21A     -0.517703  
      22A     -0.497230    23A     -0.485194    24A     -0.344377  
      25A     -0.318002  

    Virtual:                                                              

      26A      0.025702    27A      0.031781    28A      0.033034  
      29A      0.043218    30A      0.048547    31A      0.060594  
      32A      0.066371    33A      0.073260    34A      0.095736  
      35A      0.098144    36A      0.100527    37A      0.106859  
      38A      0.107487    39A      0.109779    40A      0.116838  
      41A      0.121870    42A      0.125177    43A      0.126855  
      44A      0.131771    45A      0.133514    46A      0.136487  
      47A      0.141648    48A      0.144930    49A      0.157363  
      50A      0.159402    51A      0.163582    52A      0.164363  
      53A      0.171608    54A      0.175874    55A      0.180885  
      56A      0.191234    57A      0.210451    58A      0.216612  
      59A      0.223622    60A      0.228541    61A      0.241313  
      62A      0.244419    63A      0.255346    64A      0.255930  
      65A      0.267388    66A      0.276824    67A      0.281869  
      68A      0.285775    69A      0.291069    70A      0.293759  
      71A      0.302066    72A      0.309415    73A      0.312872  
      74A      0.314675    75A      0.319545    76A      0.323497  
      77A      0.326449    78A      0.329113    79A      0.341378  
      80A      0.346098    81A      0.352426    82A      0.357164  
      83A      0.361601    84A      0.373609    85A      0.376133  
      86A      0.382819    87A      0.389511    88A      0.390482  
      89A      0.406986    90A      0.416807    91A      0.424394  
      92A      0.431600    93A      0.434601    94A      0.437467  
      95A      0.445930    96A      0.453443    97A      0.455033  
      98A      0.461301    99A      0.462422   100A      0.463430  
     101A      0.472457   102A      0.478361   103A      0.485478  
     104A      0.487838   105A      0.493534   106A      0.497377  
     107A      0.503882   108A      0.506079   109A      0.513367  
     110A      0.519041   111A      0.521414   112A      0.530155  
     113A      0.532382   114A      0.540645   115A      0.548120  
     116A      0.551086   117A      0.568552   118A      0.584005  
     119A      0.596592   120A      0.607993   121A      0.613184  
     122A      0.630983   123A      0.632488   124A      0.640851  
     125A      0.645486   126A      0.653980   127A      0.657335  
     128A      0.667062   129A      0.682522   130A      0.688941  
     131A      0.697425   132A      0.703108   133A      0.710710  
     134A      0.717708   135A      0.720922   136A      0.733584  
     137A      0.751144   138A      0.753410   139A      0.761601  
     140A      0.772788   141A      0.776712   142A      0.789228  
     143A      0.798432   144A      0.799752   145A      0.805405  
     146A      0.828299   147A      0.834240   148A      0.838582  
     149A      0.840830   150A      0.849680   151A      0.854712  
     152A      0.858273   153A      0.864387   154A      0.869065  
     155A      0.873117   156A      0.883063   157A      0.884077  
     158A      0.888971   159A      0.892451   160A      0.898005  
     161A      0.904124   162A      0.910116   163A      0.913307  
     164A      0.919249   165A      0.925147   166A      0.945300  
     167A      0.950412   168A      0.954937   169A      0.956946  
     170A      0.968984   171A      0.974067   172A      0.978042  
     173A      0.980001   174A      0.988998   175A      0.991068  
     176A      1.001023   177A      1.013852   178A      1.019602  
     179A      1.028252   180A      1.031463   181A      1.034619  
     182A      1.040872   183A      1.047641   184A      1.054117  
     185A      1.064656   186A      1.069425   187A      1.076506  
     188A      1.084887   189A      1.086759   190A      1.091801  
     191A      1.092764   192A      1.095407   193A      1.102806  
     194A      1.110074   195A      1.120219   196A      1.126402  
     197A      1.134514   198A      1.143565   199A      1.151740  
     200A      1.157144   201A      1.170318   202A      1.176985  
     203A      1.185147   204A      1.190048   205A      1.194818  
     206A      1.199465   207A      1.214739   208A      1.220392  
     209A      1.228396   210A      1.236841   211A      1.244642  
     212A      1.247734   213A      1.261054   214A      1.266733  
     215A      1.276340   216A      1.290212   217A      1.291901  
     218A      1.316086   219A      1.321594   220A      1.330674  
     221A      1.344011   222A      1.362531   223A      1.364444  
     224A      1.376040   225A      1.382608   226A      1.395865  
     227A      1.397996   228A      1.407602   229A      1.411155  
     230A      1.428490   231A      1.458393   232A      1.472048  
     233A      1.478799   234A      1.482383   235A      1.503240  
     236A      1.505993   237A      1.518778   238A      1.528718  
     239A      1.534251   240A      1.539125   241A      1.560277  
     242A      1.572595   243A      1.590672   244A      1.613969  
     245A      1.622745   246A      1.665056   247A      1.683795  
     248A      1.692932   249A      1.698110   250A      1.704581  
     251A      1.713766   252A      1.726436   253A      1.729382  
     254A      1.736987   255A      1.749846   256A      1.768562  
     257A      1.774433   258A      1.780690   259A      1.807586  
     260A      1.811200   261A      1.821405   262A      1.827869  
     263A      1.839804   264A      1.846310   265A      1.849809  
     266A      1.853758   267A      1.869137   268A      1.872626  
     269A      1.889813   270A      1.899492   271A      1.902732  
     272A      1.913313   273A      1.928448   274A      1.949062  
     275A      1.979040   276A      1.983027   277A      1.995376  
     278A      1.998019   279A      2.020943   280A      2.031281  
     281A      2.036572   282A      2.048095   283A      2.055060  
     284A      2.065915   285A      2.076983   286A      2.084701  
     287A      2.104553   288A      2.108615   289A      2.117004  
     290A      2.122629   291A      2.147157   292A      2.156759  
     293A      2.167592   294A      2.196511   295A      2.233607  
     296A      2.260392   297A      2.268402   298A      2.296522  
     299A      2.304827   300A      2.324425   301A      2.363562  
     302A      2.371695   303A      2.379851   304A      2.395138  
     305A      2.412977   306A      2.434693   307A      2.438267  
     308A      2.448250   309A      2.455525   310A      2.474706  
     311A      2.501145   312A      2.537966   313A      2.540677  
     314A      2.550090   315A      2.564066   316A      2.567941  
     317A      2.578492   318A      2.582944   319A      2.594946  
     320A      2.607371   321A      2.637516   322A      2.648827  
     323A      2.662252   324A      2.674888   325A      2.692217  
     326A      2.714987   327A      2.737197   328A      2.745422  
     329A      2.765001   330A      2.786053   331A      2.823846  
     332A      2.860128   333A      2.871672   334A      2.893453  
     335A      2.917011   336A      2.921708   337A      2.963812  
     338A      2.995068   339A      3.021896   340A      3.080064  
     341A      3.134072   342A      3.150104   343A      3.178686  
     344A      3.190523   345A      3.199124   346A      3.213371  
     347A      3.220674   348A      3.238735   349A      3.246275  
     350A      3.253602   351A      3.279675   352A      3.285400  
     353A      3.317177   354A      3.345230   355A      3.352296  
     356A      3.358752   357A      3.364993   358A      3.387135  
     359A      3.390108   360A      3.407693   361A      3.421703  
     362A      3.432333   363A      3.449931   364A      3.453374  
     365A      3.475203   366A      3.504592   367A      3.527438  
     368A      3.531903   369A      3.544957   370A      3.553466  
     371A      3.555266   372A      3.564916   373A      3.567864  
     374A      3.609274   375A      3.612762   376A      3.628717  
     377A      3.656203   378A      3.672634   379A      3.681519  
     380A      3.704417   381A      3.715943   382A      3.734275  
     383A      3.752001   384A      3.755903   385A      3.821820  
     386A      3.835321   387A      3.842039   388A      3.848055  
     389A      3.858458   390A      3.864138   391A      3.885021  
     392A      3.894607   393A      3.912502   394A      3.913502  
     395A      3.933954   396A      3.959043   397A      3.978034  
     398A      3.982105   399A      4.014640   400A      4.026823  
     401A      4.044569   402A      4.073892   403A      4.094786  
     404A      4.111347   405A      4.116387   406A      4.119860  
     407A      4.127502   408A      4.157848   409A      4.183182  
     410A      4.215167   411A      4.223717   412A      4.236612  
     413A      4.263149   414A      4.269333   415A      4.281994  
     416A      4.309444   417A      4.318573   418A      4.340318  
     419A      4.370864   420A      4.375693   421A      4.386364  
     422A      4.396197   423A      4.401683   424A      4.408760  
     425A      4.419544   426A      4.429196   427A      4.443798  
     428A      4.451791   429A      4.460347   430A      4.472505  
     431A      4.476758   432A      4.497014   433A      4.518511  
     434A      4.527598   435A      4.531792   436A      4.569538  
     437A      4.594217   438A      4.607324   439A      4.633035  
     440A      4.667770   441A      4.688074   442A      4.696137  
     443A      4.706711   444A      4.721188   445A      4.741927  
     446A      4.757006   447A      4.761004   448A      4.783643  
     449A      4.785591   450A      4.868934   451A      4.878496  
     452A      4.892020   453A      4.899738   454A      4.918777  
     455A      4.932428   456A      4.940134   457A      4.946246  
     458A      4.971738   459A      5.003993   460A      5.046285  
     461A      5.065448   462A      5.077035   463A      5.081623  
     464A      5.109526   465A      5.125921   466A      5.148458  
     467A      5.151462   468A      5.156024   469A      5.176480  
     470A      5.187562   471A      5.220716   472A      5.228289  
     473A      5.260414   474A      5.291059   475A      5.300756  
     476A      5.309293   477A      5.331102   478A      5.340148  
     479A      5.345028   480A      5.406298   481A      5.438248  
     482A      5.450911   483A      5.455320   484A      5.514963  
     485A      5.564838   486A      5.585987   487A      5.627457  
     488A      5.641985   489A      5.657605   490A      5.701054  
     491A      5.769840   492A      5.780044   493A      5.811464  
     494A      5.854421   495A      5.889346   496A      5.900252  
     497A      6.050306   498A      6.095956   499A      6.143570  
     500A      6.153655   501A      6.229057   502A      6.242793  
     503A      6.298199   504A      6.340166   505A      6.408281  
     506A      6.421261   507A      6.465135   508A      6.589978  
     509A      6.654545   510A      6.696862   511A      6.768744  
     512A      6.879661   513A      6.896470   514A      6.948198  
     515A      6.989853   516A      7.056900   517A      7.083460  
     518A      7.099982   519A      7.278195   520A      7.285549  
     521A      7.420373   522A      7.458076   523A      7.658348  
     524A      7.690270   525A      7.708054   526A      7.754815  
     527A      7.836834   528A      8.010848   529A      8.059324  
     530A      8.173767   531A      8.307548   532A      8.370145  
     533A      8.654965   534A      8.778203   535A      8.865999  
     536A      9.664383   537A      9.864279   538A     10.031160  
     539A     10.241076   540A     11.246484   541A     11.659463  
     542A     12.118090   543A     13.551793   544A     13.871381  
     545A     16.134818   546A     16.142592   547A     16.596790  
     548A     18.009223   549A     19.386975   550A     19.589434  
     551A     19.790492   552A     64.885093  

    Final Occupation by Irrep:
              A 
    DOCC [    25 ]

  @DF-RHF Final Energy:  -305.67184774217731

   => Energetics <=

    Nuclear Repulsion Energy =            271.3811363205093699
    One-Electron Energy =                -952.2389248839334641
    Two-Electron Energy =                 375.1859408212467315
    Total Energy =                       -305.6718477421773059

Computation Completed


Properties will be evaluated at   0.000000,   0.000000,   0.000000 [a0]

Properties computed using the SCF density matrix

  Nuclear Dipole Moment: [e a0]
     X:   -14.9119      Y:    66.4697      Z:    51.9225

  Electronic Dipole Moment: [e a0]
     X:    14.5447      Y:   -66.1593      Z:   -51.6745

  Dipole Moment: [e a0]
     X:    -0.3672      Y:     0.3104      Z:     0.2480     Total:     0.5410

  Dipole Moment: [D]
     X:    -0.9333      Y:     0.7889      Z:     0.6304     Total:     1.3751


*** tstop() called on node73.bme.utexas.edu at Thu Apr 23 18:30:09 2020
Module time:
	user time   =     114.48 seconds =       1.91 minutes
	system time =       2.39 seconds =       0.04 minutes
	total time  =         16 seconds =       0.27 minutes
Total time:
	user time   =     289.72 seconds =       4.83 minutes
	system time =       5.82 seconds =       0.10 minutes
	total time  =         41 seconds =       0.68 minutes

  //>>>>>>>>>>>>>>>>>>>>>>>>>>>>>>>>>>>//
  //            Monomer B HF           //
  //<<<<<<<<<<<<<<<<<<<<<<<<<<<<<<<<<<<//


*** tstart() called on node73.bme.utexas.edu
*** at Thu Apr 23 18:30:09 2020

   => Loading Basis Set <=

    Name: AUG-CC-PVTZ
    Role: ORBITAL
    Keyword: BASIS
    atoms 1-6         entry C          line   239 file /home/liuchw/anaconda3/envs/psi4env/share/psi4/basis/aug-cc-pvtz.gbs 
    atoms 7, 14       entry O          line   331 file /home/liuchw/anaconda3/envs/psi4env/share/psi4/basis/aug-cc-pvtz.gbs 
    atoms 8-13, 15-16 entry H          line    40 file /home/liuchw/anaconda3/envs/psi4env/share/psi4/basis/aug-cc-pvtz.gbs 


         ---------------------------------------------------------
                                   SCF
               by Justin Turney, Rob Parrish, Andy Simmonett
                          and Daniel G. A. Smith
                              RHF Reference
                        8 Threads,  47683 MiB Core
         ---------------------------------------------------------

  ==> Geometry <==

    Molecular point group: c1
    Full point group: C1

    Geometry (in Angstrom), charge = 0, multiplicity = 1:

       Center              X                  Y                   Z               Mass       
    ------------   -----------------  -----------------  -----------------  -----------------
      Gh(C)          -1.268927754477     0.987988133090     0.974291482969    12.000000000000
      Gh(C)          -0.496687754477     2.018748133090     1.505651482969    12.000000000000
      Gh(C)           0.871582245523     2.070968133090     1.255281482969    12.000000000000
      Gh(C)           1.463212245523     1.084638133090     0.467231482969    12.000000000000
      Gh(C)           0.702132245523     0.051298133090    -0.069938517031    12.000000000000
      Gh(C)          -0.665647754477     0.009088133090     0.189371482969    12.000000000000
      Gh(O)          -1.381577754477    -1.031151866910    -0.356258517031    15.994914619570
      Gh(H)          -2.333757754477     0.945868133090     1.170231482969     1.007825032230
      Gh(H)          -0.969467754477     2.777158133090     2.114211482969     1.007825032230
      Gh(H)           1.469632245523     2.870728133090     1.667831482969     1.007825032230
      Gh(H)           2.524752245523     1.117518133090     0.264481482969     1.007825032230
      Gh(H)           1.146672245523    -0.716941866910    -0.687258517031     1.007825032230
      Gh(H)          -2.310237754477    -0.907261866910    -0.134548517031     1.007825032230
         O            0.890382245523    -3.544071866910    -2.854278517031    15.994914619570
         H            0.846642245523    -4.459031866910    -2.572228517031     1.007825032230
         H            0.209862245523    -3.108881866910    -2.329158517031     1.007825032230

  Running in c1 symmetry.

  Rotational constants: A =      0.12330  B =      0.02782  C =      0.02274 [cm^-1]
  Rotational constants: A =   3696.31829  B =    834.16975  C =    681.82641 [MHz]
  Nuclear repulsion =    9.160835212268960

  Charge       = 0
  Multiplicity = 1
  Electrons    = 10
  Nalpha       = 5
  Nbeta        = 5

  ==> Algorithm <==

  SCF Algorithm Type is DF.
  DIIS enabled.
  MOM disabled.
  Fractional occupation disabled.
  Guess Type is SAD.
  Energy threshold   = 1.00e-08
  Density threshold  = 1.00e-08
  Integral threshold = 0.00e+00

  ==> Primary Basis <==

  Basis Set: AUG-CC-PVTZ
    Blend: AUG-CC-PVTZ
    Number of shells: 184
    Number of basis function: 552
    Number of Cartesian functions: 640
    Spherical Harmonics?: true
    Max angular momentum: 3

   => Loading Basis Set <=

    Name: (AUG-CC-PVTZ AUX)
    Role: JKFIT
    Keyword: DF_BASIS_SCF
    atoms 1-6         entry C          line   162 file /home/liuchw/anaconda3/envs/psi4env/share/psi4/basis/aug-cc-pvtz-jkfit.gbs 
    atoms 7, 14       entry O          line   286 file /home/liuchw/anaconda3/envs/psi4env/share/psi4/basis/aug-cc-pvtz-jkfit.gbs 
    atoms 8-13, 15-16 entry H          line    70 file /home/liuchw/anaconda3/envs/psi4env/share/psi4/basis/aug-cc-pvtz-jkfit.gbs 

  ==> Pre-Iterations <==

   -------------------------------------------------------
    Irrep   Nso     Nmo     Nalpha   Nbeta   Ndocc  Nsocc
   -------------------------------------------------------
     A        552     552       0       0       0       0
   -------------------------------------------------------
    Total     552     552       5       5       5       0
   -------------------------------------------------------

  ==> Integral Setup <==

  ==> DiskDFJK: Density-Fitted J/K Matrices <==

    J tasked:                  Yes
    K tasked:                  Yes
    wK tasked:                  No
    OpenMP threads:              8
    Integrals threads:           8
    Memory [MiB]:            35762
    Algorithm:                Core
    Integral Cache:           LOAD
    Schwarz Cutoff:          1E-12
    Fitting Condition:       1E-10

   => Auxiliary Basis Set <=

  Basis Set: (AUG-CC-PVTZ AUX)
    Blend: AUG-CC-PVTZ-JKFIT
    Number of shells: 352
    Number of basis function: 1200
    Number of Cartesian functions: 1488
    Spherical Harmonics?: true
    Max angular momentum: 4

  Minimum eigenvalue in the overlap matrix is 7.5478010758E-07.
  Using Symmetric Orthogonalization.

  SCF Guess: Superposition of Atomic Densities via on-the-fly atomic UHF.

  ==> Iterations <==

                           Total Energy        Delta E     RMS |[F,P]|

   @DF-RHF iter SAD:   -75.47450997741305   -7.54745e+01   0.00000e+00 
   @DF-RHF iter   1:   -75.97581533998736   -5.01305e-01   8.48520e-04 DIIS
   @DF-RHF iter   2:   -76.02828495343778   -5.24696e-02   5.79696e-04 DIIS
   @DF-RHF iter   3:   -76.05988011561122   -3.15952e-02   3.93825e-05 DIIS
   @DF-RHF iter   4:   -76.06027064344923   -3.90528e-04   9.46058e-06 DIIS
   @DF-RHF iter   5:   -76.06029525085034   -2.46074e-05   2.15163e-06 DIIS
   @DF-RHF iter   6:   -76.06029726839697   -2.01755e-06   4.71007e-07 DIIS
   @DF-RHF iter   7:   -76.06029737463470   -1.06238e-07   8.46063e-08 DIIS
   @DF-RHF iter   8:   -76.06029737764470   -3.01000e-09   1.41942e-08 DIIS
   @DF-RHF iter   9:   -76.06029737771107   -6.63647e-11   3.48109e-09 DIIS
  Energy and wave function converged.


  ==> Post-Iterations <==

    Orbital Energies [Eh]
    ---------------------

    Doubly Occupied:                                                      

       1A    -20.568154     2A     -1.352198     3A     -0.714425  
       4A     -0.585608     5A     -0.510260  

    Virtual:                                                              

       6A      0.015515     7A      0.027564     8A      0.031590  
       9A      0.041586    10A      0.048210    11A      0.055570  
      12A      0.060714    13A      0.070495    14A      0.080490  
      15A      0.082103    16A      0.089795    17A      0.093448  
      18A      0.097506    19A      0.102010    20A      0.105909  
      21A      0.120394    22A      0.125539    23A      0.130063  
      24A      0.130939    25A      0.132379    26A      0.137182  
      27A      0.140014    28A      0.150602    29A      0.154945  
      30A      0.158701    31A      0.166101    32A      0.176974  
      33A      0.188471    34A      0.190345    35A      0.192915  
      36A      0.201448    37A      0.208263    38A      0.211982  
      39A      0.215804    40A      0.224982    41A      0.229088  
      42A      0.236641    43A      0.245259    44A      0.256455  
      45A      0.260367    46A      0.269945    47A      0.273766  
      48A      0.277664    49A      0.285832    50A      0.291020  
      51A      0.302137    52A      0.303926    53A      0.307153  
      54A      0.315728    55A      0.323090    56A      0.333359  
      57A      0.335458    58A      0.340149    59A      0.345056  
      60A      0.348261    61A      0.352927    62A      0.354334  
      63A      0.360555    64A      0.362852    65A      0.373315  
      66A      0.381033    67A      0.383013    68A      0.389382  
      69A      0.393079    70A      0.397725    71A      0.403675  
      72A      0.413051    73A      0.423999    74A      0.429347  
      75A      0.434826    76A      0.438070    77A      0.442297  
      78A      0.448682    79A      0.465683    80A      0.473771  
      81A      0.475467    82A      0.485204    83A      0.492756  
      84A      0.502388    85A      0.504041    86A      0.504629  
      87A      0.509585    88A      0.528963    89A      0.541835  
      90A      0.549016    91A      0.555128    92A      0.558915  
      93A      0.571739    94A      0.591643    95A      0.601731  
      96A      0.604483    97A      0.613295    98A      0.623698  
      99A      0.625651   100A      0.630002   101A      0.638277  
     102A      0.648647   103A      0.650671   104A      0.654855  
     105A      0.660772   106A      0.674029   107A      0.675883  
     108A      0.683067   109A      0.685957   110A      0.693376  
     111A      0.704923   112A      0.712600   113A      0.719552  
     114A      0.727635   115A      0.733478   116A      0.737096  
     117A      0.742006   118A      0.743533   119A      0.746935  
     120A      0.753050   121A      0.758370   122A      0.771535  
     123A      0.780726   124A      0.787657   125A      0.793310  
     126A      0.817836   127A      0.824152   128A      0.829384  
     129A      0.847091   130A      0.850049   131A      0.862617  
     132A      0.873515   133A      0.882441   134A      0.892253  
     135A      0.896490   136A      0.903239   137A      0.911818  
     138A      0.920498   139A      0.930957   140A      0.936883  
     141A      0.947902   142A      0.953881   143A      0.964194  
     144A      0.973276   145A      0.976793   146A      0.982634  
     147A      0.994583   148A      0.997821   149A      1.004232  
     150A      1.013043   151A      1.030856   152A      1.035661  
     153A      1.037354   154A      1.042689   155A      1.046200  
     156A      1.057875   157A      1.060940   158A      1.070251  
     159A      1.075083   160A      1.080223   161A      1.086704  
     162A      1.091649   163A      1.091731   164A      1.100166  
     165A      1.116784   166A      1.120567   167A      1.133365  
     168A      1.149092   169A      1.152477   170A      1.159534  
     171A      1.180527   172A      1.184090   173A      1.186335  
     174A      1.190802   175A      1.196051   176A      1.200331  
     177A      1.205112   178A      1.221498   179A      1.229440  
     180A      1.232065   181A      1.240377   182A      1.251177  
     183A      1.254790   184A      1.269843   185A      1.274104  
     186A      1.279803   187A      1.280734   188A      1.295930  
     189A      1.297287   190A      1.305144   191A      1.309486  
     192A      1.315687   193A      1.320561   194A      1.323039  
     195A      1.341006   196A      1.343793   197A      1.358661  
     198A      1.362101   199A      1.380067   200A      1.385256  
     201A      1.405999   202A      1.417145   203A      1.421309  
     204A      1.424547   205A      1.431891   206A      1.452054  
     207A      1.466529   208A      1.476381   209A      1.488407  
     210A      1.495353   211A      1.517013   212A      1.518321  
     213A      1.537121   214A      1.542727   215A      1.546419  
     216A      1.551270   217A      1.562061   218A      1.565294  
     219A      1.570402   220A      1.574183   221A      1.597381  
     222A      1.610867   223A      1.620869   224A      1.627841  
     225A      1.645727   226A      1.650499   227A      1.658282  
     228A      1.679472   229A      1.680561   230A      1.683765  
     231A      1.703039   232A      1.707563   233A      1.738150  
     234A      1.742108   235A      1.763081   236A      1.789190  
     237A      1.829182   238A      1.840528   239A      1.845223  
     240A      1.865676   241A      1.878826   242A      1.887408  
     243A      1.889190   244A      1.898298   245A      1.916439  
     246A      1.940597   247A      1.958796   248A      1.967154  
     249A      1.972866   250A      1.999165   251A      2.012204  
     252A      2.030572   253A      2.038019   254A      2.066347  
     255A      2.105057   256A      2.122698   257A      2.148020  
     258A      2.151621   259A      2.162329   260A      2.166525  
     261A      2.182919   262A      2.196979   263A      2.199719  
     264A      2.208174   265A      2.216591   266A      2.224814  
     267A      2.236586   268A      2.254093   269A      2.270743  
     270A      2.280539   271A      2.303847   272A      2.308889  
     273A      2.325166   274A      2.335383   275A      2.337190  
     276A      2.340092   277A      2.346585   278A      2.349406  
     279A      2.358284   280A      2.367816   281A      2.373289  
     282A      2.399009   283A      2.408523   284A      2.412627  
     285A      2.434933   286A      2.451100   287A      2.454336  
     288A      2.465409   289A      2.477008   290A      2.489446  
     291A      2.506883   292A      2.508099   293A      2.513493  
     294A      2.534416   295A      2.549060   296A      2.553549  
     297A      2.561105   298A      2.578390   299A      2.590055  
     300A      2.627548   301A      2.641884   302A      2.667732  
     303A      2.686924   304A      2.694053   305A      2.700983  
     306A      2.727581   307A      2.745355   308A      2.759349  
     309A      2.761559   310A      2.761934   311A      2.781034  
     312A      2.789795   313A      2.810529   314A      2.846943  
     315A      2.859670   316A      2.864721   317A      2.901655  
     318A      2.928446   319A      2.935521   320A      2.958157  
     321A      2.991609   322A      3.011134   323A      3.024491  
     324A      3.072551   325A      3.113780   326A      3.167354  
     327A      3.193954   328A      3.224289   329A      3.270463  
     330A      3.292950   331A      3.330709   332A      3.334315  
     333A      3.433937   334A      3.459630   335A      3.503841  
     336A      3.563590   337A      3.590653   338A      3.697834  
     339A      3.741353   340A      3.767908   341A      3.785867  
     342A      3.810226   343A      3.861599   344A      3.864144  
     345A      3.892343   346A      3.976056   347A      3.982539  
     348A      4.007220   349A      4.020066   350A      4.048965  
     351A      4.050557   352A      4.056886   353A      4.072571  
     354A      4.076238   355A      4.082477   356A      4.088436  
     357A      4.101622   358A      4.115738   359A      4.125811  
     360A      4.165452   361A      4.173668   362A      4.179129  
     363A      4.189559   364A      4.197259   365A      4.218404  
     366A      4.247640   367A      4.250418   368A      4.261299  
     369A      4.268288   370A      4.277101   371A      4.295199  
     372A      4.312890   373A      4.322750   374A      4.336584  
     375A      4.348450   376A      4.374079   377A      4.378500  
     378A      4.390321   379A      4.397282   380A      4.404185  
     381A      4.406118   382A      4.422363   383A      4.443322  
     384A      4.484809   385A      4.508312   386A      4.516182  
     387A      4.527196   388A      4.538243   389A      4.541132  
     390A      4.566794   391A      4.571689   392A      4.582150  
     393A      4.596498   394A      4.609418   395A      4.630323  
     396A      4.645198   397A      4.696501   398A      4.697688  
     399A      4.716381   400A      4.768404   401A      4.788137  
     402A      4.795696   403A      4.797328   404A      4.810487  
     405A      4.858769   406A      4.911362   407A      4.913293  
     408A      4.967771   409A      4.974847   410A      4.978791  
     411A      4.990822   412A      5.012839   413A      5.020716  
     414A      5.036701   415A      5.069922   416A      5.076830  
     417A      5.079252   418A      5.119733   419A      5.138249  
     420A      5.147426   421A      5.159506   422A      5.170073  
     423A      5.176673   424A      5.183652   425A      5.188799  
     426A      5.204254   427A      5.241488   428A      5.252297  
     429A      5.282703   430A      5.293021   431A      5.311153  
     432A      5.361360   433A      5.389955   434A      5.410008  
     435A      5.418785   436A      5.435634   437A      5.440003  
     438A      5.485000   439A      5.487849   440A      5.495329  
     441A      5.502369   442A      5.531014   443A      5.537500  
     444A      5.593524   445A      5.622061   446A      5.635691  
     447A      5.650164   448A      5.663935   449A      5.693367  
     450A      5.720866   451A      5.727390   452A      5.745480  
     453A      5.760994   454A      5.782030   455A      5.785133  
     456A      5.800048   457A      5.810683   458A      5.815902  
     459A      5.853547   460A      5.934902   461A      5.937588  
     462A      6.004661   463A      6.010542   464A      6.061478  
     465A      6.074288   466A      6.135889   467A      6.157596  
     468A      6.176115   469A      6.178246   470A      6.212958  
     471A      6.220126   472A      6.302138   473A      6.309980  
     474A      6.353916   475A      6.453108   476A      6.474270  
     477A      6.534454   478A      6.543545   479A      6.619637  
     480A      6.697990   481A      6.759507   482A      6.789877  
     483A      6.896312   484A      6.926652   485A      6.990017  
     486A      7.044182   487A      7.074189   488A      7.103252  
     489A      7.109732   490A      7.132414   491A      7.144810  
     492A      7.146859   493A      7.149823   494A      7.273309  
     495A      7.289506   496A      7.311622   497A      7.340772  
     498A      7.360908   499A      7.393917   500A      7.410054  
     501A      7.471323   502A      7.510673   503A      7.579550  
     504A      7.611182   505A      7.620284   506A      7.728710  
     507A      7.856030   508A      7.893682   509A      7.916248  
     510A      7.919691   511A      7.955770   512A      8.008050  
     513A      8.033240   514A      8.094232   515A      8.132241  
     516A      8.204961   517A      8.219049   518A      8.272271  
     519A      8.359620   520A      8.399754   521A      8.735318  
     522A      8.834489   523A      8.861313   524A      8.962270  
     525A      9.247017   526A      9.351623   527A      9.400912  
     528A      9.417903   529A      9.865625   530A     10.004915  
     531A     10.012127   532A     10.064380   533A     10.242550  
     534A     10.676369   535A     10.956090   536A     10.992282  
     537A     11.093993   538A     11.319446   539A     11.370164  
     540A     11.389929   541A     11.783426   542A     12.834955  
     543A     13.450257   544A     14.269870   545A     15.917585  
     546A     49.848246   547A     49.886229   548A     51.341196  
     549A     55.056310   550A     56.053108   551A     56.652446  
     552A     68.155179  

    Final Occupation by Irrep:
              A 
    DOCC [     5 ]

  @DF-RHF Final Energy:   -76.06029737771107

   => Energetics <=

    Nuclear Repulsion Energy =              9.1608352122689602
    One-Electron Energy =                -122.9809713896815140
    Two-Electron Energy =                  37.7598387997014839
    Total Energy =                        -76.0602973777110662

Computation Completed


Properties will be evaluated at   0.000000,   0.000000,   0.000000 [a0]

Properties computed using the SCF density matrix

  Nuclear Dipole Moment: [e a0]
     X:    15.4571      Y:   -67.8799      Z:   -52.4127

  Electronic Dipole Moment: [e a0]
     X:   -15.9372      Y:    67.5610      Z:    52.9475

  Dipole Moment: [e a0]
     X:    -0.4800      Y:    -0.3189      Z:     0.5348     Total:     0.7862

  Dipole Moment: [D]
     X:    -1.2201      Y:    -0.8105      Z:     1.3593     Total:     1.9983


*** tstop() called on node73.bme.utexas.edu at Thu Apr 23 18:30:21 2020
Module time:
	user time   =      72.64 seconds =       1.21 minutes
	system time =       1.50 seconds =       0.03 minutes
	total time  =         12 seconds =       0.20 minutes
Total time:
	user time   =     362.41 seconds =       6.04 minutes
	system time =       7.33 seconds =       0.12 minutes
	total time  =         53 seconds =       0.88 minutes
  Constructing Basis Sets for SAPT...

   => Loading Basis Set <=

    Name: (AUG-CC-PVTZ AUX)
    Role: RIFIT
    Keyword: DF_BASIS_SAPT
    atoms 1-6         entry C          line   148 file /home/liuchw/anaconda3/envs/psi4env/share/psi4/basis/aug-cc-pvtz-ri.gbs 
    atoms 7, 14       entry O          line   264 file /home/liuchw/anaconda3/envs/psi4env/share/psi4/basis/aug-cc-pvtz-ri.gbs 
    atoms 8-13, 15-16 entry H          line    30 file /home/liuchw/anaconda3/envs/psi4env/share/psi4/basis/aug-cc-pvtz-ri.gbs 


  //>>>>>>>>>>>>>>>>>>>>>>>>>>>>>>>>>>>//
  //               SAPT2+              //
  //<<<<<<<<<<<<<<<<<<<<<<<<<<<<<<<<<<<//


*** tstart() called on node73.bme.utexas.edu
*** at Thu Apr 23 18:30:21 2020

        SAPT2+  
    Ed Hohenstein
     6 June 2009

      Orbital Information
  --------------------------
    NSO        =       552
    NMO        =       552
    NRI        =      1216
    NOCC A     =        25
    NOCC B     =         5
    FOCC A     =         7
    FOCC B     =         1
    NVIR A     =       527
    NVIR B     =       547

    Estimated memory usage: 7398.8 MB

    Natural Orbital Cutoff:   1.000E-06
    Disp(T3) Truncation:            Yes
    CCD (vv|vv) Truncation:         Yes
    MBPT T2 Truncation:             Yes

    Monomer A: 144 virtual orbitals dropped
    Monomer B: 469 virtual orbitals dropped

    Elst10,r            =    -0.001922981744 [Eh]
    Exch10 (S^2)        =     0.000134900894 [Eh]
    Exch10              =     0.000134915069 [Eh]
    Ind20,r (A<-B)      =    -0.000105413122 [Eh]
    Ind20,r (B<-A)      =    -0.000034020370 [Eh]
    Ind20,r             =    -0.000139433493 [Eh]
    Exch-Ind20,r (A<-B) =     0.000011579529 [Eh]
    Exch-Ind20,r (B<-A) =     0.000004915492 [Eh]
    Exch-Ind20,r        =     0.000016495021 [Eh]
    Disp20              =    -0.000653623683 [Eh]
    Disp20 (NO)         =    -0.000607694436 [Eh]
    Exch-Disp20         =     0.000015536264 [Eh]
    Elst12,r            =     0.000171645619 [Eh]
    Exch11              =    -0.000000740525 [Eh]
    Exch12              =     0.000045181829 [Eh]
    Ind22               =    -0.000008384131 [Eh]
    Disp21              =     0.000055815475 [Eh]
    Disp22 (SDQ)        =    -0.000004610542 [Eh]

    (i =   1 of   4)        124 seconds
    (i =   2 of   4)        245 seconds
    (i =   3 of   4)        364 seconds
    (i =   4 of   4)        484 seconds

    Disp220 (T)         =    -0.000065103499 [Eh]

    (i =   1 of  18)          3 seconds
    (i =   2 of  18)          5 seconds
    (i =   3 of  18)          7 seconds
    (i =   4 of  18)         10 seconds
    (i =   5 of  18)         12 seconds
    (i =   6 of  18)         14 seconds
    (i =   7 of  18)         17 seconds
    (i =   8 of  18)         19 seconds
    (i =   9 of  18)         21 seconds
    (i =  10 of  18)         24 seconds
    (i =  11 of  18)         26 seconds
    (i =  12 of  18)         28 seconds
    (i =  13 of  18)         31 seconds
    (i =  14 of  18)         33 seconds
    (i =  15 of  18)         35 seconds
    (i =  16 of  18)         38 seconds
    (i =  17 of  18)         40 seconds
    (i =  18 of  18)         42 seconds

    Disp202 (T)         =    -0.000061917295 [Eh]

    Disp22 (T)          =    -0.000127020794 [Eh]

    Est. Disp220 (T)    =    -0.000070023989 [Eh]
    Est. Disp202 (T)    =    -0.000066596974 [Eh]

    Est. Disp22 (T)     =    -0.000136620964 [Eh]

    SAPT Results 
  --------------------------------------------------------------------------------------------------------
    Electrostatics                 -1.75133612 [mEh]      -1.09898001 [kcal/mol]      -4.59813236 [kJ/mol]
      Elst10,r                     -1.92298174 [mEh]      -1.20668926 [kcal/mol]      -5.04878787 [kJ/mol]
      Elst12,r                      0.17164562 [mEh]       0.10770925 [kcal/mol]       0.45065551 [kJ/mol]

    Exchange                        0.17935637 [mEh]       0.11254782 [kcal/mol]       0.47090009 [kJ/mol]
      Exch10                        0.13491507 [mEh]       0.08466048 [kcal/mol]       0.35421947 [kJ/mol]
      Exch10(S^2)                   0.13490089 [mEh]       0.08465159 [kcal/mol]       0.35418225 [kJ/mol]
      Exch11(S^2)                  -0.00074052 [mEh]      -0.00046469 [kcal/mol]      -0.00194425 [kJ/mol]
      Exch12(S^2)                   0.04518183 [mEh]       0.02835203 [kcal/mol]       0.11862488 [kJ/mol]

    Induction                      -0.14546838 [mEh]      -0.09128279 [kcal/mol]      -0.38192719 [kJ/mol]
      Ind20,r                      -0.13943349 [mEh]      -0.08749584 [kcal/mol]      -0.36608258 [kJ/mol]
      Ind22                        -0.00838413 [mEh]      -0.00526112 [kcal/mol]      -0.02201253 [kJ/mol]
      Exch-Ind20,r                  0.01649502 [mEh]       0.01035078 [kcal/mol]       0.04330767 [kJ/mol]
      Exch-Ind22                    0.00099185 [mEh]       0.00062239 [kcal/mol]       0.00260409 [kJ/mol]
      delta HF,r (2)               -0.01513762 [mEh]      -0.00949900 [kcal/mol]      -0.03974383 [kJ/mol]

    Dispersion                     -0.72350345 [mEh]      -0.45400527 [kcal/mol]      -1.89955805 [kJ/mol]
      Disp20                       -0.65362368 [mEh]      -0.41015505 [kcal/mol]      -1.71608874 [kJ/mol]
      Disp21                        0.05581547 [mEh]       0.03502474 [kcal/mol]       0.14654351 [kJ/mol]
      Disp22 (SDQ)                 -0.00461054 [mEh]      -0.00289316 [kcal/mol]      -0.01210498 [kJ/mol]
      Disp22 (T)                   -0.12702079 [mEh]      -0.07970675 [kcal/mol]      -0.33349305 [kJ/mol]
      Est. Disp22 (T)              -0.13662096 [mEh]      -0.08573095 [kcal/mol]      -0.35869829 [kJ/mol]
      Exch-Disp20                   0.01553626 [mEh]       0.00974915 [kcal/mol]       0.04079045 [kJ/mol]

  Total HF                         -1.92614277 [mEh]      -1.20867284 [kcal/mol]      -5.05708715 [kJ/mol]
  Total SAPT0                      -2.56423019 [mEh]      -1.60907874 [kcal/mol]      -6.73238544 [kJ/mol]
  Total SAPT2                      -2.35553555 [mEh]      -1.47812088 [kcal/mol]      -6.18445774 [kJ/mol]
  Total SAPT2+                     -2.44095158 [mEh]      -1.53172024 [kcal/mol]      -6.40871750 [kJ/mol]

  Special recipe for scaled SAPT0 (see Manual):
    Electrostatics sSAPT0          -1.92298174 [mEh]      -1.20668926 [kcal/mol]      -5.04878787 [kJ/mol]
    Exchange sSAPT0                 0.13491507 [mEh]       0.08466048 [kcal/mol]       0.35421947 [kJ/mol]
    Induction sSAPT0               -0.13807090 [mEh]      -0.08664080 [kcal/mol]      -0.36250509 [kJ/mol]
    Dispersion sSAPT0              -0.63808252 [mEh]      -0.40040283 [kcal/mol]      -1.67528543 [kJ/mol]
  Total sSAPT0                     -2.56422009 [mEh]      -1.60907240 [kcal/mol]      -6.73235893 [kJ/mol]
  --------------------------------------------------------------------------------------------------------

*** tstop() called on node73.bme.utexas.edu at Thu Apr 23 18:53:18 2020
Module time:
	user time   =    9962.78 seconds =     166.05 minutes
	system time =     184.39 seconds =       3.07 minutes
	total time  =       1377 seconds =      22.95 minutes
Total time:
	user time   =   10326.40 seconds =     172.11 minutes
	system time =     191.81 seconds =       3.20 minutes
	total time  =       1430 seconds =      23.83 minutes

    Psi4 stopped on: Thursday, 23 April 2020 06:53PM
    Psi4 wall time for execution: 0:23:50.06

*** Psi4 exiting successfully. Buy a developer a beer!
