    -----------------------------------------------------------------------
          PSI4: An Open-Source Ab Initio Electronic Structure Package
                              PSI 4.0.0-beta4 Driver

    J. M. Turney, A. C. Simmonett, R. M. Parrish, E. G. Hohenstein,
    F. A. Evangelista, J. T. Fermann, B. J. Mintz, L. A. Burns, J. J. Wilke,
    M. L. Abrams, N. J. Russ, M. L. Leininger, C. L. Janssen, E. T. Seidl,
    W. D. Allen, H. F. Schaefer, R. A. King, E. F. Valeev, C. D. Sherrill,
    and T. D. Crawford, WIREs Comput. Mol. Sci., (2011) (doi: 10.1002/wcms.93)

                         Additional Contributions by
    A. E. DePrince, M. Saitow, U. Bozkaya, A. Yu. Sokolov
    -----------------------------------------------------------------------

    Process ID:  19461
    PSI4DATADIR: /home/xzhu216/psi4/psi4-install/share/psi

    Using LocalCommunicator (Number of processes = 1)

    Memory level set to 256.000 MB

  ==> Input File <==

--------------------------------------------------------------------------
#psi4
#
memory 27 gb

molecule Indole_Water {
0 1
    N    -2.633039000    -1.751090000    -0.900115000
    C    -2.257806000     1.403205000     0.733621000
    C    -3.533166000     1.939620000     0.673294000
    C    -4.594196000     1.239407000     0.063735000
    C    -4.399328000    -0.012758000    -0.497992000
    C    -3.111741000    -0.553793000    -0.436832000
    C    -2.026325000     0.135278000     0.173448000
    C    -0.882740000    -0.707951000     0.050804000
    C    -1.295587000    -1.844201000    -0.607824000
    H    -1.452019000     1.951354000     1.204536000
    H    -3.723673000     2.914694000     1.100929000
    H    -5.577995000     1.687927000     0.034147000
    H    -5.213371000    -0.550691000    -0.966004000
    H     0.116630000    -0.510733000     0.399383000
    H    -3.177614000    -2.454193000    -1.380703000
    H    -0.735089000    -2.718720000    -0.892972000
--
0 1
    O    -4.160121500    -3.681515800    -2.227754200
    H    -4.711922500    -4.360119800    -1.833311200
    H    -4.376395500    -3.711609800    -3.162042200
units angstrom
no_reorient  #important for SAPT in psi4, default
symmetry c1  #important for SAPT in psi4, default
}

set {
basis aug-cc-pVTZ
scf_type DF
guess SAD
freeze_core True
}
energy('sapt2+')
--------------------------------------------------------------------------

  Memory set to  27.000 GiB by Python script.

  //>>>>>>>>>>>>>>>>>>>>>>>>>>>>>>>>>>>//
  //              Dimer HF             //
  //<<<<<<<<<<<<<<<<<<<<<<<<<<<<<<<<<<<//


  No DF_BASIS_SCF auxiliary basis selected, defaulting to aug-cc-pvtz-jkfit


*** tstart() called on node36.bme.utexas.edu
*** at Wed Sep  3 20:39:47 2014


         ---------------------------------------------------------
                                   SCF
            by Justin Turney, Rob Parrish, and Andy Simmonett
                              RHF Reference
                        4 Threads,  27000 MiB Core
         ---------------------------------------------------------

  ==> Geometry <==

    Molecular point group: c1
    Full point group: C1

    Geometry (in Angstrom), charge = 0, multiplicity = 1:

       Center              X                  Y                   Z       
    ------------   -----------------  -----------------  -----------------
           N          0.311389657791    -1.217780696743    -0.515501678912
           C          0.686622657791     1.936514303257     1.118234321088
           C         -0.588737342209     2.472929303257     1.057907321088
           C         -1.649767342209     1.772716303257     0.448348321088
           C         -1.454899342209     0.520551303257    -0.113378678912
           C         -0.167312342209    -0.020483696743    -0.052218678912
           C          0.918103657791     0.668587303257     0.558061321088
           C          2.061688657791    -0.174641696743     0.435417321088
           C          1.648841657791    -1.310891696743    -0.223210678912
           H          1.492409657791     2.484663303257     1.589149321088
           H         -0.779244342209     3.448003303257     1.485542321088
           H         -2.633566342209     2.221236303257     0.418760321088
           H         -2.268942342209    -0.017381696743    -0.581390678912
           H          3.061058657791     0.022576303257     0.783996321088
           H         -0.233185342209    -1.920883696743    -0.996089678912
           H          2.209339657791    -2.185410696743    -0.508358678912
           O         -1.215692842209    -3.148206496743    -1.843140878912
           H         -1.767493842209    -3.826810496743    -1.448697878912
           H         -1.431966842209    -3.178300496743    -2.777428878912

  Running in c1 symmetry.

  Nuclear repulsion =  483.932775697955947

  Charge       = 0
  Multiplicity = 1
  Electrons    = 72
  Nalpha       = 36
  Nbeta        = 36

  ==> Algorithm <==

  SCF Algorithm Type is DF.
  DIIS enabled.
  MOM disabled.
  Fractional occupation disabled.
  Guess Type is SAD.
  Energy threshold   = 1.00e-08
  Density threshold  = 1.00e-08
  Integral threshold = 0.00e+00

  ==> Primary Basis <==

  Basis Set: AUG-CC-PVTZ
    Number of shells: 221
    Number of basis function: 667
    Number of Cartesian functions: 775
    Spherical Harmonics?: true
    Max angular momentum: 3

  ==> Pre-Iterations <==

   -------------------------------------------------------
    Irrep   Nso     Nmo     Nalpha   Nbeta   Ndocc  Nsocc
   -------------------------------------------------------
     A        667     667       0       0       0       0
   -------------------------------------------------------
    Total     667     667      36      36      36       0
   -------------------------------------------------------

 OEINTS: Wrapper to libmints.
   by Justin Turney

   Calculation information:
      Number of atoms:                  19
      Number of AO shells:             221
      Number of SO shells:             221
      Number of primitives:            399
      Number of atomic orbitals:       775
      Number of basis functions:       667

      Number of irreps:                  1
      Number of functions per irrep: [ 667 ]

      Overlap, kinetic, potential, dipole, and quadrupole integrals
        stored in file 35.

  ==> Integral Setup <==

  ==> DFJK: Density-Fitted J/K Matrices <==

    J tasked:                  Yes
    K tasked:                  Yes
    wK tasked:                  No
    OpenMP threads:              4
    Integrals threads:           4
    Memory (MB):             19311
    Algorithm:                Core
    Integral Cache:           SAVE
    Schwarz Cutoff:          0E+00
    Fitting Condition:       1E-12

   => Auxiliary Basis Set <=

  Basis Set: aug-cc-pvtz-jkfit
    Number of shells: 426
    Number of basis function: 1454
    Number of Cartesian functions: 1805
    Spherical Harmonics?: true
    Max angular momentum: 4

  Minimum eigenvalue in the overlap matrix is 5.4847527506E-07.
  Using Symmetric Orthogonalization.
  SCF Guess: Superposition of Atomic Densities via on-the-fly atomic UHF.

  Guess energy:  -288.98599666844126

  ==> Iterations <==

                        Total Energy        Delta E     RMS |[F,P]|

   @RHF iter   0:  -442.03541855456461   -4.42035e+02   9.23896e-03 
   @RHF iter   1:  -437.38197204234069    4.65345e+00   8.64641e-04 
   @RHF iter   2:  -437.60817922950383   -2.26207e-01   3.71537e-04 DIIS
   @RHF iter   3:  -437.64385005382923   -3.56708e-02   1.70856e-04 DIIS
   @RHF iter   4:  -437.65410127004708   -1.02512e-02   4.23239e-05 DIIS
   @RHF iter   5:  -437.65500545867650   -9.04189e-04   1.83195e-05 DIIS
   @RHF iter   6:  -437.65516725387243   -1.61795e-04   6.64944e-06 DIIS
   @RHF iter   7:  -437.65518916726006   -2.19134e-05   1.82823e-06 DIIS
   @RHF iter   8:  -437.65519081284839   -1.64559e-06   7.42653e-07 DIIS
   @RHF iter   9:  -437.65519121182882   -3.98980e-07   3.34104e-07 DIIS
   @RHF iter  10:  -437.65519132946480   -1.17636e-07   1.68557e-07 DIIS
   @RHF iter  11:  -437.65519136595157   -3.64868e-08   6.55665e-08 DIIS
   @RHF iter  12:  -437.65519137201392   -6.06235e-09   2.57493e-08 DIIS
   @RHF iter  13:  -437.65519137271423   -7.00311e-10   1.06367e-08 DIIS
   @RHF iter  14:  -437.65519137281029   -9.60654e-11   3.56829e-09 DIIS

  ==> Post-Iterations <==

	Orbital Energies (a.u.)
	-----------------------

	Doubly Occupied:                                                      

	   1A    -20.606196     2A    -15.577491     3A    -11.255708  
	   4A    -11.249424     5A    -11.219153     6A    -11.218057  
	   7A    -11.216764     8A    -11.212078     9A    -11.209330  
	  10A    -11.201832    11A     -1.395755    12A     -1.280089  
	  13A     -1.116911    14A     -1.042385    15A     -0.984151  
	  16A     -0.960844    17A     -0.830265    18A     -0.794227  
	  19A     -0.776010    20A     -0.756998    21A     -0.719959  
	  22A     -0.653219    23A     -0.638113    24A     -0.633564  
	  25A     -0.585790    26A     -0.575468    27A     -0.567560  
	  28A     -0.559801    29A     -0.551624    30A     -0.536748  
	  31A     -0.496468    32A     -0.469240    33A     -0.452053  
	  34A     -0.372662    35A     -0.287201    36A     -0.268373  

	Virtual:                                                              

	  37A      0.013348    38A      0.033608    39A      0.037798  
	  40A      0.039393    41A      0.044284    42A      0.047610  
	  43A      0.058549    44A      0.065671    45A      0.069628  
	  46A      0.086805    47A      0.103316    48A      0.104530  
	  49A      0.111774    50A      0.115626    51A      0.116017  
	  52A      0.117762    53A      0.119569    54A      0.125484  
	  55A      0.128489    56A      0.129562    57A      0.133037  
	  58A      0.136361    59A      0.141035    60A      0.146681  
	  61A      0.150301    62A      0.153984    63A      0.154356  
	  64A      0.157819    65A      0.164402    66A      0.170968  
	  67A      0.172475    68A      0.174067    69A      0.179550  
	  70A      0.185336    71A      0.188386    72A      0.196844  
	  73A      0.197521    74A      0.215017    75A      0.215049  
	  76A      0.232413    77A      0.232656    78A      0.241571  
	  79A      0.252169    80A      0.252970    81A      0.255912  
	  82A      0.260900    83A      0.267303    84A      0.271132  
	  85A      0.275306    86A      0.282553    87A      0.286012  
	  88A      0.292019    89A      0.301055    90A      0.303428  
	  91A      0.310377    92A      0.312841    93A      0.318753  
	  94A      0.319712    95A      0.328461    96A      0.331765  
	  97A      0.339145    98A      0.345445    99A      0.351275  
	 100A      0.352389   101A      0.356486   102A      0.361754  
	 103A      0.367293   104A      0.368239   105A      0.371771  
	 106A      0.384846   107A      0.384998   108A      0.388615  
	 109A      0.390046   110A      0.400260   111A      0.413451  
	 112A      0.415983   113A      0.418233   114A      0.424629  
	 115A      0.428165   116A      0.431294   117A      0.441064  
	 118A      0.443567   119A      0.448962   120A      0.451909  
	 121A      0.460205   122A      0.463431   123A      0.468797  
	 124A      0.473907   125A      0.475218   126A      0.483163  
	 127A      0.487198   128A      0.492382   129A      0.495147  
	 130A      0.501328   131A      0.508857   132A      0.510852  
	 133A      0.512449   134A      0.519865   135A      0.523964  
	 136A      0.527411   137A      0.533615   138A      0.536059  
	 139A      0.539118   140A      0.541324   141A      0.545300  
	 142A      0.548915   143A      0.551751   144A      0.561816  
	 145A      0.563459   146A      0.577728   147A      0.582480  
	 148A      0.583945   149A      0.592210   150A      0.613060  
	 151A      0.617637   152A      0.621261   153A      0.632423  
	 154A      0.643505   155A      0.644508   156A      0.647707  
	 157A      0.654184   158A      0.670695   159A      0.674393  
	 160A      0.676122   161A      0.681573   162A      0.691325  
	 163A      0.698982   164A      0.711493   165A      0.713130  
	 166A      0.723534   167A      0.725648   168A      0.729372  
	 169A      0.734018   170A      0.740749   171A      0.743714  
	 172A      0.750957   173A      0.764209   174A      0.768894  
	 175A      0.776893   176A      0.787747   177A      0.789794  
	 178A      0.790627   179A      0.794152   180A      0.803083  
	 181A      0.810959   182A      0.827177   183A      0.828216  
	 184A      0.833647   185A      0.849374   186A      0.851107  
	 187A      0.852193   188A      0.861062   189A      0.869517  
	 190A      0.881923   191A      0.883610   192A      0.897115  
	 193A      0.898890   194A      0.900725   195A      0.904973  
	 196A      0.909969   197A      0.914339   198A      0.924350  
	 199A      0.925133   200A      0.932950   201A      0.938232  
	 202A      0.940917   203A      0.945500   204A      0.951849  
	 205A      0.954842   206A      0.966630   207A      0.968376  
	 208A      0.972773   209A      0.982490   210A      0.988256  
	 211A      0.991542   212A      0.998814   213A      1.002623  
	 214A      1.011930   215A      1.011986   216A      1.019106  
	 217A      1.022037   218A      1.029015   219A      1.035388  
	 220A      1.038053   221A      1.046437   222A      1.052436  
	 223A      1.056516   224A      1.065889   225A      1.070493  
	 226A      1.073158   227A      1.080101   228A      1.086399  
	 229A      1.095316   230A      1.096082   231A      1.103207  
	 232A      1.109130   233A      1.117664   234A      1.125682  
	 235A      1.131910   236A      1.132127   237A      1.141031  
	 238A      1.146343   239A      1.147732   240A      1.152402  
	 241A      1.163238   242A      1.178097   243A      1.180224  
	 244A      1.186134   245A      1.195933   246A      1.199723  
	 247A      1.207746   248A      1.207800   249A      1.210234  
	 250A      1.215945   251A      1.220037   252A      1.222095  
	 253A      1.234320   254A      1.235345   255A      1.243589  
	 256A      1.247602   257A      1.262318   258A      1.274715  
	 259A      1.276930   260A      1.283287   261A      1.295519  
	 262A      1.297362   263A      1.299410   264A      1.318391  
	 265A      1.338769   266A      1.341213   267A      1.342973  
	 268A      1.347250   269A      1.357162   270A      1.360939  
	 271A      1.376838   272A      1.379646   273A      1.382707  
	 274A      1.388117   275A      1.391622   276A      1.395540  
	 277A      1.410268   278A      1.415769   279A      1.425323  
	 280A      1.435737   281A      1.439553   282A      1.446036  
	 283A      1.455560   284A      1.468511   285A      1.471865  
	 286A      1.486288   287A      1.488487   288A      1.504564  
	 289A      1.517927   290A      1.522594   291A      1.525544  
	 292A      1.553497   293A      1.554594   294A      1.565958  
	 295A      1.572452   296A      1.578179   297A      1.588752  
	 298A      1.590770   299A      1.603245   300A      1.614640  
	 301A      1.643584   302A      1.648386   303A      1.654545  
	 304A      1.671803   305A      1.680331   306A      1.691817  
	 307A      1.704603   308A      1.709481   309A      1.723181  
	 310A      1.726881   311A      1.732616   312A      1.751531  
	 313A      1.757261   314A      1.766108   315A      1.767321  
	 316A      1.780442   317A      1.794101   318A      1.809257  
	 319A      1.815947   320A      1.829150   321A      1.847757  
	 322A      1.853065   323A      1.861762   324A      1.870051  
	 325A      1.883224   326A      1.890728   327A      1.894012  
	 328A      1.897301   329A      1.899548   330A      1.911364  
	 331A      1.922166   332A      1.927126   333A      1.951514  
	 334A      1.954270   335A      1.955161   336A      1.978731  
	 337A      1.984855   338A      1.998068   339A      2.001308  
	 340A      2.024493   341A      2.026965   342A      2.031217  
	 343A      2.041840   344A      2.052650   345A      2.056554  
	 346A      2.064121   347A      2.064681   348A      2.077727  
	 349A      2.081952   350A      2.102291   351A      2.110841  
	 352A      2.121739   353A      2.140197   354A      2.145656  
	 355A      2.163587   356A      2.167748   357A      2.169081  
	 358A      2.181705   359A      2.185990   360A      2.189810  
	 361A      2.198672   362A      2.208021   363A      2.231589  
	 364A      2.250764   365A      2.257656   366A      2.279160  
	 367A      2.279763   368A      2.285961   369A      2.289698  
	 370A      2.304311   371A      2.315604   372A      2.333993  
	 373A      2.337626   374A      2.367004   375A      2.371447  
	 376A      2.374857   377A      2.394512   378A      2.413834  
	 379A      2.436145   380A      2.439656   381A      2.443618  
	 382A      2.458650   383A      2.473425   384A      2.479678  
	 385A      2.501185   386A      2.511303   387A      2.524296  
	 388A      2.541801   389A      2.549909   390A      2.571405  
	 391A      2.582727   392A      2.596290   393A      2.625227  
	 394A      2.626816   395A      2.646399   396A      2.657949  
	 397A      2.666908   398A      2.714002   399A      2.719727  
	 400A      2.729229   401A      2.760186   402A      2.765805  
	 403A      2.766651   404A      2.784442   405A      2.788748  
	 406A      2.823182   407A      2.830739   408A      2.844045  
	 409A      2.887932   410A      2.892795   411A      2.903266  
	 412A      2.905512   413A      2.912990   414A      2.941162  
	 415A      2.983158   416A      3.017030   417A      3.035147  
	 418A      3.045033   419A      3.088307   420A      3.126763  
	 421A      3.127003   422A      3.145886   423A      3.215602  
	 424A      3.236757   425A      3.246804   426A      3.254460  
	 427A      3.279151   428A      3.286945   429A      3.307649  
	 430A      3.322085   431A      3.353602   432A      3.364784  
	 433A      3.374076   434A      3.386692   435A      3.388100  
	 436A      3.407722   437A      3.407884   438A      3.432119  
	 439A      3.454339   440A      3.467199   441A      3.467788  
	 442A      3.488003   443A      3.500566   444A      3.523317  
	 445A      3.524327   446A      3.533795   447A      3.563114  
	 448A      3.575711   449A      3.581307   450A      3.594421  
	 451A      3.604000   452A      3.605434   453A      3.610823  
	 454A      3.630896   455A      3.642257   456A      3.653175  
	 457A      3.660656   458A      3.667341   459A      3.671940  
	 460A      3.689245   461A      3.699728   462A      3.709174  
	 463A      3.738757   464A      3.743724   465A      3.769474  
	 466A      3.783771   467A      3.812150   468A      3.819350  
	 469A      3.834709   470A      3.836837   471A      3.859901  
	 472A      3.875843   473A      3.876657   474A      3.881378  
	 475A      3.888291   476A      3.898193   477A      3.921443  
	 478A      3.927639   479A      3.929442   480A      3.936722  
	 481A      3.945100   482A      3.956905   483A      3.971501  
	 484A      3.980644   485A      3.992828   486A      4.004664  
	 487A      4.011437   488A      4.025316   489A      4.027519  
	 490A      4.049644   491A      4.079528   492A      4.082857  
	 493A      4.087501   494A      4.095840   495A      4.096206  
	 496A      4.108267   497A      4.132798   498A      4.133737  
	 499A      4.183592   500A      4.195301   501A      4.196490  
	 502A      4.207476   503A      4.225581   504A      4.237237  
	 505A      4.248143   506A      4.262272   507A      4.267233  
	 508A      4.269294   509A      4.272638   510A      4.279856  
	 511A      4.300846   512A      4.301602   513A      4.313153  
	 514A      4.321809   515A      4.332733   516A      4.339887  
	 517A      4.353364   518A      4.361362   519A      4.364504  
	 520A      4.387924   521A      4.392533   522A      4.410355  
	 523A      4.418724   524A      4.419037   525A      4.432301  
	 526A      4.441020   527A      4.453873   528A      4.461412  
	 529A      4.472267   530A      4.476284   531A      4.493140  
	 532A      4.494606   533A      4.525767   534A      4.527387  
	 535A      4.538721   536A      4.568024   537A      4.576088  
	 538A      4.596400   539A      4.601621   540A      4.624426  
	 541A      4.631951   542A      4.645167   543A      4.658225  
	 544A      4.675650   545A      4.688541   546A      4.718897  
	 547A      4.721582   548A      4.741508   549A      4.744256  
	 550A      4.758884   551A      4.774874   552A      4.777936  
	 553A      4.789140   554A      4.826305   555A      4.847362  
	 556A      4.866334   557A      4.870884   558A      4.880930  
	 559A      4.891849   560A      4.928768   561A      4.954871  
	 562A      4.957693   563A      4.993070   564A      5.010673  
	 565A      5.012279   566A      5.021341   567A      5.041055  
	 568A      5.043112   569A      5.063035   570A      5.086928  
	 571A      5.093087   572A      5.095914   573A      5.123200  
	 574A      5.141278   575A      5.151615   576A      5.159753  
	 577A      5.164932   578A      5.179804   579A      5.194401  
	 580A      5.201673   581A      5.222879   582A      5.223459  
	 583A      5.226395   584A      5.260034   585A      5.291836  
	 586A      5.293181   587A      5.311770   588A      5.314647  
	 589A      5.351909   590A      5.399140   591A      5.414247  
	 592A      5.426484   593A      5.454836   594A      5.458842  
	 595A      5.470219   596A      5.506253   597A      5.513454  
	 598A      5.518827   599A      5.548633   600A      5.599642  
	 601A      5.614447   602A      5.687505   603A      5.694537  
	 604A      5.698617   605A      5.711744   606A      5.740217  
	 607A      5.770383   608A      5.786715   609A      5.791276  
	 610A      5.808518   611A      5.929208   612A      5.946110  
	 613A      5.950807   614A      5.965558   615A      6.000097  
	 616A      6.048137   617A      6.075940   618A      6.120938  
	 619A      6.125671   620A      6.181261   621A      6.250032  
	 622A      6.267223   623A      6.292902   624A      6.331735  
	 625A      6.340971   626A      6.452274   627A      6.452433  
	 628A      6.471050   629A      6.527649   630A      6.577834  
	 631A      6.600125   632A      6.624820   633A      6.673095  
	 634A      6.724133   635A      6.795220   636A      6.870531  
	 637A      6.893510   638A      6.928246   639A      7.012351  
	 640A      7.059748   641A      7.113366   642A      7.149992  
	 643A      7.160111   644A      7.203146   645A      7.238563  
	 646A      7.284878   647A      7.302783   648A      7.315084  
	 649A      7.356591   650A      7.368506   651A      7.604019  
	 652A      7.647819   653A      7.739976   654A      7.904455  
	 655A      7.924102   656A      8.191136   657A      8.862740  
	 658A     16.441366   659A     16.678569   660A     16.780292  
	 661A     17.644180   662A     18.878837   663A     19.487995  
	 664A     19.932217   665A     20.275570   666A     20.307663  
	 667A     21.172737  

	Final Occupation by Irrep:
	          A 
	DOCC [    36 ]

  Energy converged.

  @RHF Final Energy:  -437.65519137281029

   => Energetics <=

    Nuclear Repulsion Energy =            483.9327756979559467
    One-Electron Energy =               -1554.6329030304787011
    Two-Electron Energy =                 633.0449359597104149
    DFT Exchange-Correlation Energy =       0.0000000000000000
    Empirical Dispersion Energy =           0.0000000000000000
    Total Energy =                       -437.6551913728122827



Properties will be evaluated at   0.000000,   0.000000,   0.000000 Bohr
  ==> Properties <==


Properties computed using the SCF density density matrix
  Nuclear Dipole Moment: (a.u.)
     X:    -2.2113      Y:    -2.7793      Z:    -1.9147

  Electronic Dipole Moment: (a.u.)
     X:     1.4295      Y:     1.1534      Z:     0.9239

  Dipole Moment: (a.u.)
     X:    -0.7818      Y:    -1.6258      Z:    -0.9908     Total:     2.0582

  Dipole Moment: (Debye)
     X:    -1.9870      Y:    -4.1325      Z:    -2.5183     Total:     5.2314


  Saving occupied orbitals to File 180.

  Saving SAPT 2-DIMER file.

*** tstop() called on node36.bme.utexas.edu at Wed Sep  3 20:41:59 2014
Module time:
	user time   =     454.43 seconds =       7.57 minutes
	system time =       7.91 seconds =       0.13 minutes
	total time  =        132 seconds =       2.20 minutes
Total time:
	user time   =     454.43 seconds =       7.57 minutes
	system time =       7.91 seconds =       0.13 minutes
	total time  =        132 seconds =       2.20 minutes

  //>>>>>>>>>>>>>>>>>>>>>>>>>>>>>>>>>>>//
  //            Monomer A HF           //
  //<<<<<<<<<<<<<<<<<<<<<<<<<<<<<<<<<<<//


  No DF_BASIS_SCF auxiliary basis selected, defaulting to aug-cc-pvtz-jkfit


*** tstart() called on node36.bme.utexas.edu
*** at Wed Sep  3 20:41:59 2014


         ---------------------------------------------------------
                                   SCF
            by Justin Turney, Rob Parrish, and Andy Simmonett
                              RHF Reference
                        4 Threads,  27000 MiB Core
         ---------------------------------------------------------

  ==> Geometry <==

    Molecular point group: c1
    Full point group: C1

    Geometry (in Angstrom), charge = 0, multiplicity = 1:

       Center              X                  Y                   Z       
    ------------   -----------------  -----------------  -----------------
           N          0.311389657791    -1.217780696743    -0.515501678912
           C          0.686622657791     1.936514303257     1.118234321088
           C         -0.588737342209     2.472929303257     1.057907321088
           C         -1.649767342209     1.772716303257     0.448348321088
           C         -1.454899342209     0.520551303257    -0.113378678912
           C         -0.167312342209    -0.020483696743    -0.052218678912
           C          0.918103657791     0.668587303257     0.558061321088
           C          2.061688657791    -0.174641696743     0.435417321088
           C          1.648841657791    -1.310891696743    -0.223210678912
           H          1.492409657791     2.484663303257     1.589149321088
           H         -0.779244342209     3.448003303257     1.485542321088
           H         -2.633566342209     2.221236303257     0.418760321088
           H         -2.268942342209    -0.017381696743    -0.581390678912
           H          3.061058657791     0.022576303257     0.783996321088
           H         -0.233185342209    -1.920883696743    -0.996089678912
           H          2.209339657791    -2.185410696743    -0.508358678912
           O(Gh)     -1.215692842209    -3.148206496743    -1.843140878912
           H(Gh)     -1.767493842209    -3.826810496743    -1.448697878912
           H(Gh)     -1.431966842209    -3.178300496743    -2.777428878912

  Running in c1 symmetry.

  Nuclear repulsion =  401.019874047637416

  Charge       = 0
  Multiplicity = 1
  Electrons    = 62
  Nalpha       = 31
  Nbeta        = 31

  ==> Algorithm <==

  SCF Algorithm Type is DF.
  DIIS enabled.
  MOM disabled.
  Fractional occupation disabled.
  Guess Type is SAD.
  Energy threshold   = 1.00e-08
  Density threshold  = 1.00e-08
  Integral threshold = 0.00e+00

  ==> Primary Basis <==

  Basis Set: AUG-CC-PVTZ
    Number of shells: 221
    Number of basis function: 667
    Number of Cartesian functions: 775
    Spherical Harmonics?: true
    Max angular momentum: 3

  ==> Pre-Iterations <==

   -------------------------------------------------------
    Irrep   Nso     Nmo     Nalpha   Nbeta   Ndocc  Nsocc
   -------------------------------------------------------
     A        667     667       0       0       0       0
   -------------------------------------------------------
    Total     667     667      31      31      31       0
   -------------------------------------------------------

 OEINTS: Wrapper to libmints.
   by Justin Turney

   Calculation information:
      Number of atoms:                  19
      Number of AO shells:             221
      Number of SO shells:             221
      Number of primitives:            399
      Number of atomic orbitals:       775
      Number of basis functions:       667

      Number of irreps:                  1
      Number of functions per irrep: [ 667 ]

      Overlap, kinetic, potential, dipole, and quadrupole integrals
        stored in file 35.

  ==> Integral Setup <==

  ==> DFJK: Density-Fitted J/K Matrices <==

    J tasked:                  Yes
    K tasked:                  Yes
    wK tasked:                  No
    OpenMP threads:              4
    Integrals threads:           4
    Memory (MB):             19311
    Algorithm:                Core
    Integral Cache:           LOAD
    Schwarz Cutoff:          0E+00
    Fitting Condition:       1E-12

   => Auxiliary Basis Set <=

  Basis Set: aug-cc-pvtz-jkfit
    Number of shells: 426
    Number of basis function: 1454
    Number of Cartesian functions: 1805
    Spherical Harmonics?: true
    Max angular momentum: 4

  Minimum eigenvalue in the overlap matrix is 5.4847527523E-07.
  Using Symmetric Orthogonalization.
  SCF Guess: Superposition of Atomic Densities via on-the-fly atomic UHF.

  Guess energy:  -237.30127817844919

  ==> Iterations <==

                        Total Energy        Delta E     RMS |[F,P]|

   @RHF iter   0:  -365.95269732703633   -3.65953e+02   8.85203e-03 
   @RHF iter   1:  -361.34047863330642    4.61222e+00   7.85851e-04 
   @RHF iter   2:  -361.54728288578809   -2.06804e-01   3.32977e-04 DIIS
   @RHF iter   3:  -361.57920297490472   -3.19201e-02   1.72765e-04 DIIS
   @RHF iter   4:  -361.58944721054689   -1.02442e-02   4.15839e-05 DIIS
   @RHF iter   5:  -361.59030496668737   -8.57756e-04   1.73237e-05 DIIS
   @RHF iter   6:  -361.59046093167575   -1.55965e-04   6.19456e-06 DIIS
   @RHF iter   7:  -361.59048073854314   -1.98069e-05   1.82761e-06 DIIS
   @RHF iter   8:  -361.59048230464140   -1.56610e-06   6.80242e-07 DIIS
   @RHF iter   9:  -361.59048268037913   -3.75738e-07   3.14637e-07 DIIS
   @RHF iter  10:  -361.59048278996914   -1.09590e-07   1.54385e-07 DIIS
   @RHF iter  11:  -361.59048282121938   -3.12502e-08   5.96111e-08 DIIS
   @RHF iter  12:  -361.59048282620535   -4.98596e-09   2.47194e-08 DIIS
   @RHF iter  13:  -361.59048282681448   -6.09134e-10   9.96973e-09 DIIS

  ==> Post-Iterations <==

	Orbital Energies (a.u.)
	-----------------------

	Doubly Occupied:                                                      

	   1A    -15.606240     2A    -11.271607     3A    -11.265246  
	   4A    -11.231320     5A    -11.229456     6A    -11.228061  
	   7A    -11.225895     8A    -11.220394     9A    -11.217127  
	  10A     -1.300660    11A     -1.129854    12A     -1.057407  
	  13A     -0.997857    14A     -0.974652    15A     -0.843890  
	  16A     -0.807429    17A     -0.790688    18A     -0.729532  
	  19A     -0.663465    20A     -0.648799    21A     -0.603457  
	  22A     -0.596839    23A     -0.586506    24A     -0.574602  
	  25A     -0.550698    26A     -0.508363    27A     -0.482625  
	  28A     -0.465731    29A     -0.386584    30A     -0.301573  
	  31A     -0.282096  

	Virtual:                                                              

	  32A      0.018932    33A      0.031138    34A      0.033937  
	  35A      0.043187    36A      0.044987    37A      0.045677  
	  38A      0.059221    39A      0.063419    40A      0.066703  
	  41A      0.082160    42A      0.091215    43A      0.098213  
	  44A      0.107045    45A      0.109950    46A      0.110170  
	  47A      0.112696    48A      0.115179    49A      0.119302  
	  50A      0.122385    51A      0.124508    52A      0.128633  
	  53A      0.131511    54A      0.135759    55A      0.141245  
	  56A      0.145855    57A      0.146479    58A      0.150945  
	  59A      0.155039    60A      0.157583    61A      0.164013  
	  62A      0.168759    63A      0.169339    64A      0.177199  
	  65A      0.180303    66A      0.181258    67A      0.186748  
	  68A      0.200464    69A      0.210552    70A      0.213487  
	  71A      0.217229    72A      0.233302    73A      0.236445  
	  74A      0.241392    75A      0.242088    76A      0.247545  
	  77A      0.261735    78A      0.265560    79A      0.270579  
	  80A      0.276056    81A      0.281801    82A      0.284396  
	  83A      0.295144    84A      0.296306    85A      0.299022  
	  86A      0.304528    87A      0.305891    88A      0.311639  
	  89A      0.322139    90A      0.324967    91A      0.331653  
	  92A      0.331980    93A      0.333349    94A      0.342115  
	  95A      0.343486    96A      0.346733    97A      0.351032  
	  98A      0.354602    99A      0.364804   100A      0.367074  
	 101A      0.376556   102A      0.378706   103A      0.382472  
	 104A      0.385921   105A      0.389233   106A      0.399906  
	 107A      0.402725   108A      0.407941   109A      0.411530  
	 110A      0.414936   111A      0.420475   112A      0.422871  
	 113A      0.432815   114A      0.441962   115A      0.451934  
	 116A      0.451958   117A      0.453099   118A      0.457506  
	 119A      0.461926   120A      0.464771   121A      0.472988  
	 122A      0.478965   123A      0.481494   124A      0.490713  
	 125A      0.495213   126A      0.501063   127A      0.504661  
	 128A      0.507937   129A      0.511104   130A      0.515163  
	 131A      0.519675   132A      0.526472   133A      0.529671  
	 134A      0.529868   135A      0.533243   136A      0.537860  
	 137A      0.543097   138A      0.546282   139A      0.553825  
	 140A      0.554626   141A      0.570859   142A      0.575806  
	 143A      0.577292   144A      0.580195   145A      0.604238  
	 146A      0.611023   147A      0.616042   148A      0.618360  
	 149A      0.632019   150A      0.638595   151A      0.646206  
	 152A      0.660590   153A      0.660614   154A      0.664319  
	 155A      0.670519   156A      0.680061   157A      0.686392  
	 158A      0.702217   159A      0.714047   160A      0.716118  
	 161A      0.718451   162A      0.723175   163A      0.725620  
	 164A      0.737134   165A      0.746255   166A      0.746368  
	 167A      0.757010   168A      0.762059   169A      0.768271  
	 170A      0.775038   171A      0.775835   172A      0.784723  
	 173A      0.790805   174A      0.798615   175A      0.805256  
	 176A      0.813652   177A      0.821019   178A      0.823115  
	 179A      0.834946   180A      0.839528   181A      0.848215  
	 182A      0.848355   183A      0.855398   184A      0.859779  
	 185A      0.872090   186A      0.876350   187A      0.881701  
	 188A      0.890306   189A      0.893228   190A      0.895757  
	 191A      0.896859   192A      0.906166   193A      0.909552  
	 194A      0.913320   195A      0.922246   196A      0.930584  
	 197A      0.932687   198A      0.944173   199A      0.944733  
	 200A      0.950291   201A      0.963186   202A      0.964215  
	 203A      0.975099   204A      0.975426   205A      0.985100  
	 206A      0.990235   207A      0.993819   208A      0.996600  
	 209A      1.004022   210A      1.009179   211A      1.014984  
	 212A      1.024775   213A      1.026630   214A      1.032370  
	 215A      1.041281   216A      1.044226   217A      1.048504  
	 218A      1.053625   219A      1.062728   220A      1.065978  
	 221A      1.069451   222A      1.076979   223A      1.083456  
	 224A      1.093642   225A      1.096644   226A      1.102654  
	 227A      1.103244   228A      1.110868   229A      1.112005  
	 230A      1.117471   231A      1.128946   232A      1.129799  
	 233A      1.135818   234A      1.141667   235A      1.147593  
	 236A      1.150910   237A      1.161763   238A      1.168801  
	 239A      1.172187   240A      1.178790   241A      1.183306  
	 242A      1.192717   243A      1.200856   244A      1.205219  
	 245A      1.206762   246A      1.217660   247A      1.220139  
	 248A      1.229146   249A      1.231749   250A      1.237886  
	 251A      1.243140   252A      1.254192   253A      1.256576  
	 254A      1.260342   255A      1.269508   256A      1.281941  
	 257A      1.284552   258A      1.288901   259A      1.298558  
	 260A      1.311252   261A      1.323487   262A      1.337954  
	 263A      1.343320   264A      1.352528   265A      1.358996  
	 266A      1.370487   267A      1.379099   268A      1.380469  
	 269A      1.383080   270A      1.383969   271A      1.399887  
	 272A      1.401150   273A      1.419188   274A      1.421377  
	 275A      1.428669   276A      1.431900   277A      1.435829  
	 278A      1.455869   279A      1.463081   280A      1.467629  
	 281A      1.472841   282A      1.491219   283A      1.495587  
	 284A      1.500337   285A      1.512155   286A      1.529955  
	 287A      1.529966   288A      1.547974   289A      1.566309  
	 290A      1.570913   291A      1.576263   292A      1.580952  
	 293A      1.595392   294A      1.607346   295A      1.622419  
	 296A      1.637047   297A      1.637684   298A      1.654674  
	 299A      1.661976   300A      1.668276   301A      1.688825  
	 302A      1.698397   303A      1.701291   304A      1.708316  
	 305A      1.716877   306A      1.742684   307A      1.742862  
	 308A      1.754935   309A      1.756869   310A      1.764388  
	 311A      1.775088   312A      1.789298   313A      1.795723  
	 314A      1.800534   315A      1.821992   316A      1.822676  
	 317A      1.848276   318A      1.854041   319A      1.855907  
	 320A      1.868764   321A      1.879755   322A      1.882227  
	 323A      1.889339   324A      1.894798   325A      1.910240  
	 326A      1.913587   327A      1.920274   328A      1.930085  
	 329A      1.941782   330A      1.957357   331A      1.958201  
	 332A      1.975239   333A      1.986613   334A      1.997428  
	 335A      2.009974   336A      2.018353   337A      2.021801  
	 338A      2.038696   339A      2.045718   340A      2.047895  
	 341A      2.056434   342A      2.058506   343A      2.066950  
	 344A      2.077327   345A      2.090066   346A      2.101650  
	 347A      2.109475   348A      2.127252   349A      2.140976  
	 350A      2.142199   351A      2.157145   352A      2.157991  
	 353A      2.158148   354A      2.169948   355A      2.173906  
	 356A      2.179714   357A      2.190026   358A      2.208139  
	 359A      2.238088   360A      2.241845   361A      2.265467  
	 362A      2.271003   363A      2.275629   364A      2.285387  
	 365A      2.299783   366A      2.324001   367A      2.337051  
	 368A      2.351781   369A      2.363888   370A      2.381771  
	 371A      2.388458   372A      2.415023   373A      2.418420  
	 374A      2.427516   375A      2.441939   376A      2.446803  
	 377A      2.458103   378A      2.473847   379A      2.494867  
	 380A      2.506629   381A      2.519457   382A      2.520649  
	 383A      2.540635   384A      2.554487   385A      2.564958  
	 386A      2.582086   387A      2.622427   388A      2.633706  
	 389A      2.638446   390A      2.657598   391A      2.659079  
	 392A      2.686328   393A      2.713621   394A      2.727641  
	 395A      2.750420   396A      2.758562   397A      2.769851  
	 398A      2.784632   399A      2.787438   400A      2.830445  
	 401A      2.854362   402A      2.883745   403A      2.888801  
	 404A      2.889002   405A      2.917662   406A      2.958353  
	 407A      2.967431   408A      2.967530   409A      3.021539  
	 410A      3.038663   411A      3.073463   412A      3.091638  
	 413A      3.108495   414A      3.145625   415A      3.191530  
	 416A      3.199989   417A      3.223548   418A      3.232480  
	 419A      3.239112   420A      3.260039   421A      3.260854  
	 422A      3.279401   423A      3.288661   424A      3.305246  
	 425A      3.319920   426A      3.320270   427A      3.344989  
	 428A      3.354025   429A      3.355636   430A      3.363018  
	 431A      3.382645   432A      3.397098   433A      3.397912  
	 434A      3.418708   435A      3.442864   436A      3.449273  
	 437A      3.457915   438A      3.458715   439A      3.487995  
	 440A      3.502201   441A      3.511898   442A      3.512165  
	 443A      3.552572   444A      3.553555   445A      3.564974  
	 446A      3.570260   447A      3.582698   448A      3.588800  
	 449A      3.593463   450A      3.602939   451A      3.617988  
	 452A      3.635289   453A      3.641534   454A      3.646731  
	 455A      3.656901   456A      3.658704   457A      3.666095  
	 458A      3.673672   459A      3.677273   460A      3.699156  
	 461A      3.726418   462A      3.730558   463A      3.760321  
	 464A      3.768638   465A      3.772233   466A      3.818124  
	 467A      3.821371   468A      3.838124   469A      3.847287  
	 470A      3.849901   471A      3.866465   472A      3.870442  
	 473A      3.876731   474A      3.901146   475A      3.917287  
	 476A      3.923618   477A      3.928671   478A      3.934673  
	 479A      3.942835   480A      3.961940   481A      3.970755  
	 482A      3.988446   483A      3.993059   484A      4.000254  
	 485A      4.015701   486A      4.043823   487A      4.069456  
	 488A      4.076348   489A      4.077503   490A      4.081792  
	 491A      4.089523   492A      4.096459   493A      4.115985  
	 494A      4.121187   495A      4.174699   496A      4.177674  
	 497A      4.185152   498A      4.198818   499A      4.214206  
	 500A      4.214288   501A      4.243777   502A      4.248439  
	 503A      4.262266   504A      4.268340   505A      4.283541  
	 506A      4.288256   507A      4.299512   508A      4.325733  
	 509A      4.330113   510A      4.337645   511A      4.349917  
	 512A      4.359701   513A      4.373570   514A      4.385154  
	 515A      4.389700   516A      4.392041   517A      4.403690  
	 518A      4.414755   519A      4.428226   520A      4.433946  
	 521A      4.443889   522A      4.454500   523A      4.458433  
	 524A      4.478016   525A      4.509141   526A      4.515794  
	 527A      4.525138   528A      4.532750   529A      4.552737  
	 530A      4.565317   531A      4.580362   532A      4.582232  
	 533A      4.607554   534A      4.626146   535A      4.637133  
	 536A      4.651460   537A      4.674821   538A      4.711595  
	 539A      4.728678   540A      4.729168   541A      4.746209  
	 542A      4.750654   543A      4.762726   544A      4.766673  
	 545A      4.795792   546A      4.815350   547A      4.819465  
	 548A      4.823799   549A      4.849895   550A      4.865115  
	 551A      4.882752   552A      4.914917   553A      4.944731  
	 554A      4.950743   555A      4.968916   556A      4.973847  
	 557A      4.989265   558A      4.999906   559A      5.005423  
	 560A      5.010035   561A      5.031299   562A      5.040536  
	 563A      5.056527   564A      5.074439   565A      5.088166  
	 566A      5.092592   567A      5.128229   568A      5.139843  
	 569A      5.146933   570A      5.157568   571A      5.167157  
	 572A      5.170469   573A      5.194566   574A      5.214014  
	 575A      5.214413   576A      5.226224   577A      5.250780  
	 578A      5.254161   579A      5.295875   580A      5.300656  
	 581A      5.308645   582A      5.312218   583A      5.353913  
	 584A      5.401517   585A      5.404012   586A      5.415022  
	 587A      5.450423   588A      5.458489   589A      5.502742  
	 590A      5.534560   591A      5.578938   592A      5.579178  
	 593A      5.591616   594A      5.647213   595A      5.667907  
	 596A      5.671582   597A      5.689829   598A      5.696805  
	 599A      5.699404   600A      5.731529   601A      5.753045  
	 602A      5.762223   603A      5.784062   604A      5.803639  
	 605A      5.907252   606A      5.916379   607A      5.932627  
	 608A      5.940893   609A      5.983503   610A      5.991642  
	 611A      6.058500   612A      6.078460   613A      6.101474  
	 614A      6.164125   615A      6.170848   616A      6.240139  
	 617A      6.255045   618A      6.278040   619A      6.327480  
	 620A      6.423714   621A      6.456852   622A      6.471144  
	 623A      6.530517   624A      6.536631   625A      6.565741  
	 626A      6.618359   627A      6.660555   628A      6.708557  
	 629A      6.781701   630A      6.798612   631A      6.876376  
	 632A      6.975015   633A      7.027311   634A      7.087104  
	 635A      7.129778   636A      7.163495   637A      7.189942  
	 638A      7.230009   639A      7.278305   640A      7.601235  
	 641A      7.876189   642A      7.919013   643A      8.070160  
	 644A      8.098753   645A      8.193511   646A      8.264169  
	 647A      8.825874   648A      8.951848   649A      9.881568  
	 650A      9.969412   651A      9.971625   652A     10.395829  
	 653A     11.249739   654A     11.757776   655A     12.603370  
	 656A     13.617199   657A     13.815641   658A     16.468781  
	 659A     16.754873   660A     17.530774   661A     18.868086  
	 662A     19.459005   663A     19.897343   664A     20.261794  
	 665A     20.288339   666A     21.068305   667A     67.125890  

	Final Occupation by Irrep:
	          A 
	DOCC [    31 ]

  Energy converged.

  @RHF Final Energy:  -361.59048282681448

   => Energetics <=

    Nuclear Repulsion Energy =            401.0198740476374155
    One-Electron Energy =               -1283.6634355162591419
    Two-Electron Energy =                 521.0530786418071330
    DFT Exchange-Correlation Energy =       0.0000000000000000
    Empirical Dispersion Energy =           0.0000000000000000
    Total Energy =                       -361.5904828268146503



Properties will be evaluated at   0.000000,   0.000000,   0.000000 Bohr
  ==> Properties <==


Properties computed using the SCF density density matrix
  Nuclear Dipole Moment: (a.u.)
     X:    22.2134      Y:    58.0524      Z:    33.9358

  Electronic Dipole Moment: (a.u.)
     X:   -22.3114      Y:   -58.7955      Z:   -34.3231

  Dipole Moment: (a.u.)
     X:    -0.0980      Y:    -0.7430      Z:    -0.3873     Total:     0.8436

  Dipole Moment: (Debye)
     X:    -0.2490      Y:    -1.8886      Z:    -0.9844     Total:     2.1443


  Saving occupied orbitals to File 180.

  Saving SAPT 2-MONOMER_A file.

*** tstop() called on node36.bme.utexas.edu at Wed Sep  3 20:43:31 2014
Module time:
	user time   =     317.78 seconds =       5.30 minutes
	system time =       3.86 seconds =       0.06 minutes
	total time  =         92 seconds =       1.53 minutes
Total time:
	user time   =     772.23 seconds =      12.87 minutes
	system time =      11.77 seconds =       0.20 minutes
	total time  =        224 seconds =       3.73 minutes

  //>>>>>>>>>>>>>>>>>>>>>>>>>>>>>>>>>>>//
  //            Monomer B HF           //
  //<<<<<<<<<<<<<<<<<<<<<<<<<<<<<<<<<<<//


  No DF_BASIS_SCF auxiliary basis selected, defaulting to aug-cc-pvtz-jkfit


*** tstart() called on node36.bme.utexas.edu
*** at Wed Sep  3 20:43:31 2014


         ---------------------------------------------------------
                                   SCF
            by Justin Turney, Rob Parrish, and Andy Simmonett
                              RHF Reference
                        4 Threads,  27000 MiB Core
         ---------------------------------------------------------

  ==> Geometry <==

    Molecular point group: c1
    Full point group: C1

    Geometry (in Angstrom), charge = 0, multiplicity = 1:

       Center              X                  Y                   Z       
    ------------   -----------------  -----------------  -----------------
           N(Gh)      0.311389657791    -1.217780696743    -0.515501678912
           C(Gh)      0.686622657791     1.936514303257     1.118234321088
           C(Gh)     -0.588737342209     2.472929303257     1.057907321088
           C(Gh)     -1.649767342209     1.772716303257     0.448348321088
           C(Gh)     -1.454899342209     0.520551303257    -0.113378678912
           C(Gh)     -0.167312342209    -0.020483696743    -0.052218678912
           C(Gh)      0.918103657791     0.668587303257     0.558061321088
           C(Gh)      2.061688657791    -0.174641696743     0.435417321088
           C(Gh)      1.648841657791    -1.310891696743    -0.223210678912
           H(Gh)      1.492409657791     2.484663303257     1.589149321088
           H(Gh)     -0.779244342209     3.448003303257     1.485542321088
           H(Gh)     -2.633566342209     2.221236303257     0.418760321088
           H(Gh)     -2.268942342209    -0.017381696743    -0.581390678912
           H(Gh)      3.061058657791     0.022576303257     0.783996321088
           H(Gh)     -0.233185342209    -1.920883696743    -0.996089678912
           H(Gh)      2.209339657791    -2.185410696743    -0.508358678912
           O         -1.215692842209    -3.148206496743    -1.843140878912
           H         -1.767493842209    -3.826810496743    -1.448697878912
           H         -1.431966842209    -3.178300496743    -2.777428878912

  Running in c1 symmetry.

  Nuclear repulsion =    9.173565664457588

  Charge       = 0
  Multiplicity = 1
  Electrons    = 10
  Nalpha       = 5
  Nbeta        = 5

  ==> Algorithm <==

  SCF Algorithm Type is DF.
  DIIS enabled.
  MOM disabled.
  Fractional occupation disabled.
  Guess Type is SAD.
  Energy threshold   = 1.00e-08
  Density threshold  = 1.00e-08
  Integral threshold = 0.00e+00

  ==> Primary Basis <==

  Basis Set: AUG-CC-PVTZ
    Number of shells: 221
    Number of basis function: 667
    Number of Cartesian functions: 775
    Spherical Harmonics?: true
    Max angular momentum: 3

  ==> Pre-Iterations <==

   -------------------------------------------------------
    Irrep   Nso     Nmo     Nalpha   Nbeta   Ndocc  Nsocc
   -------------------------------------------------------
     A        667     667       0       0       0       0
   -------------------------------------------------------
    Total     667     667       5       5       5       0
   -------------------------------------------------------

 OEINTS: Wrapper to libmints.
   by Justin Turney

   Calculation information:
      Number of atoms:                  19
      Number of AO shells:             221
      Number of SO shells:             221
      Number of primitives:            399
      Number of atomic orbitals:       775
      Number of basis functions:       667

      Number of irreps:                  1
      Number of functions per irrep: [ 667 ]

      Overlap, kinetic, potential, dipole, and quadrupole integrals
        stored in file 35.

  ==> Integral Setup <==

  ==> DFJK: Density-Fitted J/K Matrices <==

    J tasked:                  Yes
    K tasked:                  Yes
    wK tasked:                  No
    OpenMP threads:              4
    Integrals threads:           4
    Memory (MB):             19311
    Algorithm:                Core
    Integral Cache:           LOAD
    Schwarz Cutoff:          0E+00
    Fitting Condition:       1E-12

   => Auxiliary Basis Set <=

  Basis Set: aug-cc-pvtz-jkfit
    Number of shells: 426
    Number of basis function: 1454
    Number of Cartesian functions: 1805
    Spherical Harmonics?: true
    Max angular momentum: 4

  Minimum eigenvalue in the overlap matrix is 5.4847527523E-07.
  Using Symmetric Orthogonalization.
  SCF Guess: Superposition of Atomic Densities via on-the-fly atomic UHF.

  Guess energy:   -51.66807923515148

  ==> Iterations <==

                        Total Energy        Delta E     RMS |[F,P]|

   @RHF iter   0:   -75.98976393083862   -7.59898e+01   2.55918e-03 
   @RHF iter   1:   -76.02786701199653   -3.81031e-02   4.12736e-04 
   @RHF iter   2:   -76.05190900166194   -2.40420e-02   2.35550e-04 DIIS
   @RHF iter   3:   -76.05984304440548   -7.93404e-03   3.99789e-05 DIIS
   @RHF iter   4:   -76.06043428139975   -5.91237e-04   1.29989e-05 DIIS
   @RHF iter   5:   -76.06054548352090   -1.11202e-04   3.47989e-06 DIIS
   @RHF iter   6:   -76.06055511964828   -9.63613e-06   5.80262e-07 DIIS
   @RHF iter   7:   -76.06055535626211   -2.36614e-07   1.01054e-07 DIIS
   @RHF iter   8:   -76.06055536304707   -6.78496e-09   2.19408e-08 DIIS
   @RHF iter   9:   -76.06055536334182   -2.94747e-10   5.82027e-09 DIIS

  ==> Post-Iterations <==

	Orbital Energies (a.u.)
	-----------------------

	Doubly Occupied:                                                      

	   1A    -20.567465     2A     -1.352425     3A     -0.716269  
	   4A     -0.584690     5A     -0.510153  

	Virtual:                                                              

	   6A      0.019183     7A      0.026676     8A      0.030843  
	   9A      0.042152    10A      0.045808    11A      0.046338  
	  12A      0.055570    13A      0.065806    14A      0.069760  
	  15A      0.070186    16A      0.081165    17A      0.087301  
	  18A      0.091151    19A      0.098646    20A      0.104249  
	  21A      0.108067    22A      0.117520    23A      0.121210  
	  24A      0.123239    25A      0.123674    26A      0.130406  
	  27A      0.131964    28A      0.134611    29A      0.136368  
	  30A      0.152348    31A      0.154735    32A      0.157406  
	  33A      0.159866    34A      0.165309    35A      0.169183  
	  36A      0.172352    37A      0.175482    38A      0.184772  
	  39A      0.186240    40A      0.186259    41A      0.187712  
	  42A      0.201197    43A      0.204209    44A      0.215233  
	  45A      0.217983    46A      0.225974    47A      0.231525  
	  48A      0.239863    49A      0.249716    50A      0.254280  
	  51A      0.265339    52A      0.268250    53A      0.276309  
	  54A      0.278651    55A      0.283431    56A      0.286686  
	  57A      0.292760    58A      0.293088    59A      0.308317  
	  60A      0.316356    61A      0.317445    62A      0.323154  
	  63A      0.326859    64A      0.329021    65A      0.331961  
	  66A      0.336194    67A      0.342685    68A      0.349623  
	  69A      0.360788    70A      0.368748    71A      0.370378  
	  72A      0.374787    73A      0.376010    74A      0.378001  
	  75A      0.383938    76A      0.384704    77A      0.388288  
	  78A      0.390204    79A      0.395939    80A      0.403875  
	  81A      0.407155    82A      0.407659    83A      0.409372  
	  84A      0.417468    85A      0.419497    86A      0.424926  
	  87A      0.438989    88A      0.443360    89A      0.451543  
	  90A      0.452500    91A      0.453271    92A      0.458667  
	  93A      0.461350    94A      0.471322    95A      0.472241  
	  96A      0.479226    97A      0.491387    98A      0.494673  
	  99A      0.501044   100A      0.506118   101A      0.510386  
	 102A      0.517208   103A      0.525403   104A      0.537695  
	 105A      0.545732   106A      0.550233   107A      0.555638  
	 108A      0.565804   109A      0.573702   110A      0.574334  
	 111A      0.586815   112A      0.599659   113A      0.605306  
	 114A      0.610919   115A      0.621243   116A      0.621333  
	 117A      0.628261   118A      0.643889   119A      0.646536  
	 120A      0.652815   121A      0.653954   122A      0.656754  
	 123A      0.658284   124A      0.661278   125A      0.670164  
	 126A      0.671107   127A      0.697651   128A      0.704861  
	 129A      0.706757   130A      0.720306   131A      0.720417  
	 132A      0.724322   133A      0.724499   134A      0.729329  
	 135A      0.734389   136A      0.748251   137A      0.750778  
	 138A      0.758649   139A      0.766668   140A      0.767592  
	 141A      0.767913   142A      0.773261   143A      0.778754  
	 144A      0.779962   145A      0.784778   146A      0.797361  
	 147A      0.799739   148A      0.804721   149A      0.822265  
	 150A      0.823896   151A      0.835389   152A      0.841403  
	 153A      0.851914   154A      0.860768   155A      0.867775  
	 156A      0.868797   157A      0.877469   158A      0.880024  
	 159A      0.883977   160A      0.890263   161A      0.904502  
	 162A      0.906800   163A      0.910365   164A      0.923906  
	 165A      0.934399   166A      0.945734   167A      0.960563  
	 168A      0.961883   169A      0.967724   170A      0.972182  
	 171A      0.977752   172A      1.000214   173A      1.001885  
	 174A      1.008178   175A      1.011357   176A      1.018129  
	 177A      1.031692   178A      1.039765   179A      1.042959  
	 180A      1.049050   181A      1.051198   182A      1.054461  
	 183A      1.063158   184A      1.067812   185A      1.068908  
	 186A      1.075862   187A      1.088746   188A      1.090504  
	 189A      1.097883   190A      1.109069   191A      1.111876  
	 192A      1.115277   193A      1.125821   194A      1.130656  
	 195A      1.143991   196A      1.156489   197A      1.157956  
	 198A      1.159816   199A      1.165470   200A      1.170526  
	 201A      1.182603   202A      1.189830   203A      1.199837  
	 204A      1.206334   205A      1.208597   206A      1.213821  
	 207A      1.215787   208A      1.231523   209A      1.237655  
	 210A      1.242640   211A      1.245607   212A      1.254664  
	 213A      1.264927   214A      1.267550   215A      1.276630  
	 216A      1.288417   217A      1.291098   218A      1.295159  
	 219A      1.301179   220A      1.310732   221A      1.311213  
	 222A      1.315617   223A      1.324561   224A      1.329304  
	 225A      1.344727   226A      1.351447   227A      1.361221  
	 228A      1.369000   229A      1.372828   230A      1.374017  
	 231A      1.391500   232A      1.397018   233A      1.408737  
	 234A      1.413518   235A      1.421000   236A      1.431664  
	 237A      1.433442   238A      1.446435   239A      1.447359  
	 240A      1.451046   241A      1.452870   242A      1.464893  
	 243A      1.467851   244A      1.479833   245A      1.487239  
	 246A      1.493259   247A      1.508500   248A      1.510747  
	 249A      1.516036   250A      1.533372   251A      1.540724  
	 252A      1.542171   253A      1.547198   254A      1.560314  
	 255A      1.577451   256A      1.580019   257A      1.590403  
	 258A      1.599042   259A      1.599658   260A      1.600980  
	 261A      1.616944   262A      1.617782   263A      1.623904  
	 264A      1.636578   265A      1.647300   266A      1.647500  
	 267A      1.652458   268A      1.656855   269A      1.674197  
	 270A      1.682278   271A      1.685987   272A      1.693411  
	 273A      1.703671   274A      1.706476   275A      1.722528  
	 276A      1.726893   277A      1.739959   278A      1.747037  
	 279A      1.755230   280A      1.769365   281A      1.780998  
	 282A      1.789778   283A      1.797519   284A      1.804095  
	 285A      1.823683   286A      1.825148   287A      1.857643  
	 288A      1.874460   289A      1.875219   290A      1.886064  
	 291A      1.897319   292A      1.900037   293A      1.934398  
	 294A      1.935545   295A      1.938099   296A      1.955925  
	 297A      1.971127   298A      1.983810   299A      1.993717  
	 300A      2.005226   301A      2.026395   302A      2.031853  
	 303A      2.033482   304A      2.047855   305A      2.069998  
	 306A      2.085608   307A      2.097658   308A      2.100072  
	 309A      2.102595   310A      2.130549   311A      2.144183  
	 312A      2.158710   313A      2.163516   314A      2.172105  
	 315A      2.190504   316A      2.209431   317A      2.230869  
	 318A      2.232402   319A      2.242963   320A      2.245642  
	 321A      2.269693   322A      2.277407   323A      2.281550  
	 324A      2.288004   325A      2.295281   326A      2.302400  
	 327A      2.306367   328A      2.310759   329A      2.319004  
	 330A      2.329106   331A      2.333348   332A      2.345357  
	 333A      2.350370   334A      2.359835   335A      2.362756  
	 336A      2.374211   337A      2.378837   338A      2.388480  
	 339A      2.394089   340A      2.412178   341A      2.418750  
	 342A      2.440819   343A      2.465985   344A      2.469928  
	 345A      2.487727   346A      2.496881   347A      2.505681  
	 348A      2.506593   349A      2.513665   350A      2.515592  
	 351A      2.517917   352A      2.540597   353A      2.541114  
	 354A      2.551954   355A      2.582930   356A      2.596350  
	 357A      2.598354   358A      2.611901   359A      2.645649  
	 360A      2.668946   361A      2.677250   362A      2.681959  
	 363A      2.686853   364A      2.703481   365A      2.706766  
	 366A      2.732969   367A      2.738954   368A      2.747289  
	 369A      2.766113   370A      2.778822   371A      2.798530  
	 372A      2.804919   373A      2.823591   374A      2.852408  
	 375A      2.860500   376A      2.868606   377A      2.875524  
	 378A      2.881422   379A      2.901794   380A      2.909278  
	 381A      2.915449   382A      2.933360   383A      2.948563  
	 384A      2.976407   385A      2.979100   386A      2.984013  
	 387A      3.010556   388A      3.011734   389A      3.042027  
	 390A      3.060842   391A      3.076212   392A      3.117210  
	 393A      3.179662   394A      3.190233   395A      3.202742  
	 396A      3.213949   397A      3.273737   398A      3.322928  
	 399A      3.349568   400A      3.351598   401A      3.370766  
	 402A      3.403859   403A      3.467725   404A      3.520904  
	 405A      3.556938   406A      3.621619   407A      3.640207  
	 408A      3.708020   409A      3.764399   410A      3.800006  
	 411A      3.857458   412A      3.892054   413A      3.900936  
	 414A      3.904794   415A      3.933452   416A      3.945938  
	 417A      3.985220   418A      3.992047   419A      3.995892  
	 420A      4.029539   421A      4.034093   422A      4.049736  
	 423A      4.052513   424A      4.066089   425A      4.067539  
	 426A      4.095997   427A      4.096015   428A      4.112761  
	 429A      4.118314   430A      4.119411   431A      4.137971  
	 432A      4.160144   433A      4.167008   434A      4.171176  
	 435A      4.177921   436A      4.190377   437A      4.215365  
	 438A      4.224320   439A      4.224598   440A      4.258484  
	 441A      4.267783   442A      4.281606   443A      4.284471  
	 444A      4.302278   445A      4.309077   446A      4.311486  
	 447A      4.322093   448A      4.331397   449A      4.350232  
	 450A      4.371991   451A      4.383965   452A      4.409311  
	 453A      4.413833   454A      4.424906   455A      4.431176  
	 456A      4.444636   457A      4.450666   458A      4.472789  
	 459A      4.486340   460A      4.491792   461A      4.501470  
	 462A      4.505230   463A      4.518693   464A      4.526850  
	 465A      4.541762   466A      4.574900   467A      4.586904  
	 468A      4.594950   469A      4.603348   470A      4.623379  
	 471A      4.627836   472A      4.639309   473A      4.648906  
	 474A      4.666153   475A      4.674734   476A      4.689536  
	 477A      4.721481   478A      4.739456   479A      4.740387  
	 480A      4.769105   481A      4.785697   482A      4.795262  
	 483A      4.815877   484A      4.852304   485A      4.860848  
	 486A      4.874365   487A      4.890441   488A      4.892104  
	 489A      4.906321   490A      4.930879   491A      4.948616  
	 492A      4.976670   493A      4.979421   494A      4.987017  
	 495A      5.003541   496A      5.012522   497A      5.023277  
	 498A      5.026956   499A      5.044716   500A      5.052536  
	 501A      5.085414   502A      5.113367   503A      5.122858  
	 504A      5.129965   505A      5.132324   506A      5.160955  
	 507A      5.163871   508A      5.166151   509A      5.194101  
	 510A      5.196449   511A      5.214970   512A      5.217318  
	 513A      5.232266   514A      5.261259   515A      5.263421  
	 516A      5.276153   517A      5.284202   518A      5.295664  
	 519A      5.318769   520A      5.320627   521A      5.342128  
	 522A      5.362209   523A      5.371812   524A      5.400719  
	 525A      5.415008   526A      5.437489   527A      5.444376  
	 528A      5.477469   529A      5.480278   530A      5.485563  
	 531A      5.513023   532A      5.526863   533A      5.531455  
	 534A      5.535952   535A      5.555450   536A      5.582867  
	 537A      5.583340   538A      5.595242   539A      5.617809  
	 540A      5.637935   541A      5.643928   542A      5.659580  
	 543A      5.675935   544A      5.696533   545A      5.714875  
	 546A      5.750665   547A      5.751269   548A      5.760478  
	 549A      5.770376   550A      5.779490   551A      5.805985  
	 552A      5.812134   553A      5.872425   554A      5.892430  
	 555A      5.908554   556A      5.946616   557A      5.983929  
	 558A      6.002589   559A      6.004317   560A      6.024572  
	 561A      6.061996   562A      6.064108   563A      6.092830  
	 564A      6.121410   565A      6.144895   566A      6.152624  
	 567A      6.208397   568A      6.230253   569A      6.233325  
	 570A      6.275736   571A      6.298533   572A      6.316935  
	 573A      6.360027   574A      6.421240   575A      6.430698  
	 576A      6.445302   577A      6.465201   578A      6.564453  
	 579A      6.589097   580A      6.600298   581A      6.623009  
	 582A      6.638117   583A      6.689109   584A      6.771228  
	 585A      6.795651   586A      6.800898   587A      6.850124  
	 588A      6.897236   589A      6.938853   590A      6.968514  
	 591A      6.978110   592A      6.990978   593A      7.050996  
	 594A      7.123225   595A      7.129506   596A      7.148391  
	 597A      7.184122   598A      7.185511   599A      7.206259  
	 600A      7.222107   601A      7.250030   602A      7.250985  
	 603A      7.325702   604A      7.329705   605A      7.358448  
	 606A      7.362634   607A      7.400943   608A      7.402247  
	 609A      7.467923   610A      7.496915   611A      7.513428  
	 612A      7.522400   613A      7.640602   614A      7.670114  
	 615A      7.712825   616A      7.726284   617A      7.727750  
	 618A      7.820652   619A      7.866385   620A      7.884751  
	 621A      7.913061   622A      7.935884   623A      7.965431  
	 624A      7.981425   625A      7.981966   626A      8.036530  
	 627A      8.107321   628A      8.167901   629A      8.290598  
	 630A      8.350153   631A      8.370739   632A      8.449644  
	 633A      8.582922   634A      8.666973   635A      8.730533  
	 636A      8.804233   637A      8.900395   638A      9.108616  
	 639A      9.191028   640A      9.334335   641A      9.546837  
	 642A      9.572908   643A      9.781737   644A      9.922227  
	 645A     10.059268   646A     10.174768   647A     10.358234  
	 648A     10.737308   649A     11.009703   650A     11.190158  
	 651A     11.403540   652A     11.470678   653A     11.524932  
	 654A     11.605722   655A     11.894777   656A     12.353475  
	 657A     13.486446   658A     17.002659   659A     50.587208  
	 660A     51.022874   661A     52.652790   662A     53.863373  
	 663A     56.197772   664A     56.787779   665A     57.229337  
	 666A     57.637091   667A     65.980168  

	Final Occupation by Irrep:
	          A 
	DOCC [     5 ]

  Energy converged.

  @RHF Final Energy:   -76.06055536334182

   => Energetics <=

    Nuclear Repulsion Energy =              9.1735656644575876
    One-Electron Energy =                -123.0062363976714863
    Two-Electron Energy =                  37.7721153698718837
    DFT Exchange-Correlation Energy =       0.0000000000000000
    Empirical Dispersion Energy =           0.0000000000000000
    Total Energy =                        -76.0605553633420186



Properties will be evaluated at   0.000000,   0.000000,   0.000000 Bohr
  ==> Properties <==


Properties computed using the SCF density density matrix
  Nuclear Dipole Moment: (a.u.)
     X:   -24.4247      Y:   -60.8317      Z:   -35.8505

  Electronic Dipole Moment: (a.u.)
     X:    23.9151      Y:    60.3614      Z:    35.4923

  Dipole Moment: (a.u.)
     X:    -0.5096      Y:    -0.4703      Z:    -0.3582     Total:     0.7805

  Dipole Moment: (Debye)
     X:    -1.2952      Y:    -1.1954      Z:    -0.9105     Total:     1.9838


  Saving occupied orbitals to File 180.

  Saving SAPT 2-MONOMER_B file.

*** tstop() called on node36.bme.utexas.edu at Wed Sep  3 20:44:24 2014
Module time:
	user time   =     174.41 seconds =       2.91 minutes
	system time =       2.58 seconds =       0.04 minutes
	total time  =         53 seconds =       0.88 minutes
Total time:
	user time   =     946.65 seconds =      15.78 minutes
	system time =      14.35 seconds =       0.24 minutes
	total time  =        277 seconds =       4.62 minutes
  No DF_BASIS_SAPT auxiliary basis selected, defaulting to aug-cc-pvtz-ri

  //>>>>>>>>>>>>>>>>>>>>>>>>>>>>>>>>>>>//
  //               SAPT2+              //
  //<<<<<<<<<<<<<<<<<<<<<<<<<<<<<<<<<<<//


*** tstart() called on node36.bme.utexas.edu
*** at Wed Sep  3 20:44:24 2014

        SAPT2+  
    Ed Hohenstein
     6 June 2009

      Orbital Information
  --------------------------
    NSO        =       667
    NMO        =       667
    NRI        =      1474
    NOCC A     =        31
    NOCC B     =         5
    FOCC A     =         9
    FOCC B     =         1
    NVIR A     =       636
    NVIR B     =       662

    Estimated memory usage: 15275.4 MB

    Elst10,r            =    -0.017745738950 H
    Exch10 (S^2)        =     0.019686368746 H
    Exch10              =     0.019932902160 H
    Ind20,r (A<-B)      =    -0.003427595597 H
    Ind20,r (B<-A)      =    -0.004572916030 H
    Ind20,r             =    -0.008000511626 H
    Exch-Ind20,r (A<-B) =     0.002464759728 H
    Exch-Ind20,r (B<-A) =     0.002080143702 H
    Exch-Ind20,r        =     0.004544903430 H
    Disp20              =    -0.007078794907 H
    Exch-Disp20         =     0.001251392220 H
    Elst12,r            =     0.000109070393 H
    Exch11              =     0.000004179273 H
    Exch12              =     0.002164841512 H
    Ind22               =    -0.001059884925 H
    Disp21              =     0.000477470184 H
    Disp22 (SDQ)        =     0.000048549110 H

    (i =   1 of   4)      11573 seconds
    (i =   2 of   4)      23098 seconds
    (i =   3 of   4)      38618 seconds
    (i =   4 of   4)      54144 seconds

    Disp220 (T)         =    -0.000647987902 H

    (i =   1 of  22)       1619 seconds
    (i =   2 of  22)       3290 seconds
    (i =   3 of  22)       4951 seconds
    (i =   4 of  22)       6613 seconds
    (i =   5 of  22)       8322 seconds
    (i =   6 of  22)      10332 seconds
    (i =   7 of  22)      12399 seconds
    (i =   8 of  22)      14445 seconds
    (i =   9 of  22)      16482 seconds
    (i =  10 of  22)      18496 seconds
    (i =  11 of  22)      20524 seconds
    (i =  12 of  22)      22491 seconds
    (i =  13 of  22)      24317 seconds
    (i =  14 of  22)      25833 seconds
    (i =  15 of  22)      27112 seconds
    (i =  16 of  22)      28074 seconds
    (i =  17 of  22)      29045 seconds
    (i =  18 of  22)      30012 seconds
    (i =  19 of  22)      30999 seconds
    (i =  20 of  22)      31987 seconds
    (i =  21 of  22)      32976 seconds
    (i =  22 of  22)      33968 seconds

    Disp202 (T)         =    -0.000568330154 H

    Disp22 (T)          =    -0.001216318056 H

    SAPT Results  
  -----------------------------------------------------------------------
    Electrostatics         -17.63666856 mH     -11.06717707 kcal mol^-1
      Elst10,r             -17.74573895 mH     -11.13561978 kcal mol^-1
      Elst12,r               0.10907039 mH       0.06844271 kcal mol^-1

    Exchange                22.10192294 mH      13.86916662 kcal mol^-1
      Exch10                19.93290216 mH      12.50808547 kcal mol^-1
      Exch10(S^2)           19.68636875 mH      12.35338341 kcal mol^-1
      Exch11(S^2)            0.00417927 mH       0.00262253 kcal mol^-1
      Exch12(S^2)            2.16484151 mH       1.35845861 kcal mol^-1

    Induction               -6.79813497 mH      -4.26589427 kcal mol^-1
      Ind20,r               -8.00051163 mH      -5.02039705 kcal mol^-1
      Ind22                 -1.05988493 mH      -0.66508786 kcal mol^-1
      Exch-Ind20,r           4.54490343 mH       2.85197008 kcal mol^-1
      Exch-Ind22             0.60209582 mH       0.37782085 kcal mol^-1
      delta HF,r (2)        -2.88473767 mH      -1.81020029 kcal mol^-1

    Dispersion              -6.51770145 mH      -4.08991958 kcal mol^-1
      Disp20                -7.07879491 mH      -4.44201105 kcal mol^-1
      Disp21                 0.47747018 mH       0.29961708 kcal mol^-1
      Disp22 (SDQ)           0.04854911 mH       0.03046503 kcal mol^-1
      Disp22 (T)            -1.21631806 mH      -0.76325114 kcal mol^-1
      Exch-Disp20            1.25139222 mH       0.78526051 kcal mol^-1

    Total HF                -4.15318265 mH      -2.60616157 kcal mol^-1
    Total SAPT0             -9.98058534 mH      -6.26291212 kcal mol^-1
    Total SAPT2             -8.16028327 mH      -5.12065527 kcal mol^-1
    Total SAPT2+            -8.85058203 mH      -5.55382430 kcal mol^-1

*** tstop() called on node36.bme.utexas.edu at Fri Sep  5 03:06:27 2014
Module time:
	user time   =  395874.18 seconds =    6597.90 minutes
	system time =     621.12 seconds =      10.35 minutes
	total time  =     109323 seconds =    1822.05 minutes
Total time:
	user time   =  396820.83 seconds =    6613.68 minutes
	system time =     635.47 seconds =      10.59 minutes
	total time  =     109600 seconds =    1826.67 minutes

*** PSI4 exiting successfully. Buy a developer a beer!
