
    -----------------------------------------------------------------------
          Psi4: An Open-Source Ab Initio Electronic Structure Package
                               Psi4 1.4a2.dev224 

                         Git: Rev {master} e453b16 


    R. M. Parrish, L. A. Burns, D. G. A. Smith, A. C. Simmonett,
    A. E. DePrince III, E. G. Hohenstein, U. Bozkaya, A. Yu. Sokolov,
    R. Di Remigio, R. M. Richard, J. F. Gonthier, A. M. James,
    H. R. McAlexander, A. Kumar, M. Saitow, X. Wang, B. P. Pritchard,
    P. Verma, H. F. Schaefer III, K. Patkowski, R. A. King, E. F. Valeev,
    F. A. Evangelista, J. M. Turney, T. D. Crawford, and C. D. Sherrill,
    J. Chem. Theory Comput. 13(7) pp 3185--3197 (2017).
    (doi: 10.1021/acs.jctc.7b00174)


                         Additional Contributions by
    P. Kraus, H. Kruse, M. H. Lechner, M. C. Schieber, R. A. Shaw,
    A. Alenaizan, R. Galvelis, Z. L. Glick, S. Lehtola, and J. P. Misiewicz

    -----------------------------------------------------------------------


    Psi4 started on: Friday, 24 April 2020 12:49AM

    Process ID: 89642
    Host:       node43.bme.utexas.edu
    PSIDATADIR: /home/liuchw/anaconda3/envs/psi4env/share/psi4
    Memory:     500.0 MiB
    Threads:    8
    
  ==> Input File <==

--------------------------------------------------------------------------
#Generated by lconvert.py for sapt job

memory 50 GB

molecule  {
0 1
  C       1.952940   -0.000020    0.000020
  H       2.317650   -0.471620    0.907560
  H       2.317720   -0.550420   -0.861990
  H       2.320030    1.020920   -0.045480
  H       0.867410    0.001600   -0.000090
--
0 1
  O      -1.700230    0.000380   -0.000110
  H      -2.295850    0.752250    0.000380
  H      -2.291380   -0.755000    0.000380
units angstrom
no_reorient
symmetry c1
}

set {
scf_type DF
basis aug-cc-pvtz
freeze_core True
guess SAD
}
energy('sapt2+')
--------------------------------------------------------------------------

  Memory set to  46.566 GiB by Python driver.

Scratch directory: /scratch/liuchw/

  //>>>>>>>>>>>>>>>>>>>>>>>>>>>>>>>>>>>//
  //              Dimer HF             //
  //<<<<<<<<<<<<<<<<<<<<<<<<<<<<<<<<<<<//


*** tstart() called on node43.bme.utexas.edu
*** at Fri Apr 24 00:49:29 2020

   => Loading Basis Set <=

    Name: AUG-CC-PVTZ
    Role: ORBITAL
    Keyword: BASIS
    atoms 1        entry C          line   239 file /home/liuchw/anaconda3/envs/psi4env/share/psi4/basis/aug-cc-pvtz.gbs 
    atoms 2-5, 7-8 entry H          line    40 file /home/liuchw/anaconda3/envs/psi4env/share/psi4/basis/aug-cc-pvtz.gbs 
    atoms 6        entry O          line   331 file /home/liuchw/anaconda3/envs/psi4env/share/psi4/basis/aug-cc-pvtz.gbs 


         ---------------------------------------------------------
                                   SCF
               by Justin Turney, Rob Parrish, Andy Simmonett
                          and Daniel G. A. Smith
                              RHF Reference
                        8 Threads,  47683 MiB Core
         ---------------------------------------------------------

  ==> Geometry <==

    Molecular point group: c1
    Full point group: C1

    Geometry (in Angstrom), charge = 0, multiplicity = 1:

       Center              X                  Y                   Z               Mass       
    ------------   -----------------  -----------------  -----------------  -----------------
         C            1.967594166820    -0.000124292310     0.000042134322    12.000000000000
         H            2.332304166820    -0.471724292310     0.907582134322     1.007825032230
         H            2.332374166820    -0.550524292310    -0.861967865678     1.007825032230
         H            2.334684166820     1.020815707690    -0.045457865678     1.007825032230
         H            0.882064166820     0.001495707690    -0.000067865678     1.007825032230
         O           -1.685575833180     0.000275707690    -0.000087865678    15.994914619570
         H           -2.281195833180     0.752145707690     0.000402134322     1.007825032230
         H           -2.276725833180    -0.755104292310     0.000402134322     1.007825032230

  Running in c1 symmetry.

  Rotational constants: A =      3.91513  B =      0.13910  C =      0.13780 [cm^-1]
  Rotational constants: A = 117372.60298  B =   4170.02592  C =   4131.04153 [MHz]
  Nuclear repulsion =   36.792522311974309

  Charge       = 0
  Multiplicity = 1
  Electrons    = 20
  Nalpha       = 10
  Nbeta        = 10

  ==> Algorithm <==

  SCF Algorithm Type is DF.
  DIIS enabled.
  MOM disabled.
  Fractional occupation disabled.
  Guess Type is SAD.
  Energy threshold   = 1.00e-08
  Density threshold  = 1.00e-08
  Integral threshold = 0.00e+00

  ==> Primary Basis <==

  Basis Set: AUG-CC-PVTZ
    Blend: AUG-CC-PVTZ
    Number of shells: 82
    Number of basis function: 230
    Number of Cartesian functions: 260
    Spherical Harmonics?: true
    Max angular momentum: 3

   => Loading Basis Set <=

    Name: (AUG-CC-PVTZ AUX)
    Role: JKFIT
    Keyword: DF_BASIS_SCF
    atoms 1        entry C          line   162 file /home/liuchw/anaconda3/envs/psi4env/share/psi4/basis/aug-cc-pvtz-jkfit.gbs 
    atoms 2-5, 7-8 entry H          line    70 file /home/liuchw/anaconda3/envs/psi4env/share/psi4/basis/aug-cc-pvtz-jkfit.gbs 
    atoms 6        entry O          line   286 file /home/liuchw/anaconda3/envs/psi4env/share/psi4/basis/aug-cc-pvtz-jkfit.gbs 

  ==> Pre-Iterations <==

   -------------------------------------------------------
    Irrep   Nso     Nmo     Nalpha   Nbeta   Ndocc  Nsocc
   -------------------------------------------------------
     A        230     230       0       0       0       0
   -------------------------------------------------------
    Total     230     230      10      10      10       0
   -------------------------------------------------------

  ==> Integral Setup <==

  ==> DiskDFJK: Density-Fitted J/K Matrices <==

    J tasked:                  Yes
    K tasked:                  Yes
    wK tasked:                  No
    OpenMP threads:              8
    Integrals threads:           8
    Memory [MiB]:            35762
    Algorithm:                Core
    Integral Cache:           SAVE
    Schwarz Cutoff:          1E-12
    Fitting Condition:       1E-10

   => Auxiliary Basis Set <=

  Basis Set: (AUG-CC-PVTZ AUX)
    Blend: AUG-CC-PVTZ-JKFIT
    Number of shells: 144
    Number of basis function: 484
    Number of Cartesian functions: 592
    Spherical Harmonics?: true
    Max angular momentum: 4

  Minimum eigenvalue in the overlap matrix is 4.3132898569E-05.
  Using Symmetric Orthogonalization.

  SCF Guess: Superposition of Atomic Densities via on-the-fly atomic UHF.

  ==> Iterations <==

                           Total Energy        Delta E     RMS |[F,P]|

   @DF-RHF iter SAD:  -115.13135063707759   -1.15131e+02   0.00000e+00 
   @DF-RHF iter   1:  -116.11510802527735   -9.83757e-01   2.57181e-03 DIIS
   @DF-RHF iter   2:  -116.23146529823042   -1.16357e-01   1.50883e-03 DIIS
   @DF-RHF iter   3:  -116.27238018413787   -4.09149e-02   1.87680e-04 DIIS
   @DF-RHF iter   4:  -116.27373655621230   -1.35637e-03   7.18083e-05 DIIS
   @DF-RHF iter   5:  -116.27393725326093   -2.00697e-04   1.15078e-05 DIIS
   @DF-RHF iter   6:  -116.27394455884767   -7.30559e-06   1.97470e-06 DIIS
   @DF-RHF iter   7:  -116.27394484789900   -2.89051e-07   5.71554e-07 DIIS
   @DF-RHF iter   8:  -116.27394487351432   -2.56153e-08   1.30130e-07 DIIS
   @DF-RHF iter   9:  -116.27394487480682   -1.29249e-09   1.70223e-08 DIIS
   @DF-RHF iter  10:  -116.27394487482496   -1.81473e-11   4.33298e-09 DIIS
  Energy and wave function converged.


  ==> Post-Iterations <==

    Orbital Energies [Eh]
    ---------------------

    Doubly Occupied:                                                      

       1A    -20.570811     2A    -11.187259     3A     -1.356681  
       4A     -0.927328     5A     -0.718150     6A     -0.593792  
       7A     -0.529463     8A     -0.529424     9A     -0.524049  
      10A     -0.513802  

    Virtual:                                                              

      11A      0.025431    12A      0.042583    13A      0.044445  
      14A      0.054990    15A      0.061573    16A      0.073949  
      17A      0.131773    18A      0.134308    19A      0.137348  
      20A      0.145867    21A      0.164921    22A      0.168033  
      23A      0.180354    24A      0.219402    25A      0.222435  
      26A      0.234782    27A      0.234830    28A      0.251782  
      29A      0.264089    30A      0.264335    31A      0.302950  
      32A      0.312242    33A      0.339812    34A      0.341847  
      35A      0.344587    36A      0.345939    37A      0.357959  
      38A      0.363477    39A      0.380853    40A      0.401085  
      41A      0.402019    42A      0.411240    43A      0.427529  
      44A      0.429025    45A      0.439174    46A      0.452889  
      47A      0.459261    48A      0.468777    49A      0.476440  
      50A      0.477928    51A      0.535768    52A      0.542174  
      53A      0.620793    54A      0.622553    55A      0.670316  
      56A      0.685154    57A      0.720352    58A      0.722582  
      59A      0.741789    60A      0.780852    61A      0.783755  
      62A      0.816381    63A      0.843136    64A      0.847340  
      65A      0.849485    66A      0.850756    67A      0.903804  
      68A      0.905174    69A      0.916440    70A      0.934808  
      71A      0.944871    72A      0.949132    73A      0.975150  
      74A      0.978927    75A      0.984650    76A      0.993194  
      77A      1.005866    78A      1.013074    79A      1.031542  
      80A      1.033913    81A      1.044712    82A      1.059225  
      83A      1.076546    84A      1.078012    85A      1.098294  
      86A      1.099670    87A      1.112259    88A      1.113076  
      89A      1.123948    90A      1.152162    91A      1.179543  
      92A      1.186765    93A      1.196942    94A      1.200112  
      95A      1.228782    96A      1.263171    97A      1.270074  
      98A      1.288627    99A      1.310978   100A      1.323274  
     101A      1.341863   102A      1.466481   103A      1.515390  
     104A      1.546511   105A      1.594536   106A      1.606380  
     107A      1.625962   108A      1.630367   109A      1.636073  
     110A      1.655269   111A      1.681912   112A      1.711367  
     113A      1.730080   114A      1.768559   115A      1.772172  
     116A      1.793052   117A      1.841200   118A      1.898387  
     119A      1.905330   120A      1.918319   121A      1.942416  
     122A      1.970728   123A      1.972984   124A      2.000158  
     125A      2.018208   126A      2.122709   127A      2.152384  
     128A      2.175321   129A      2.256257   130A      2.275665  
     131A      2.304221   132A      2.314292   133A      2.326944  
     134A      2.414760   135A      2.486745   136A      2.493633  
     137A      2.511704   138A      2.712151   139A      2.732282  
     140A      2.734236   141A      2.786764   142A      2.882476  
     143A      2.885909   144A      3.008354   145A      3.080076  
     146A      3.280844   147A      3.289126   148A      3.319886  
     149A      3.510991   150A      3.518466   151A      3.594234  
     152A      3.596100   153A      3.598838   154A      3.613203  
     155A      3.619362   156A      3.638717   157A      3.771405  
     158A      3.788504   159A      3.939053   160A      3.952880  
     161A      4.021253   162A      4.075648   163A      4.076445  
     164A      4.081804   165A      4.083140   166A      4.090059  
     167A      4.109393   168A      4.115623   169A      4.153919  
     170A      4.160819   171A      4.161582   172A      4.282630  
     173A      4.298268   174A      4.301001   175A      4.304843  
     176A      4.406449   177A      4.474632   178A      4.502171  
     179A      4.530927   180A      4.604163   181A      4.608302  
     182A      4.630919   183A      4.807732   184A      4.813643  
     185A      4.816970   186A      4.841545   187A      4.857507  
     188A      4.874510   189A      4.877152   190A      4.902433  
     191A      4.919673   192A      4.921474   193A      5.150930  
     194A      5.157317   195A      5.225165   196A      5.226388  
     197A      5.229016   198A      5.287795   199A      5.365144  
     200A      5.491367   201A      5.530226   202A      5.651174  
     203A      5.676805   204A      5.682331   205A      5.820361  
     206A      5.853348   207A      5.854726   208A      5.882730  
     209A      6.222653   210A      6.262942   211A      6.266635  
     212A      6.341164   213A      6.583642   214A      6.635711  
     215A      6.649094   216A      6.707269   217A      6.740123  
     218A      7.018289   219A      7.146538   220A      7.306146  
     221A      7.317604   222A      7.318556   223A      7.361244  
     224A      7.481807   225A      7.638617   226A      7.911853  
     227A      7.935560   228A      8.841013   229A     15.931515  
     230A     18.324924  

    Final Occupation by Irrep:
              A 
    DOCC [    10 ]

  @DF-RHF Final Energy:  -116.27394487482496

   => Energetics <=

    Nuclear Repulsion Energy =             36.7925223119743094
    One-Electron Energy =                -231.2314149788290933
    Two-Electron Energy =                  78.1649477920298068
    Total Energy =                       -116.2739448748249629

Computation Completed


Properties will be evaluated at   0.000000,   0.000000,   0.000000 [a0]

Properties computed using the SCF density matrix

  Nuclear Dipole Moment: [e a0]
     X:     3.1076      Y:    -0.0027      Z:     0.0008

  Electronic Dipole Moment: [e a0]
     X:    -3.9977      Y:     0.0003      Z:    -0.0002

  Dipole Moment: [e a0]
     X:    -0.8901      Y:    -0.0024      Z:     0.0007     Total:     0.8901

  Dipole Moment: [D]
     X:    -2.2625      Y:    -0.0061      Z:     0.0017     Total:     2.2625


*** tstop() called on node43.bme.utexas.edu at Fri Apr 24 00:49:32 2020
Module time:
	user time   =      20.73 seconds =       0.35 minutes
	system time =       1.00 seconds =       0.02 minutes
	total time  =          3 seconds =       0.05 minutes
Total time:
	user time   =      20.73 seconds =       0.35 minutes
	system time =       1.00 seconds =       0.02 minutes
	total time  =          3 seconds =       0.05 minutes

  //>>>>>>>>>>>>>>>>>>>>>>>>>>>>>>>>>>>//
  //            Monomer A HF           //
  //<<<<<<<<<<<<<<<<<<<<<<<<<<<<<<<<<<<//


*** tstart() called on node43.bme.utexas.edu
*** at Fri Apr 24 00:49:32 2020

   => Loading Basis Set <=

    Name: AUG-CC-PVTZ
    Role: ORBITAL
    Keyword: BASIS
    atoms 1        entry C          line   239 file /home/liuchw/anaconda3/envs/psi4env/share/psi4/basis/aug-cc-pvtz.gbs 
    atoms 2-5, 7-8 entry H          line    40 file /home/liuchw/anaconda3/envs/psi4env/share/psi4/basis/aug-cc-pvtz.gbs 
    atoms 6        entry O          line   331 file /home/liuchw/anaconda3/envs/psi4env/share/psi4/basis/aug-cc-pvtz.gbs 


         ---------------------------------------------------------
                                   SCF
               by Justin Turney, Rob Parrish, Andy Simmonett
                          and Daniel G. A. Smith
                              RHF Reference
                        8 Threads,  47683 MiB Core
         ---------------------------------------------------------

  ==> Geometry <==

    Molecular point group: c1
    Full point group: C1

    Geometry (in Angstrom), charge = 0, multiplicity = 1:

       Center              X                  Y                   Z               Mass       
    ------------   -----------------  -----------------  -----------------  -----------------
         C            1.967594166820    -0.000124292310     0.000042134322    12.000000000000
         H            2.332304166820    -0.471724292310     0.907582134322     1.007825032230
         H            2.332374166820    -0.550524292310    -0.861967865678     1.007825032230
         H            2.334684166820     1.020815707690    -0.045457865678     1.007825032230
         H            0.882064166820     0.001495707690    -0.000067865678     1.007825032230
      Gh(O)          -1.685575833180     0.000275707690    -0.000087865678    15.994914619570
      Gh(H)          -2.281195833180     0.752145707690     0.000402134322     1.007825032230
      Gh(H)          -2.276725833180    -0.755104292310     0.000402134322     1.007825032230

  Running in c1 symmetry.

  Rotational constants: A =      3.91513  B =      0.13910  C =      0.13780 [cm^-1]
  Rotational constants: A = 117372.60298  B =   4170.02592  C =   4131.04153 [MHz]
  Nuclear repulsion =   13.487669099021458

  Charge       = 0
  Multiplicity = 1
  Electrons    = 10
  Nalpha       = 5
  Nbeta        = 5

  ==> Algorithm <==

  SCF Algorithm Type is DF.
  DIIS enabled.
  MOM disabled.
  Fractional occupation disabled.
  Guess Type is SAD.
  Energy threshold   = 1.00e-08
  Density threshold  = 1.00e-08
  Integral threshold = 0.00e+00

  ==> Primary Basis <==

  Basis Set: AUG-CC-PVTZ
    Blend: AUG-CC-PVTZ
    Number of shells: 82
    Number of basis function: 230
    Number of Cartesian functions: 260
    Spherical Harmonics?: true
    Max angular momentum: 3

   => Loading Basis Set <=

    Name: (AUG-CC-PVTZ AUX)
    Role: JKFIT
    Keyword: DF_BASIS_SCF
    atoms 1        entry C          line   162 file /home/liuchw/anaconda3/envs/psi4env/share/psi4/basis/aug-cc-pvtz-jkfit.gbs 
    atoms 2-5, 7-8 entry H          line    70 file /home/liuchw/anaconda3/envs/psi4env/share/psi4/basis/aug-cc-pvtz-jkfit.gbs 
    atoms 6        entry O          line   286 file /home/liuchw/anaconda3/envs/psi4env/share/psi4/basis/aug-cc-pvtz-jkfit.gbs 

  ==> Pre-Iterations <==

   -------------------------------------------------------
    Irrep   Nso     Nmo     Nalpha   Nbeta   Ndocc  Nsocc
   -------------------------------------------------------
     A        230     230       0       0       0       0
   -------------------------------------------------------
    Total     230     230       5       5       5       0
   -------------------------------------------------------

  ==> Integral Setup <==

  ==> DiskDFJK: Density-Fitted J/K Matrices <==

    J tasked:                  Yes
    K tasked:                  Yes
    wK tasked:                  No
    OpenMP threads:              8
    Integrals threads:           8
    Memory [MiB]:            35762
    Algorithm:                Core
    Integral Cache:           LOAD
    Schwarz Cutoff:          1E-12
    Fitting Condition:       1E-10

   => Auxiliary Basis Set <=

  Basis Set: (AUG-CC-PVTZ AUX)
    Blend: AUG-CC-PVTZ-JKFIT
    Number of shells: 144
    Number of basis function: 484
    Number of Cartesian functions: 592
    Spherical Harmonics?: true
    Max angular momentum: 4

  Minimum eigenvalue in the overlap matrix is 4.3132898569E-05.
  Using Symmetric Orthogonalization.

  SCF Guess: Superposition of Atomic Densities via on-the-fly atomic UHF.

  ==> Iterations <==

                           Total Energy        Delta E     RMS |[F,P]|

   @DF-RHF iter SAD:   -39.63338093988850   -3.96334e+01   0.00000e+00 
   @DF-RHF iter   1:   -40.13701199355803   -5.03631e-01   1.60580e-03 DIIS
   @DF-RHF iter   2:   -40.20137601022662   -6.43640e-02   6.69077e-04 DIIS
   @DF-RHF iter   3:   -40.21291713596234   -1.15411e-02   1.02996e-04 DIIS
   @DF-RHF iter   4:   -40.21366462198360   -7.47486e-04   1.26071e-05 DIIS
   @DF-RHF iter   5:   -40.21367512542398   -1.05034e-05   1.13302e-06 DIIS
   @DF-RHF iter   6:   -40.21367521905825   -9.36343e-08   9.93492e-08 DIIS
   @DF-RHF iter   7:   -40.21367521964991   -5.91669e-10   8.96467e-09 DIIS
  Energy and wave function converged.


  ==> Post-Iterations <==

    Orbital Energies [Eh]
    ---------------------

    Doubly Occupied:                                                      

       1A    -11.205197     2A     -0.944105     3A     -0.546432  
       4A     -0.545228     5A     -0.545101  

    Virtual:                                                              

       6A      0.025973     7A      0.041421     8A      0.045027  
       9A      0.049976    10A      0.061851    11A      0.069490  
      12A      0.116183    13A      0.124183    14A      0.127420  
      15A      0.137084    16A      0.148030    17A      0.159488  
      18A      0.172065    19A      0.194110    20A      0.225578  
      21A      0.225681    22A      0.234727    23A      0.244281  
      24A      0.279537    25A      0.280786    26A      0.307422  
      27A      0.320971    28A      0.325482    29A      0.328245  
      30A      0.334919    31A      0.348807    32A      0.355923  
      33A      0.356759    34A      0.367386    35A      0.384604  
      36A      0.389192    37A      0.399685    38A      0.405216  
      39A      0.405312    40A      0.413731    41A      0.420327  
      42A      0.439709    43A      0.453426    44A      0.465793  
      45A      0.471636    46A      0.515237    47A      0.533095  
      48A      0.556782    49A      0.651028    50A      0.686610  
      51A      0.707339    52A      0.729400    53A      0.745924  
      54A      0.788259    55A      0.798283    56A      0.813386  
      57A      0.824678    58A      0.826813    59A      0.834219  
      60A      0.847851    61A      0.856132    62A      0.890998  
      63A      0.892601    64A      0.897067    65A      0.907792  
      66A      0.930642    67A      0.934532    68A      0.949698  
      69A      0.970082    70A      0.975216    71A      0.983038  
      72A      0.985864    73A      0.994115    74A      1.007520  
      75A      1.017427    76A      1.019511    77A      1.057091  
      78A      1.061405    79A      1.066136    80A      1.083344  
      81A      1.087499    82A      1.102552    83A      1.118164  
      84A      1.129571    85A      1.143641    86A      1.173651  
      87A      1.183123    88A      1.201195    89A      1.219721  
      90A      1.233620    91A      1.265966    92A      1.270438  
      93A      1.283138    94A      1.340866    95A      1.342274  
      96A      1.354290    97A      1.427824    98A      1.569786  
      99A      1.577245   100A      1.591906   101A      1.606991  
     102A      1.620827   103A      1.625506   104A      1.639228  
     105A      1.655504   106A      1.705378   107A      1.716892  
     108A      1.737455   109A      1.775170   110A      1.781363  
     111A      1.785667   112A      1.809123   113A      1.840875  
     114A      1.847691   115A      1.887469   116A      1.920643  
     117A      1.928104   118A      1.959533   119A      1.977304  
     120A      2.023919   121A      2.073385   122A      2.135635  
     123A      2.166157   124A      2.223385   125A      2.263241  
     126A      2.314787   127A      2.415994   128A      2.427095  
     129A      2.532880   130A      2.560761   131A      2.563938  
     132A      2.584033   133A      2.621246   134A      2.790035  
     135A      2.886140   136A      3.014286   137A      3.115061  
     138A      3.178459   139A      3.208660   140A      3.229221  
     141A      3.269238   142A      3.275545   143A      3.306802  
     144A      3.317163   145A      3.392293   146A      3.495115  
     147A      3.503547   148A      3.550287   149A      3.578630  
     150A      3.580846   151A      3.587800   152A      3.599662  
     153A      3.628901   154A      3.646611   155A      3.690752  
     156A      3.926385   157A      3.933336   158A      4.061353  
     159A      4.063313   160A      4.075591   161A      4.085391  
     162A      4.097257   163A      4.107197   164A      4.139236  
     165A      4.143355   166A      4.146775   167A      4.285942  
     168A      4.355920   169A      4.461118   170A      4.572472  
     171A      4.574222   172A      4.584884   173A      4.608974  
     174A      4.638955   175A      4.683724   176A      4.723946  
     177A      4.793201   178A      4.804730   179A      4.825954  
     180A      4.850712   181A      4.862710   182A      4.866588  
     183A      4.883890   184A      4.900157   185A      4.916830  
     186A      4.930254   187A      4.955353   188A      5.204174  
     189A      5.208012   190A      5.211945   191A      5.221728  
     192A      5.502557   193A      5.574825   194A      5.633480  
     195A      5.635523   196A      5.645820   197A      5.664344  
     198A      5.666651   199A      5.836538   200A      5.836943  
     201A      5.840489   202A      5.886820   203A      6.134205  
     204A      6.246971   205A      6.249206   206A      6.306225  
     207A      6.515132   208A      6.621803   209A      6.627000  
     210A      6.643867   211A      6.705509   212A      7.085591  
     213A      7.685978   214A      7.910598   215A      8.050153  
     216A      8.164407   217A      8.281818   218A      8.745772  
     219A      8.851647   220A      9.859641   221A      9.897134  
     222A      9.987601   223A     10.260700   224A     11.253472  
     225A     11.623609   226A     12.140782   227A     13.520884  
     228A     13.828241   229A     18.303386   230A     64.905440  

    Final Occupation by Irrep:
              A 
    DOCC [     5 ]

  @DF-RHF Final Energy:   -40.21367521964991

   => Energetics <=

    Nuclear Repulsion Energy =             13.4876690990214581
    One-Electron Energy =                 -79.8305670326964787
    Two-Electron Energy =                  26.1292227140251043
    Total Energy =                        -40.2136752196499145

Computation Completed


Properties will be evaluated at   0.000000,   0.000000,   0.000000 [a0]

Properties computed using the SCF density matrix

  Nuclear Dipole Moment: [e a0]
     X:    37.2030      Y:    -0.0013      Z:     0.0006

  Electronic Dipole Moment: [e a0]
     X:   -37.2020      Y:     0.0013      Z:    -0.0006

  Dipole Moment: [e a0]
     X:     0.0010      Y:     0.0000      Z:    -0.0000     Total:     0.0010

  Dipole Moment: [D]
     X:     0.0026      Y:     0.0001      Z:    -0.0000     Total:     0.0026


*** tstop() called on node43.bme.utexas.edu at Fri Apr 24 00:49:34 2020
Module time:
	user time   =      11.39 seconds =       0.19 minutes
	system time =       0.58 seconds =       0.01 minutes
	total time  =          2 seconds =       0.03 minutes
Total time:
	user time   =      32.18 seconds =       0.54 minutes
	system time =       1.58 seconds =       0.03 minutes
	total time  =          5 seconds =       0.08 minutes

  //>>>>>>>>>>>>>>>>>>>>>>>>>>>>>>>>>>>//
  //            Monomer B HF           //
  //<<<<<<<<<<<<<<<<<<<<<<<<<<<<<<<<<<<//


*** tstart() called on node43.bme.utexas.edu
*** at Fri Apr 24 00:49:34 2020

   => Loading Basis Set <=

    Name: AUG-CC-PVTZ
    Role: ORBITAL
    Keyword: BASIS
    atoms 1        entry C          line   239 file /home/liuchw/anaconda3/envs/psi4env/share/psi4/basis/aug-cc-pvtz.gbs 
    atoms 2-5, 7-8 entry H          line    40 file /home/liuchw/anaconda3/envs/psi4env/share/psi4/basis/aug-cc-pvtz.gbs 
    atoms 6        entry O          line   331 file /home/liuchw/anaconda3/envs/psi4env/share/psi4/basis/aug-cc-pvtz.gbs 


         ---------------------------------------------------------
                                   SCF
               by Justin Turney, Rob Parrish, Andy Simmonett
                          and Daniel G. A. Smith
                              RHF Reference
                        8 Threads,  47683 MiB Core
         ---------------------------------------------------------

  ==> Geometry <==

    Molecular point group: c1
    Full point group: C1

    Geometry (in Angstrom), charge = 0, multiplicity = 1:

       Center              X                  Y                   Z               Mass       
    ------------   -----------------  -----------------  -----------------  -----------------
      Gh(C)           1.967594166820    -0.000124292310     0.000042134322    12.000000000000
      Gh(H)           2.332304166820    -0.471724292310     0.907582134322     1.007825032230
      Gh(H)           2.332374166820    -0.550524292310    -0.861967865678     1.007825032230
      Gh(H)           2.334684166820     1.020815707690    -0.045457865678     1.007825032230
      Gh(H)           0.882064166820     0.001495707690    -0.000067865678     1.007825032230
         O           -1.685575833180     0.000275707690    -0.000087865678    15.994914619570
         H           -2.281195833180     0.752145707690     0.000402134322     1.007825032230
         H           -2.276725833180    -0.755104292310     0.000402134322     1.007825032230

  Running in c1 symmetry.

  Rotational constants: A =      3.91513  B =      0.13910  C =      0.13780 [cm^-1]
  Rotational constants: A = 117372.60298  B =   4170.02592  C =   4131.04153 [MHz]
  Nuclear repulsion =    9.178061973849276

  Charge       = 0
  Multiplicity = 1
  Electrons    = 10
  Nalpha       = 5
  Nbeta        = 5

  ==> Algorithm <==

  SCF Algorithm Type is DF.
  DIIS enabled.
  MOM disabled.
  Fractional occupation disabled.
  Guess Type is SAD.
  Energy threshold   = 1.00e-08
  Density threshold  = 1.00e-08
  Integral threshold = 0.00e+00

  ==> Primary Basis <==

  Basis Set: AUG-CC-PVTZ
    Blend: AUG-CC-PVTZ
    Number of shells: 82
    Number of basis function: 230
    Number of Cartesian functions: 260
    Spherical Harmonics?: true
    Max angular momentum: 3

   => Loading Basis Set <=

    Name: (AUG-CC-PVTZ AUX)
    Role: JKFIT
    Keyword: DF_BASIS_SCF
    atoms 1        entry C          line   162 file /home/liuchw/anaconda3/envs/psi4env/share/psi4/basis/aug-cc-pvtz-jkfit.gbs 
    atoms 2-5, 7-8 entry H          line    70 file /home/liuchw/anaconda3/envs/psi4env/share/psi4/basis/aug-cc-pvtz-jkfit.gbs 
    atoms 6        entry O          line   286 file /home/liuchw/anaconda3/envs/psi4env/share/psi4/basis/aug-cc-pvtz-jkfit.gbs 

  ==> Pre-Iterations <==

   -------------------------------------------------------
    Irrep   Nso     Nmo     Nalpha   Nbeta   Ndocc  Nsocc
   -------------------------------------------------------
     A        230     230       0       0       0       0
   -------------------------------------------------------
    Total     230     230       5       5       5       0
   -------------------------------------------------------

  ==> Integral Setup <==

  ==> DiskDFJK: Density-Fitted J/K Matrices <==

    J tasked:                  Yes
    K tasked:                  Yes
    wK tasked:                  No
    OpenMP threads:              8
    Integrals threads:           8
    Memory [MiB]:            35762
    Algorithm:                Core
    Integral Cache:           LOAD
    Schwarz Cutoff:          1E-12
    Fitting Condition:       1E-10

   => Auxiliary Basis Set <=

  Basis Set: (AUG-CC-PVTZ AUX)
    Blend: AUG-CC-PVTZ-JKFIT
    Number of shells: 144
    Number of basis function: 484
    Number of Cartesian functions: 592
    Spherical Harmonics?: true
    Max angular momentum: 4

  Minimum eigenvalue in the overlap matrix is 4.3132898569E-05.
  Using Symmetric Orthogonalization.

  SCF Guess: Superposition of Atomic Densities via on-the-fly atomic UHF.

  ==> Iterations <==

                           Total Energy        Delta E     RMS |[F,P]|

   @DF-RHF iter SAD:   -75.47677988667161   -7.54768e+01   0.00000e+00 
   @DF-RHF iter   1:   -75.97598637311202   -4.99206e-01   2.03722e-03 DIIS
   @DF-RHF iter   2:   -76.02852436547279   -5.25380e-02   1.38937e-03 DIIS
   @DF-RHF iter   3:   -76.06000871903215   -3.14844e-02   9.43383e-05 DIIS
   @DF-RHF iter   4:   -76.06039649856295   -3.87780e-04   2.25720e-05 DIIS
   @DF-RHF iter   5:   -76.06042072610647   -2.42275e-05   5.12700e-06 DIIS
   @DF-RHF iter   6:   -76.06042270522013   -1.97911e-06   1.11959e-06 DIIS
   @DF-RHF iter   7:   -76.06042280895041   -1.03730e-07   2.01000e-07 DIIS
   @DF-RHF iter   8:   -76.06042281189552   -2.94511e-09   3.37328e-08 DIIS
   @DF-RHF iter   9:   -76.06042281196015   -6.46310e-11   8.21951e-09 DIIS
  Energy and wave function converged.


  ==> Post-Iterations <==

    Orbital Energies [Eh]
    ---------------------

    Doubly Occupied:                                                      

       1A    -20.567914     2A     -1.353242     3A     -0.714895  
       4A     -0.586417     5A     -0.510437  

    Virtual:                                                              

       6A      0.024173     7A      0.037795     8A      0.043800  
       9A      0.052352    10A      0.060243    11A      0.071236  
      12A      0.111386    13A      0.125262    14A      0.125468  
      15A      0.140411    16A      0.156689    17A      0.163709  
      18A      0.182056    19A      0.210440    20A      0.229494  
      21A      0.240911    22A      0.242150    23A      0.259431  
      24A      0.263472    25A      0.267186    26A      0.282366  
      27A      0.304726    28A      0.314146    29A      0.317383  
      30A      0.323011    31A      0.348511    32A      0.349425  
      33A      0.368661    34A      0.372815    35A      0.383314  
      36A      0.409841    37A      0.410829    38A      0.421848  
      39A      0.440249    40A      0.449691    41A      0.460920  
      42A      0.469257    43A      0.472856    44A      0.491198  
      45A      0.496405    46A      0.583583    47A      0.588745  
      48A      0.590083    49A      0.628774    50A      0.645202  
      51A      0.675428    52A      0.679025    53A      0.681822  
      54A      0.721680    55A      0.723749    56A      0.772819  
      57A      0.785856    58A      0.849886    59A      0.852684  
      60A      0.912403    61A      0.913376    62A      0.926214  
      63A      0.957869    64A      0.960836    65A      0.980565  
      66A      0.996735    67A      1.003055    68A      1.019980  
      69A      1.037524    70A      1.038477    71A      1.051510  
      72A      1.053548    73A      1.056316    74A      1.060360  
      75A      1.071126    76A      1.073098    77A      1.079798  
      78A      1.086744    79A      1.095485    80A      1.114537  
      81A      1.117253    82A      1.124938    83A      1.137367  
      84A      1.174703    85A      1.177580    86A      1.183979  
      87A      1.210033    88A      1.211959    89A      1.229909  
      90A      1.273210    91A      1.283085    92A      1.298075  
      93A      1.303339    94A      1.315148    95A      1.384835  
      96A      1.404256    97A      1.404900    98A      1.408413  
      99A      1.427813   100A      1.512055   101A      1.516248  
     102A      1.532993   103A      1.608523   104A      1.636112  
     105A      1.685413   106A      1.726619   107A      1.788901  
     108A      1.807053   109A      1.842102   110A      1.844315  
     111A      1.884656   112A      1.896513   113A      1.899995  
     114A      1.969072   115A      2.005393   116A      2.056982  
     117A      2.062712   118A      2.073763   119A      2.103120  
     120A      2.114951   121A      2.145460   122A      2.184380  
     123A      2.291153   124A      2.307646   125A      2.315329  
     126A      2.321386   127A      2.333968   128A      2.432040  
     129A      2.474025   130A      2.499321   131A      2.523915  
     132A      2.539789   133A      2.562439   134A      2.695622  
     135A      2.697728   136A      2.727348   137A      2.740417  
     138A      2.742433   139A      2.757194   140A      2.886435  
     141A      2.892739   142A      2.904863   143A      3.169373  
     144A      3.726547   145A      3.774623   146A      3.783314  
     147A      4.021131   148A      4.034716   149A      4.044196  
     150A      4.044670   151A      4.065336   152A      4.066969  
     153A      4.121009   154A      4.141972   155A      4.191926  
     156A      4.205850   157A      4.235934   158A      4.291004  
     159A      4.312110   160A      4.394234   161A      4.422768  
     162A      4.432452   163A      4.446944   164A      4.451897  
     165A      4.457788   166A      4.462550   167A      4.522426  
     168A      4.541807   169A      4.554281   170A      4.561406  
     171A      4.561929   172A      4.656648   173A      4.657179  
     174A      4.716839   175A      4.856322   176A      4.863290  
     177A      4.880693   178A      5.000026   179A      5.001877  
     180A      5.019547   181A      5.155122   182A      5.160089  
     183A      5.205116   184A      5.220929   185A      5.223629  
     186A      5.275756   187A      5.366269   188A      5.393106  
     189A      5.399019   190A      5.401564   191A      5.469817  
     192A      5.492972   193A      5.533473   194A      5.558431  
     195A      5.558929   196A      5.578306   197A      5.685616  
     198A      5.935784   199A      6.204454   200A      6.231409  
     201A      6.233038   202A      6.251072   203A      6.410533  
     204A      6.411110   205A      6.591397   206A      6.743709  
     207A      6.797947   208A      6.802191   209A      6.962404  
     210A      7.057876   211A      7.123436   212A      7.149958  
     213A      7.309609   214A      7.319302   215A      7.322081  
     216A      7.364430   217A      7.486102   218A      7.644391  
     219A      7.801177   220A      7.804832   221A      7.827580  
     222A      7.915610   223A      7.939526   224A      8.147497  
     225A      8.151150   226A      8.224959   227A      8.844483  
     228A     10.572249   229A     15.941691   230A     53.974356  

    Final Occupation by Irrep:
              A 
    DOCC [     5 ]

  @DF-RHF Final Energy:   -76.06042281196015

   => Energetics <=

    Nuclear Repulsion Energy =              9.1780619738492764
    One-Electron Energy =                -123.0111577059884098
    Two-Electron Energy =                  37.7726729201789766
    Total Energy =                        -76.0604228119601515

Computation Completed


Properties will be evaluated at   0.000000,   0.000000,   0.000000 [a0]

Properties computed using the SCF density matrix

  Nuclear Dipole Moment: [e a0]
     X:   -34.0954      Y:    -0.0014      Z:     0.0002

  Electronic Dipole Moment: [e a0]
     X:    33.3088      Y:    -0.0009      Z:     0.0005

  Dipole Moment: [e a0]
     X:    -0.7866      Y:    -0.0023      Z:     0.0006     Total:     0.7866

  Dipole Moment: [D]
     X:    -1.9993      Y:    -0.0059      Z:     0.0016     Total:     1.9993


*** tstop() called on node43.bme.utexas.edu at Fri Apr 24 00:49:36 2020
Module time:
	user time   =      11.81 seconds =       0.20 minutes
	system time =       0.70 seconds =       0.01 minutes
	total time  =          2 seconds =       0.03 minutes
Total time:
	user time   =      44.05 seconds =       0.73 minutes
	system time =       2.28 seconds =       0.04 minutes
	total time  =          7 seconds =       0.12 minutes
  Constructing Basis Sets for SAPT...

   => Loading Basis Set <=

    Name: (AUG-CC-PVTZ AUX)
    Role: RIFIT
    Keyword: DF_BASIS_SAPT
    atoms 1        entry C          line   148 file /home/liuchw/anaconda3/envs/psi4env/share/psi4/basis/aug-cc-pvtz-ri.gbs 
    atoms 2-5, 7-8 entry H          line    30 file /home/liuchw/anaconda3/envs/psi4env/share/psi4/basis/aug-cc-pvtz-ri.gbs 
    atoms 6        entry O          line   264 file /home/liuchw/anaconda3/envs/psi4env/share/psi4/basis/aug-cc-pvtz-ri.gbs 


  //>>>>>>>>>>>>>>>>>>>>>>>>>>>>>>>>>>>//
  //               SAPT2+              //
  //<<<<<<<<<<<<<<<<<<<<<<<<<<<<<<<<<<<//


*** tstart() called on node43.bme.utexas.edu
*** at Fri Apr 24 00:49:36 2020

        SAPT2+  
    Ed Hohenstein
     6 June 2009

      Orbital Information
  --------------------------
    NSO        =       230
    NMO        =       230
    NRI        =       488
    NOCC A     =         5
    NOCC B     =         5
    FOCC A     =         1
    FOCC B     =         1
    NVIR A     =       225
    NVIR B     =       225

    Estimated memory usage: 228.0 MB

    Natural Orbital Cutoff:   1.000E-06
    Disp(T3) Truncation:            Yes
    CCD (vv|vv) Truncation:         Yes
    MBPT T2 Truncation:             Yes

    Monomer A: 112 virtual orbitals dropped
    Monomer B: 145 virtual orbitals dropped

    Elst10,r            =    -0.001249623813 [Eh]
    Exch10 (S^2)        =     0.001889001289 [Eh]
    Exch10              =     0.001892060615 [Eh]
    Ind20,r (A<-B)      =    -0.000514518966 [Eh]
    Ind20,r (B<-A)      =    -0.000094177403 [Eh]
    Ind20,r             =    -0.000608696369 [Eh]
    Exch-Ind20,r (A<-B) =     0.000232788557 [Eh]
    Exch-Ind20,r (B<-A) =     0.000049260974 [Eh]
    Exch-Ind20,r        =     0.000282049531 [Eh]
    Disp20              =    -0.001440723357 [Eh]
    Disp20 (NO)         =    -0.001232800684 [Eh]
    Exch-Disp20         =     0.000170730069 [Eh]
    Elst12,r            =    -0.000066636363 [Eh]
    Exch11              =    -0.000009398435 [Eh]
    Exch12              =     0.000221672428 [Eh]
    Ind22               =    -0.000015012215 [Eh]
    Disp21              =    -0.000008379652 [Eh]
    Disp22 (SDQ)        =     0.000038082157 [Eh]

    (i =   1 of   4)          1 seconds
    (i =   2 of   4)          1 seconds
    (i =   3 of   4)          2 seconds
    (i =   4 of   4)          2 seconds

    Disp220 (T)         =    -0.000073933491 [Eh]

    (i =   1 of   4)          1 seconds
    (i =   2 of   4)          1 seconds
    (i =   3 of   4)          1 seconds
    (i =   4 of   4)          2 seconds

    Disp202 (T)         =    -0.000110026991 [Eh]

    Disp22 (T)          =    -0.000183960483 [Eh]

    Est. Disp220 (T)    =    -0.000086403025 [Eh]
    Est. Disp202 (T)    =    -0.000128584011 [Eh]

    Est. Disp22 (T)     =    -0.000214987035 [Eh]

    SAPT Results 
  --------------------------------------------------------------------------------------------------------
    Electrostatics                 -1.31626018 [mEh]      -0.82596573 [kcal/mol]      -3.45584062 [kJ/mol]
      Elst10,r                     -1.24962381 [mEh]      -0.78415078 [kcal/mol]      -3.28088687 [kJ/mol]
      Elst12,r                     -0.06663636 [mEh]      -0.04181495 [kcal/mol]      -0.17495375 [kJ/mol]

    Exchange                        2.10433461 [mEh]       1.32048990 [kcal/mol]       5.52492975 [kJ/mol]
      Exch10                        1.89206062 [mEh]       1.18728596 [kcal/mol]       4.96760446 [kJ/mol]
      Exch10(S^2)                   1.88900129 [mEh]       1.18536620 [kcal/mol]       4.95957220 [kJ/mol]
      Exch11(S^2)                  -0.00939843 [mEh]      -0.00589761 [kcal/mol]      -0.02467559 [kJ/mol]
      Exch12(S^2)                   0.22167243 [mEh]       0.13910155 [kcal/mol]       0.58200088 [kJ/mol]

    Induction                      -0.49733607 [mEh]      -0.31208310 [kcal/mol]      -1.30575568 [kJ/mol]
      Ind20,r                      -0.60869637 [mEh]      -0.38196274 [kcal/mol]      -1.59813210 [kJ/mol]
      Ind22                        -0.01501221 [mEh]      -0.00942031 [kcal/mol]      -0.03941457 [kJ/mol]
      Exch-Ind20,r                  0.28204953 [mEh]       0.17698875 [kcal/mol]       0.74052094 [kJ/mol]
      Exch-Ind22                    0.00695616 [mEh]       0.00436506 [kcal/mol]       0.01826339 [kJ/mol]
      delta HF,r (2)               -0.16263318 [mEh]      -0.10205386 [kcal/mol]      -0.42699335 [kJ/mol]

    Dispersion                     -1.45527782 [mEh]      -0.91320062 [kcal/mol]      -3.82083138 [kJ/mol]
      Disp20                       -1.44072336 [mEh]      -0.90406756 [kcal/mol]      -3.78261865 [kJ/mol]
      Disp21                       -0.00837965 [mEh]      -0.00525831 [kcal/mol]      -0.02200077 [kJ/mol]
      Disp22 (SDQ)                  0.03808216 [mEh]       0.02389691 [kcal/mol]       0.09998469 [kJ/mol]
      Disp22 (T)                   -0.18396048 [mEh]      -0.11543695 [kcal/mol]      -0.48298818 [kJ/mol]
      Est. Disp22 (T)              -0.21498704 [mEh]      -0.13490640 [kcal/mol]      -0.56444838 [kJ/mol]
      Exch-Disp20                   0.17073007 [mEh]       0.10713474 [kcal/mol]       0.44825174 [kJ/mol]

  Total HF                          0.15315679 [mEh]       0.09610733 [kcal/mol]       0.40211308 [kJ/mol]
  Total SAPT0                      -1.11683650 [mEh]      -0.70082549 [kcal/mol]      -2.93225383 [kJ/mol]
  Total SAPT2                      -0.97925493 [mEh]      -0.61449174 [kcal/mol]      -2.57103346 [kJ/mol]
  Total SAPT2+                     -1.16453946 [mEh]      -0.73075954 [kcal/mol]      -3.05749793 [kJ/mol]

  Special recipe for scaled SAPT0 (see Manual):
    Electrostatics sSAPT0          -1.24962381 [mEh]      -0.78415078 [kcal/mol]      -3.28088687 [kJ/mol]
    Exchange sSAPT0                 1.89206062 [mEh]       1.18728596 [kcal/mol]       4.96760446 [kJ/mol]
    Induction sSAPT0               -0.48790742 [mEh]      -0.30616653 [kcal/mol]      -1.28100075 [kJ/mol]
    Dispersion sSAPT0              -1.26916243 [mEh]      -0.79641145 [kcal/mol]      -3.33218549 [kJ/mol]
  Total sSAPT0                     -1.11463304 [mEh]      -0.69944279 [kcal/mol]      -2.92646865 [kJ/mol]
  --------------------------------------------------------------------------------------------------------

*** tstop() called on node43.bme.utexas.edu at Fri Apr 24 00:49:54 2020
Module time:
	user time   =     123.11 seconds =       2.05 minutes
	system time =       9.34 seconds =       0.16 minutes
	total time  =         18 seconds =       0.30 minutes
Total time:
	user time   =     167.81 seconds =       2.80 minutes
	system time =      11.67 seconds =       0.19 minutes
	total time  =         25 seconds =       0.42 minutes

    Psi4 stopped on: Friday, 24 April 2020 12:49AM
    Psi4 wall time for execution: 0:00:25.09

*** Psi4 exiting successfully. Buy a developer a beer!
