
    -----------------------------------------------------------------------
          Psi4: An Open-Source Ab Initio Electronic Structure Package
                               Psi4 1.4a2.dev224 

                         Git: Rev {master} e453b16 


    R. M. Parrish, L. A. Burns, D. G. A. Smith, A. C. Simmonett,
    A. E. DePrince III, E. G. Hohenstein, U. Bozkaya, A. Yu. Sokolov,
    R. Di Remigio, R. M. Richard, J. F. Gonthier, A. M. James,
    H. R. McAlexander, A. Kumar, M. Saitow, X. Wang, B. P. Pritchard,
    P. Verma, H. F. Schaefer III, K. Patkowski, R. A. King, E. F. Valeev,
    F. A. Evangelista, J. M. Turney, T. D. Crawford, and C. D. Sherrill,
    J. Chem. Theory Comput. 13(7) pp 3185--3197 (2017).
    (doi: 10.1021/acs.jctc.7b00174)


                         Additional Contributions by
    P. Kraus, H. Kruse, M. H. Lechner, M. C. Schieber, R. A. Shaw,
    A. Alenaizan, R. Galvelis, Z. L. Glick, S. Lehtola, and J. P. Misiewicz

    -----------------------------------------------------------------------


    Psi4 started on: Thursday, 23 April 2020 10:16PM

    Process ID: 40585
    Host:       genome.bme.utexas.edu
    PSIDATADIR: /home/liuchw/anaconda3/envs/psi4env/share/psi4
    Memory:     500.0 MiB
    Threads:    8
    
  ==> Input File <==

--------------------------------------------------------------------------
#Generated by lconvert.py for sapt job

memory 50 GB

molecule  {
0 1
  C      -2.024830    0.000030   -0.000010
  H      -2.390900   -0.618790   -0.813960
  H      -2.391450   -0.395610    0.942610
  H      -2.391760    1.014030   -0.128930
  H      -0.938770    0.000470    0.000290
--
0 1
  N       4.470870   -0.000260   -0.000270
  H       4.863910    0.375950   -0.853100
  H       4.863960    0.549710    0.752280
  H       4.862530   -0.927540    0.100090
units angstrom
no_reorient
symmetry c1
}

set {
scf_type DF
basis aug-cc-pvtz
freeze_core True
guess SAD
}
energy('sapt2+')
--------------------------------------------------------------------------

  Memory set to  46.566 GiB by Python driver.

Scratch directory: /scratch/liuchw/

  //>>>>>>>>>>>>>>>>>>>>>>>>>>>>>>>>>>>//
  //              Dimer HF             //
  //<<<<<<<<<<<<<<<<<<<<<<<<<<<<<<<<<<<//


*** tstart() called on genome.bme.utexas.edu
*** at Thu Apr 23 22:16:17 2020

   => Loading Basis Set <=

    Name: AUG-CC-PVTZ
    Role: ORBITAL
    Keyword: BASIS
    atoms 1        entry C          line   239 file /home/liuchw/anaconda3/envs/psi4env/share/psi4/basis/aug-cc-pvtz.gbs 
    atoms 2-5, 7-9 entry H          line    40 file /home/liuchw/anaconda3/envs/psi4env/share/psi4/basis/aug-cc-pvtz.gbs 
    atoms 6        entry N          line   285 file /home/liuchw/anaconda3/envs/psi4env/share/psi4/basis/aug-cc-pvtz.gbs 


         ---------------------------------------------------------
                                   SCF
               by Justin Turney, Rob Parrish, Andy Simmonett
                          and Daniel G. A. Smith
                              RHF Reference
                        8 Threads,  47683 MiB Core
         ---------------------------------------------------------

  ==> Geometry <==

    Molecular point group: c1
    Full point group: C1

    Geometry (in Angstrom), charge = 0, multiplicity = 1:

       Center              X                  Y                   Z               Mass       
    ------------   -----------------  -----------------  -----------------  -----------------
         C           -3.381124233329     0.000183510525     0.000129950545    12.000000000000
         H           -3.747194233329    -0.618636489475    -0.813820049455     1.007825032230
         H           -3.747744233329    -0.395456489475     0.942749950545     1.007825032230
         H           -3.748054233329     1.014183510525    -0.128790049455     1.007825032230
         H           -2.295064233329     0.000623510525     0.000429950545     1.007825032230
         N            3.114575766671    -0.000106489475    -0.000130049455    14.003074004430
         H            3.507615766671     0.376103510525    -0.852960049455     1.007825032230
         H            3.507665766671     0.549863510525     0.752419950545     1.007825032230
         H            3.506235766671    -0.927386489475     0.100229950545     1.007825032230

  Running in c1 symmetry.

  Rotational constants: A =      2.91259  B =      0.04671  C =      0.04671 [cm^-1]
  Rotational constants: A =  87317.32966  B =   1400.41289  C =   1400.41240 [MHz]
  Nuclear repulsion =   33.446371895135442

  Charge       = 0
  Multiplicity = 1
  Electrons    = 20
  Nalpha       = 10
  Nbeta        = 10

  ==> Algorithm <==

  SCF Algorithm Type is DF.
  DIIS enabled.
  MOM disabled.
  Fractional occupation disabled.
  Guess Type is SAD.
  Energy threshold   = 1.00e-08
  Density threshold  = 1.00e-08
  Integral threshold = 0.00e+00

  ==> Primary Basis <==

  Basis Set: AUG-CC-PVTZ
    Blend: AUG-CC-PVTZ
    Number of shells: 91
    Number of basis function: 253
    Number of Cartesian functions: 285
    Spherical Harmonics?: true
    Max angular momentum: 3

   => Loading Basis Set <=

    Name: (AUG-CC-PVTZ AUX)
    Role: JKFIT
    Keyword: DF_BASIS_SCF
    atoms 1        entry C          line   162 file /home/liuchw/anaconda3/envs/psi4env/share/psi4/basis/aug-cc-pvtz-jkfit.gbs 
    atoms 2-5, 7-9 entry H          line    70 file /home/liuchw/anaconda3/envs/psi4env/share/psi4/basis/aug-cc-pvtz-jkfit.gbs 
    atoms 6        entry N          line   224 file /home/liuchw/anaconda3/envs/psi4env/share/psi4/basis/aug-cc-pvtz-jkfit.gbs 

  ==> Pre-Iterations <==

   -------------------------------------------------------
    Irrep   Nso     Nmo     Nalpha   Nbeta   Ndocc  Nsocc
   -------------------------------------------------------
     A        253     253       0       0       0       0
   -------------------------------------------------------
    Total     253     253      10      10      10       0
   -------------------------------------------------------

  ==> Integral Setup <==

  ==> DiskDFJK: Density-Fitted J/K Matrices <==

    J tasked:                  Yes
    K tasked:                  Yes
    wK tasked:                  No
    OpenMP threads:              8
    Integrals threads:           8
    Memory [MiB]:            35762
    Algorithm:                Core
    Integral Cache:           SAVE
    Schwarz Cutoff:          1E-12
    Fitting Condition:       1E-10

   => Auxiliary Basis Set <=

  Basis Set: (AUG-CC-PVTZ AUX)
    Blend: AUG-CC-PVTZ-JKFIT
    Number of shells: 158
    Number of basis function: 530
    Number of Cartesian functions: 647
    Spherical Harmonics?: true
    Max angular momentum: 4

  Minimum eigenvalue in the overlap matrix is 7.8974104341E-05.
  Using Symmetric Orthogonalization.

  SCF Guess: Superposition of Atomic Densities via on-the-fly atomic UHF.

  ==> Iterations <==

                           Total Energy        Delta E     RMS |[F,P]|

   @DF-RHF iter SAD:   -95.27901545548747   -9.52790e+01   0.00000e+00 
   @DF-RHF iter   1:   -96.25963255508637   -9.80617e-01   2.35129e-03 DIIS
   @DF-RHF iter   2:   -96.39284375276674   -1.33211e-01   1.22877e-03 DIIS
   @DF-RHF iter   3:   -96.43233873841152   -3.94950e-02   1.54678e-04 DIIS
   @DF-RHF iter   4:   -96.43380475585994   -1.46602e-03   5.53087e-05 DIIS
   @DF-RHF iter   5:   -96.43393965664637   -1.34901e-04   9.36373e-06 DIIS
   @DF-RHF iter   6:   -96.43394564682244   -5.99018e-06   1.25276e-06 DIIS
   @DF-RHF iter   7:   -96.43394582923985   -1.82417e-07   3.86157e-07 DIIS
   @DF-RHF iter   8:   -96.43394584477613   -1.55363e-08   8.85108e-08 DIIS
   @DF-RHF iter   9:   -96.43394584570173   -9.25596e-10   1.20034e-08 DIIS
   @DF-RHF iter  10:   -96.43394584571823   -1.64988e-11   3.18786e-09 DIIS
  Energy and wave function converged.


  ==> Post-Iterations <==

    Orbital Energies [Eh]
    ---------------------

    Doubly Occupied:                                                      

       1A    -15.542390     2A    -11.200002     3A     -1.144498  
       4A     -0.938724     5A     -0.628010     6A     -0.627991  
       7A     -0.540769     8A     -0.539963     9A     -0.539956  
      10A     -0.432218  

    Virtual:                                                              

      11A      0.027737    12A      0.037913    13A      0.046625  
      14A      0.046626    15A      0.055925    16A      0.055926  
      17A      0.070268    18A      0.127656    19A      0.127659  
      20A      0.134022    21A      0.143409    22A      0.153913  
      23A      0.161862    24A      0.161863    25A      0.169818  
      26A      0.216669    27A      0.216673    28A      0.226778  
      29A      0.226980    30A      0.226987    31A      0.232385  
      32A      0.232386    33A      0.243338    34A      0.243344  
      35A      0.287169    36A      0.336269    37A      0.336276  
      38A      0.338067    39A      0.347175    40A      0.347182  
      41A      0.356118    42A      0.358185    43A      0.362602  
      44A      0.384905    45A      0.384928    46A      0.391627  
      47A      0.406053    48A      0.410184    49A      0.410215  
      50A      0.414012    51A      0.441402    52A      0.461202  
      53A      0.461205    54A      0.468690    55A      0.468692  
      56A      0.486921    57A      0.486926    58A      0.507192  
      59A      0.514195    60A      0.514198    61A      0.595430  
      62A      0.603624    63A      0.603625    64A      0.683979  
      65A      0.683980    66A      0.693807    67A      0.770106  
      68A      0.785489    69A      0.785498    70A      0.807057  
      71A      0.815928    72A      0.839064    73A      0.839069  
      74A      0.847684    75A      0.895139    76A      0.895146  
      77A      0.898349    78A      0.903671    79A      0.916542  
      80A      0.929092    81A      0.929120    82A      0.974105  
      83A      0.974108    84A      0.974891    85A      0.974899  
      86A      0.981555    87A      0.981565    88A      0.981957  
      89A      1.016317    90A      1.038714    91A      1.038726  
      92A      1.057693    93A      1.075483    94A      1.075490  
      95A      1.082073    96A      1.088856    97A      1.091952  
      98A      1.093713    99A      1.093714   100A      1.101575  
     101A      1.101578   102A      1.133769   103A      1.133786  
     104A      1.144604   105A      1.144606   106A      1.217600  
     107A      1.220466   108A      1.220472   109A      1.223183  
     110A      1.223298   111A      1.223303   112A      1.271647  
     113A      1.271652   114A      1.321960   115A      1.345978  
     116A      1.358916   117A      1.358939   118A      1.595754  
     119A      1.595756   120A      1.602694   121A      1.625022  
     122A      1.625629   123A      1.627913   124A      1.627917  
     125A      1.647737   126A      1.739407   127A      1.739409  
     128A      1.742806   129A      1.766920   130A      1.766939  
     131A      1.769151   132A      1.864689   133A      1.864704  
     134A      1.869081   135A      1.871712   136A      1.871717  
     137A      1.899483   138A      1.932639   139A      1.937353  
     140A      1.937358   141A      2.008118   142A      2.042629  
     143A      2.042660   144A      2.050277   145A      2.050286  
     146A      2.123310   147A      2.123315   148A      2.139662  
     149A      2.250962   150A      2.250966   151A      2.297999  
     152A      2.334446   153A      2.374012   154A      2.374016  
     155A      2.440010   156A      2.440025   157A      2.499376  
     158A      2.598131   159A      2.930054   160A      3.255796  
     161A      3.255799   162A      3.261694   163A      3.374658  
     164A      3.494028   165A      3.494035   166A      3.555921  
     167A      3.555930   168A      3.579748   169A      3.579755  
     170A      3.585445   171A      3.586420   172A      3.586424  
     173A      3.587353   174A      3.918330   175A      3.918337  
     176A      3.924549   177A      3.974066   178A      3.974095  
     179A      4.046200   180A      4.062229   181A      4.062235  
     182A      4.078063   183A      4.078078   184A      4.080951  
     185A      4.084665   186A      4.124934   187A      4.124936  
     188A      4.135712   189A      4.135726   190A      4.210964  
     191A      4.235832   192A      4.266206   193A      4.266227  
     194A      4.274561   195A      4.315559   196A      4.356526  
     197A      4.356542   198A      4.499018   199A      4.551425  
     200A      4.551431   201A      4.583502   202A      4.583523  
     203A      4.590525   204A      4.703288   205A      4.738261  
     206A      4.738279   207A      4.770402   208A      4.770408  
     209A      4.810728   210A      4.812222   211A      4.812231  
     212A      4.867429   213A      4.867567   214A      4.867571  
     215A      4.950492   216A      4.950524   217A      4.996626  
     218A      5.056133   219A      5.056136   220A      5.095269  
     221A      5.202027   222A      5.204101   223A      5.204108  
     224A      5.274569   225A      5.318924   226A      5.637543  
     227A      5.656826   228A      5.656893   229A      5.691612  
     230A      5.691662   231A      5.719624   232A      5.834796  
     233A      5.834823   234A      5.839211   235A      5.901617  
     236A      5.901675   237A      6.056889   238A      6.246643  
     239A      6.246657   240A      6.250660   241A      6.358423  
     242A      6.358532   243A      6.400151   244A      6.615983  
     245A      6.616004   246A      6.618028   247A      6.627215  
     248A      6.947369   249A      6.947398   250A      7.695637  
     251A      7.695691   252A     17.264185   253A     17.817479  

    Final Occupation by Irrep:
              A 
    DOCC [    10 ]

  @DF-RHF Final Energy:   -96.43394584571823

   => Energetics <=

    Nuclear Repulsion Energy =             33.4463718951354423
    One-Electron Energy =                -195.4915934034372924
    Two-Electron Energy =                  65.6112756625836084
    Total Energy =                        -96.4339458457182275

Computation Completed


Properties will be evaluated at   0.000000,   0.000000,   0.000000 [a0]

Properties computed using the SCF density matrix

  Nuclear Dipole Moment: [e a0]
     X:    -2.8370      Y:    -0.0007      Z:     0.0002

  Electronic Dipole Moment: [e a0]
     X:     3.5037      Y:     0.0000      Z:    -0.0002

  Dipole Moment: [e a0]
     X:     0.6667      Y:    -0.0006      Z:     0.0000     Total:     0.6667

  Dipole Moment: [D]
     X:     1.6946      Y:    -0.0016      Z:     0.0001     Total:     1.6946


*** tstop() called on genome.bme.utexas.edu at Thu Apr 23 22:16:24 2020
Module time:
	user time   =      47.24 seconds =       0.79 minutes
	system time =       1.38 seconds =       0.02 minutes
	total time  =          7 seconds =       0.12 minutes
Total time:
	user time   =      47.24 seconds =       0.79 minutes
	system time =       1.38 seconds =       0.02 minutes
	total time  =          7 seconds =       0.12 minutes

  //>>>>>>>>>>>>>>>>>>>>>>>>>>>>>>>>>>>//
  //            Monomer A HF           //
  //<<<<<<<<<<<<<<<<<<<<<<<<<<<<<<<<<<<//


*** tstart() called on genome.bme.utexas.edu
*** at Thu Apr 23 22:16:24 2020

   => Loading Basis Set <=

    Name: AUG-CC-PVTZ
    Role: ORBITAL
    Keyword: BASIS
    atoms 1        entry C          line   239 file /home/liuchw/anaconda3/envs/psi4env/share/psi4/basis/aug-cc-pvtz.gbs 
    atoms 2-5, 7-9 entry H          line    40 file /home/liuchw/anaconda3/envs/psi4env/share/psi4/basis/aug-cc-pvtz.gbs 
    atoms 6        entry N          line   285 file /home/liuchw/anaconda3/envs/psi4env/share/psi4/basis/aug-cc-pvtz.gbs 


         ---------------------------------------------------------
                                   SCF
               by Justin Turney, Rob Parrish, Andy Simmonett
                          and Daniel G. A. Smith
                              RHF Reference
                        8 Threads,  47683 MiB Core
         ---------------------------------------------------------

  ==> Geometry <==

    Molecular point group: c1
    Full point group: C1

    Geometry (in Angstrom), charge = 0, multiplicity = 1:

       Center              X                  Y                   Z               Mass       
    ------------   -----------------  -----------------  -----------------  -----------------
         C           -3.381124233329     0.000183510525     0.000129950545    12.000000000000
         H           -3.747194233329    -0.618636489475    -0.813820049455     1.007825032230
         H           -3.747744233329    -0.395456489475     0.942749950545     1.007825032230
         H           -3.748054233329     1.014183510525    -0.128790049455     1.007825032230
         H           -2.295064233329     0.000623510525     0.000429950545     1.007825032230
      Gh(N)           3.114575766671    -0.000106489475    -0.000130049455    14.003074004430
      Gh(H)           3.507615766671     0.376103510525    -0.852960049455     1.007825032230
      Gh(H)           3.507665766671     0.549863510525     0.752419950545     1.007825032230
      Gh(H)           3.506235766671    -0.927386489475     0.100229950545     1.007825032230

  Running in c1 symmetry.

  Rotational constants: A =      2.91259  B =      0.04671  C =      0.04671 [cm^-1]
  Rotational constants: A =  87317.32966  B =   1400.41289  C =   1400.41240 [MHz]
  Nuclear repulsion =   13.484418324171054

  Charge       = 0
  Multiplicity = 1
  Electrons    = 10
  Nalpha       = 5
  Nbeta        = 5

  ==> Algorithm <==

  SCF Algorithm Type is DF.
  DIIS enabled.
  MOM disabled.
  Fractional occupation disabled.
  Guess Type is SAD.
  Energy threshold   = 1.00e-08
  Density threshold  = 1.00e-08
  Integral threshold = 0.00e+00

  ==> Primary Basis <==

  Basis Set: AUG-CC-PVTZ
    Blend: AUG-CC-PVTZ
    Number of shells: 91
    Number of basis function: 253
    Number of Cartesian functions: 285
    Spherical Harmonics?: true
    Max angular momentum: 3

   => Loading Basis Set <=

    Name: (AUG-CC-PVTZ AUX)
    Role: JKFIT
    Keyword: DF_BASIS_SCF
    atoms 1        entry C          line   162 file /home/liuchw/anaconda3/envs/psi4env/share/psi4/basis/aug-cc-pvtz-jkfit.gbs 
    atoms 2-5, 7-9 entry H          line    70 file /home/liuchw/anaconda3/envs/psi4env/share/psi4/basis/aug-cc-pvtz-jkfit.gbs 
    atoms 6        entry N          line   224 file /home/liuchw/anaconda3/envs/psi4env/share/psi4/basis/aug-cc-pvtz-jkfit.gbs 

  ==> Pre-Iterations <==

   -------------------------------------------------------
    Irrep   Nso     Nmo     Nalpha   Nbeta   Ndocc  Nsocc
   -------------------------------------------------------
     A        253     253       0       0       0       0
   -------------------------------------------------------
    Total     253     253       5       5       5       0
   -------------------------------------------------------

  ==> Integral Setup <==

  ==> DiskDFJK: Density-Fitted J/K Matrices <==

    J tasked:                  Yes
    K tasked:                  Yes
    wK tasked:                  No
    OpenMP threads:              8
    Integrals threads:           8
    Memory [MiB]:            35762
    Algorithm:                Core
    Integral Cache:           LOAD
    Schwarz Cutoff:          1E-12
    Fitting Condition:       1E-10

   => Auxiliary Basis Set <=

  Basis Set: (AUG-CC-PVTZ AUX)
    Blend: AUG-CC-PVTZ-JKFIT
    Number of shells: 158
    Number of basis function: 530
    Number of Cartesian functions: 647
    Spherical Harmonics?: true
    Max angular momentum: 4

  Minimum eigenvalue in the overlap matrix is 7.8974104341E-05.
  Using Symmetric Orthogonalization.

  SCF Guess: Superposition of Atomic Densities via on-the-fly atomic UHF.

  ==> Iterations <==

                           Total Energy        Delta E     RMS |[F,P]|

   @DF-RHF iter SAD:   -39.63298362134621   -3.96330e+01   0.00000e+00 
   @DF-RHF iter   1:   -40.13703576086250   -5.04052e-01   1.45920e-03 DIIS
   @DF-RHF iter   2:   -40.20135871549153   -6.43230e-02   6.08116e-04 DIIS
   @DF-RHF iter   3:   -40.21289687033688   -1.15382e-02   9.36149e-05 DIIS
   @DF-RHF iter   4:   -40.21364408143317   -7.47211e-04   1.14498e-05 DIIS
   @DF-RHF iter   5:   -40.21365456151520   -1.04801e-05   1.02862e-06 DIIS
   @DF-RHF iter   6:   -40.21365465508698   -9.35718e-08   9.01542e-08 DIIS
   @DF-RHF iter   7:   -40.21365465567313   -5.86155e-10   8.13749e-09 DIIS
  Energy and wave function converged.


  ==> Post-Iterations <==

    Orbital Energies [Eh]
    ---------------------

    Doubly Occupied:                                                      

       1A    -11.205325     2A     -0.943997     3A     -0.546512  
       4A     -0.545027     5A     -0.545019  

    Virtual:                                                              

       6A      0.023296     7A      0.035587     8A      0.045814  
       9A      0.045815    10A      0.054917    11A      0.054919  
      12A      0.061580    13A      0.113068    14A      0.123084  
      15A      0.123088    16A      0.128759    17A      0.138271  
      18A      0.146923    19A      0.146925    20A      0.159149  
      21A      0.217535    22A      0.217540    23A      0.220149  
      24A      0.227946    25A      0.227947    26A      0.252200  
      27A      0.252203    28A      0.253411    29A      0.253412  
      30A      0.298856    31A      0.316127    32A      0.332133  
      33A      0.332136    34A      0.334456    35A      0.336779  
      36A      0.343951    37A      0.343966    38A      0.354256  
      39A      0.367108    40A      0.374521    41A      0.374539  
      42A      0.377145    43A      0.396855    44A      0.396870  
      45A      0.401522    46A      0.422821    47A      0.422829  
      48A      0.425896    49A      0.464741    50A      0.464743  
      51A      0.484587    52A      0.509455    53A      0.509461  
      54A      0.550791    55A      0.585421    56A      0.585436  
      57A      0.672974    58A      0.672979    59A      0.679480  
      60A      0.679481    61A      0.687331    62A      0.693759  
      63A      0.730165    64A      0.789197    65A      0.789202  
      66A      0.807110    67A      0.834521    68A      0.834526  
      69A      0.834724    70A      0.884663    71A      0.894106  
      72A      0.897186    73A      0.897193    74A      0.916281  
      75A      0.916287    76A      0.966704    77A      0.968527  
      78A      0.968532    79A      0.970403    80A      0.970409  
      81A      0.975211    82A      0.982431    83A      1.044885  
      84A      1.049822    85A      1.049827    86A      1.061271  
      87A      1.061276    88A      1.073031    89A      1.073039  
      90A      1.087494    91A      1.089071    92A      1.089076  
      93A      1.098768    94A      1.113941    95A      1.128733  
      96A      1.128742    97A      1.167684    98A      1.167688  
      99A      1.194429   100A      1.215854   101A      1.215858  
     102A      1.217775   103A      1.224412   104A      1.224428  
     105A      1.266330   106A      1.266336   107A      1.316727  
     108A      1.350710   109A      1.350716   110A      1.385873  
     111A      1.413582   112A      1.563627   113A      1.563654  
     114A      1.590415   115A      1.590417   116A      1.598217  
     117A      1.620886   118A      1.622463   119A      1.622468  
     120A      1.627091   121A      1.651528   122A      1.651878  
     123A      1.651886   124A      1.735134   125A      1.735137  
     126A      1.738684   127A      1.830885   128A      1.866730  
     129A      1.866737   130A      1.889647   131A      1.927716  
     132A      1.931068   133A      1.931074   134A      1.939191  
     135A      1.939205   136A      1.962498   137A      2.023328  
     138A      2.023342   139A      2.109725   140A      2.118117  
     141A      2.118121   142A      2.141433   143A      2.200658  
     144A      2.200662   145A      2.247700   146A      2.247707  
     147A      2.413366   148A      2.591944   149A      2.672717  
     150A      2.706407   151A      2.706429   152A      2.811768  
     153A      2.830929   154A      2.830963   155A      2.924317  
     156A      3.020966   157A      3.188627   158A      3.188627  
     159A      3.250676   160A      3.250679   161A      3.256278  
     162A      3.488762   163A      3.488769   164A      3.574436  
     165A      3.574443   166A      3.580453   167A      3.581000  
     168A      3.581004   169A      3.582299   170A      3.913268  
     171A      3.913275   172A      3.919289   173A      4.057051  
     174A      4.057058   175A      4.072708   176A      4.072722  
     177A      4.074280   178A      4.076107   179A      4.119775  
     180A      4.119777   181A      4.269411   182A      4.294646  
     183A      4.294690   184A      4.403893   185A      4.403899  
     186A      4.433390   187A      4.505373   188A      4.543504  
     189A      4.543518   190A      4.578074   191A      4.578095  
     192A      4.585289   193A      4.666222   194A      4.765001  
     195A      4.765007   196A      4.805365   197A      4.806635  
     198A      4.806644   199A      4.842631   200A      4.842653  
     201A      4.843880   202A      4.862046   203A      4.862049  
     204A      4.862596   205A      4.924965   206A      4.992186  
     207A      4.992212   208A      5.010166   209A      5.196770  
     210A      5.198813   211A      5.198821   212A      5.313396  
     213A      5.350113   214A      5.350154   215A      5.373101  
     216A      5.453576   217A      5.453586   218A      5.519277  
     219A      5.632489   220A      5.651461   221A      5.651527  
     222A      5.726757   223A      5.726784   224A      5.829514  
     225A      5.829541   226A      5.832441   227A      5.883026  
     228A      6.241529   229A      6.241543   230A      6.243934  
     231A      6.246804   232A      6.246891   233A      6.316307  
     234A      6.610961   235A      6.610982   236A      6.616596  
     237A      6.900379   238A      6.900504   239A      7.160427  
     240A      7.411148   241A      7.607604   242A      7.607639  
     243A      7.845166   244A      7.875388   245A      7.875406  
     246A      9.261148   247A      9.261225   248A      9.638629  
     249A     10.873492   250A     10.873501   251A     12.016274  
     252A     17.810720   253A     59.029142  

    Final Occupation by Irrep:
              A 
    DOCC [     5 ]

  @DF-RHF Final Energy:   -40.21365465567313

   => Energetics <=

    Nuclear Repulsion Energy =             13.4844183241710542
    One-Electron Energy =                 -79.8243911127666479
    Two-Electron Energy =                  26.1263181329224601
    Total Energy =                        -40.2136546556731247

Computation Completed


Properties will be evaluated at   0.000000,   0.000000,   0.000000 [a0]

Properties computed using the SCF density matrix

  Nuclear Dipole Moment: [e a0]
     X:   -63.9196      Y:     0.0034      Z:     0.0026

  Electronic Dipole Moment: [e a0]
     X:    63.9182      Y:    -0.0034      Z:    -0.0025

  Dipole Moment: [e a0]
     X:    -0.0014      Y:    -0.0000      Z:     0.0000     Total:     0.0014

  Dipole Moment: [D]
     X:    -0.0037      Y:    -0.0000      Z:     0.0000     Total:     0.0037


*** tstop() called on genome.bme.utexas.edu at Thu Apr 23 22:16:28 2020
Module time:
	user time   =      22.35 seconds =       0.37 minutes
	system time =       0.73 seconds =       0.01 minutes
	total time  =          4 seconds =       0.07 minutes
Total time:
	user time   =      69.66 seconds =       1.16 minutes
	system time =       2.11 seconds =       0.04 minutes
	total time  =         11 seconds =       0.18 minutes

  //>>>>>>>>>>>>>>>>>>>>>>>>>>>>>>>>>>>//
  //            Monomer B HF           //
  //<<<<<<<<<<<<<<<<<<<<<<<<<<<<<<<<<<<//


*** tstart() called on genome.bme.utexas.edu
*** at Thu Apr 23 22:16:28 2020

   => Loading Basis Set <=

    Name: AUG-CC-PVTZ
    Role: ORBITAL
    Keyword: BASIS
    atoms 1        entry C          line   239 file /home/liuchw/anaconda3/envs/psi4env/share/psi4/basis/aug-cc-pvtz.gbs 
    atoms 2-5, 7-9 entry H          line    40 file /home/liuchw/anaconda3/envs/psi4env/share/psi4/basis/aug-cc-pvtz.gbs 
    atoms 6        entry N          line   285 file /home/liuchw/anaconda3/envs/psi4env/share/psi4/basis/aug-cc-pvtz.gbs 


         ---------------------------------------------------------
                                   SCF
               by Justin Turney, Rob Parrish, Andy Simmonett
                          and Daniel G. A. Smith
                              RHF Reference
                        8 Threads,  47683 MiB Core
         ---------------------------------------------------------

  ==> Geometry <==

    Molecular point group: c1
    Full point group: C1

    Geometry (in Angstrom), charge = 0, multiplicity = 1:

       Center              X                  Y                   Z               Mass       
    ------------   -----------------  -----------------  -----------------  -----------------
      Gh(C)          -3.381124233329     0.000183510525     0.000129950545    12.000000000000
      Gh(H)          -3.747194233329    -0.618636489475    -0.813820049455     1.007825032230
      Gh(H)          -3.747744233329    -0.395456489475     0.942749950545     1.007825032230
      Gh(H)          -3.748054233329     1.014183510525    -0.128790049455     1.007825032230
      Gh(H)          -2.295064233329     0.000623510525     0.000429950545     1.007825032230
         N            3.114575766671    -0.000106489475    -0.000130049455    14.003074004430
         H            3.507615766671     0.376103510525    -0.852960049455     1.007825032230
         H            3.507665766671     0.549863510525     0.752419950545     1.007825032230
         H            3.506235766671    -0.927386489475     0.100229950545     1.007825032230

  Running in c1 symmetry.

  Rotational constants: A =      2.91259  B =      0.04671  C =      0.04671 [cm^-1]
  Rotational constants: A =  87317.32966  B =   1400.41289  C =   1400.41240 [MHz]
  Nuclear repulsion =   11.968467763841211

  Charge       = 0
  Multiplicity = 1
  Electrons    = 10
  Nalpha       = 5
  Nbeta        = 5

  ==> Algorithm <==

  SCF Algorithm Type is DF.
  DIIS enabled.
  MOM disabled.
  Fractional occupation disabled.
  Guess Type is SAD.
  Energy threshold   = 1.00e-08
  Density threshold  = 1.00e-08
  Integral threshold = 0.00e+00

  ==> Primary Basis <==

  Basis Set: AUG-CC-PVTZ
    Blend: AUG-CC-PVTZ
    Number of shells: 91
    Number of basis function: 253
    Number of Cartesian functions: 285
    Spherical Harmonics?: true
    Max angular momentum: 3

   => Loading Basis Set <=

    Name: (AUG-CC-PVTZ AUX)
    Role: JKFIT
    Keyword: DF_BASIS_SCF
    atoms 1        entry C          line   162 file /home/liuchw/anaconda3/envs/psi4env/share/psi4/basis/aug-cc-pvtz-jkfit.gbs 
    atoms 2-5, 7-9 entry H          line    70 file /home/liuchw/anaconda3/envs/psi4env/share/psi4/basis/aug-cc-pvtz-jkfit.gbs 
    atoms 6        entry N          line   224 file /home/liuchw/anaconda3/envs/psi4env/share/psi4/basis/aug-cc-pvtz-jkfit.gbs 

  ==> Pre-Iterations <==

   -------------------------------------------------------
    Irrep   Nso     Nmo     Nalpha   Nbeta   Ndocc  Nsocc
   -------------------------------------------------------
     A        253     253       0       0       0       0
   -------------------------------------------------------
    Total     253     253       5       5       5       0
   -------------------------------------------------------

  ==> Integral Setup <==

  ==> DiskDFJK: Density-Fitted J/K Matrices <==

    J tasked:                  Yes
    K tasked:                  Yes
    wK tasked:                  No
    OpenMP threads:              8
    Integrals threads:           8
    Memory [MiB]:            35762
    Algorithm:                Core
    Integral Cache:           LOAD
    Schwarz Cutoff:          1E-12
    Fitting Condition:       1E-10

   => Auxiliary Basis Set <=

  Basis Set: (AUG-CC-PVTZ AUX)
    Blend: AUG-CC-PVTZ-JKFIT
    Number of shells: 158
    Number of basis function: 530
    Number of Cartesian functions: 647
    Spherical Harmonics?: true
    Max angular momentum: 4

  Minimum eigenvalue in the overlap matrix is 7.8974104341E-05.
  Using Symmetric Orthogonalization.

  SCF Guess: Superposition of Atomic Densities via on-the-fly atomic UHF.

  ==> Iterations <==

                           Total Energy        Delta E     RMS |[F,P]|

   @DF-RHF iter SAD:   -55.64591726168032   -5.56459e+01   0.00000e+00 
   @DF-RHF iter   1:   -56.12244119627141   -4.76524e-01   1.84433e-03 DIIS
   @DF-RHF iter   2:   -56.19139275894560   -6.89516e-02   1.06831e-03 DIIS
   @DF-RHF iter   3:   -56.21957826440908   -2.81855e-02   9.66755e-05 DIIS
   @DF-RHF iter   4:   -56.22021225468199   -6.33990e-04   1.80476e-05 DIIS
   @DF-RHF iter   5:   -56.22023331110870   -2.10564e-05   3.32682e-06 DIIS
   @DF-RHF iter   6:   -56.22023449006621   -1.17896e-06   7.84038e-07 DIIS
   @DF-RHF iter   7:   -56.22023455807246   -6.80063e-08   1.58451e-07 DIIS
   @DF-RHF iter   8:   -56.22023456095704   -2.88458e-09   2.42659e-08 DIIS
   @DF-RHF iter   9:   -56.22023456101831   -6.12701e-11   5.86962e-09 DIIS
  Energy and wave function converged.


  ==> Post-Iterations <==

    Orbital Energies [Eh]
    ---------------------

    Doubly Occupied:                                                      

       1A    -15.542140     2A     -1.144253     3A     -0.627767  
       4A     -0.627748     5A     -0.431940  

    Virtual:                                                              

       6A      0.024909     7A      0.033429     8A      0.045759  
       9A      0.045760    10A      0.054257    11A      0.054258  
      12A      0.065244    13A      0.107470    14A      0.120012  
      15A      0.120014    16A      0.133208    17A      0.148506  
      18A      0.161782    19A      0.161783    20A      0.164692  
      21A      0.217777    22A      0.217778    23A      0.229281  
      24A      0.229292    25A      0.233973    26A      0.240809  
      27A      0.240813    28A      0.253812    29A      0.253822  
      30A      0.273756    31A      0.281725    32A      0.312586  
      33A      0.312588    34A      0.333888    35A      0.350425  
      36A      0.350433    37A      0.356276    38A      0.364101  
      39A      0.372554    40A      0.389605    41A      0.389628  
      42A      0.395012    43A      0.415536    44A      0.417572  
      45A      0.417608    46A      0.441960    47A      0.461264  
      48A      0.461268    49A      0.483967    50A      0.483971  
      51A      0.487202    52A      0.487205    53A      0.524796  
      54A      0.564951    55A      0.564956    56A      0.584037  
      57A      0.595266    58A      0.604537    59A      0.604539  
      60A      0.671531    61A      0.671534    62A      0.676715  
      63A      0.782924    64A      0.785723    65A      0.785732  
      66A      0.815941    67A      0.903845    68A      0.912294  
      69A      0.912302    70A      0.913701    71A      0.936516  
      72A      0.936524    73A      0.940946    74A      0.952587  
      75A      0.963156    76A      0.963180    77A      0.979973  
      78A      0.979982    79A      1.036368    80A      1.036375  
      81A      1.040791    82A      1.040793    83A      1.043725  
      84A      1.048955    85A      1.048964    86A      1.051217  
      87A      1.080835    88A      1.082275    89A      1.083327  
      90A      1.083333    91A      1.098074    92A      1.105458  
      93A      1.105466    94A      1.118458    95A      1.121168  
      96A      1.121171    97A      1.143749    98A      1.143753  
      99A      1.162192   100A      1.218524   101A      1.218728  
     102A      1.218741   103A      1.239976   104A      1.239990  
     105A      1.247175   106A      1.247178   107A      1.248517  
     108A      1.339034   109A      1.359114   110A      1.359137  
     111A      1.395085   112A      1.395085   113A      1.398410  
     114A      1.398416   115A      1.426886   116A      1.443525  
     117A      1.631587   118A      1.717577   119A      1.719923  
     120A      1.719930   121A      1.766181   122A      1.766198  
     123A      1.769356   124A      1.849184   125A      1.849191  
     126A      1.850637   127A      1.865695   128A      1.865715  
     129A      1.881400   130A      1.903949   131A      2.008522  
     132A      2.041362   133A      2.041386   134A      2.049026  
     135A      2.049038   136A      2.049556   137A      2.049558  
     138A      2.063205   139A      2.065765   140A      2.072638  
     141A      2.072650   142A      2.267186   143A      2.267198  
     144A      2.270620   145A      2.294200   146A      2.334698  
     147A      2.373457   148A      2.373460   149A      2.440059  
     150A      2.440072   151A      2.459214   152A      2.459221  
     153A      2.499918   154A      2.687063   155A      2.687067  
     156A      2.714628   157A      2.838239   158A      3.374877  
     159A      3.556178   160A      3.556187   161A      3.656029  
     162A      3.974358   163A      3.974387   164A      4.025778  
     165A      4.026981   166A      4.026987   167A      4.035554  
     168A      4.035566   169A      4.039803   170A      4.051786  
     171A      4.135700   172A      4.135716   173A      4.180262  
     174A      4.180265   175A      4.211203   176A      4.236058  
     177A      4.266252   178A      4.266272   179A      4.314516  
     180A      4.356711   181A      4.356726   182A      4.413115  
     183A      4.413128   184A      4.415828   185A      4.440062  
     186A      4.440068   187A      4.450018   188A      4.500927  
     189A      4.522729   190A      4.522736   191A      4.552067  
     192A      4.552073   193A      4.633996   194A      4.634006  
     195A      4.638626   196A      4.702657   197A      4.738509  
     198A      4.738527   199A      4.810062   200A      4.950281  
     201A      4.950311   202A      4.983419   203A      4.983433  
     204A      4.987971   205A      4.996849   206A      5.056329  
     207A      5.056332   208A      5.095493   209A      5.197802  
     210A      5.199203   211A      5.199209   212A      5.274454  
     213A      5.370759   214A      5.370763   215A      5.374714  
     216A      5.424888   217A      5.424894   218A      5.523715  
     219A      5.523726   220A      5.524536   221A      5.589047  
     222A      5.691854   223A      5.691904   224A      5.719916  
     225A      5.901833   226A      5.901892   227A      6.057177  
     228A      6.192488   229A      6.213005   230A      6.213075  
     231A      6.358675   232A      6.358784   233A      6.397710  
     234A      6.397738   235A      6.400398   236A      6.622683  
     237A      6.781891   238A      6.781942   239A      6.797502  
     240A      6.947611   241A      6.947640   242A      7.038537  
     243A      7.695867   244A      7.695921   245A      7.779202  
     246A      7.782155   247A      7.782178   248A      8.130520  
     249A      8.130547   250A      8.132507   251A     10.460597  
     252A     17.265918   253A     52.927047  

    Final Occupation by Irrep:
              A 
    DOCC [     5 ]

  @DF-RHF Final Energy:   -56.22023456101831

   => Energetics <=

    Nuclear Repulsion Energy =             11.9684677638412111
    One-Electron Energy =                 -99.6297082620018415
    Two-Electron Energy =                  31.4410059371423145
    Total Energy =                        -56.2202345610183087

Computation Completed


Properties will be evaluated at   0.000000,   0.000000,   0.000000 [a0]

Properties computed using the SCF density matrix

  Nuclear Dipole Moment: [e a0]
     X:    61.0827      Y:    -0.0041      Z:    -0.0023

  Electronic Dipole Moment: [e a0]
     X:   -60.4317      Y:     0.0035      Z:     0.0024

  Dipole Moment: [e a0]
     X:     0.6510      Y:    -0.0006      Z:     0.0000     Total:     0.6510

  Dipole Moment: [D]
     X:     1.6546      Y:    -0.0016      Z:     0.0001     Total:     1.6546


*** tstop() called on genome.bme.utexas.edu at Thu Apr 23 22:16:32 2020
Module time:
	user time   =      28.62 seconds =       0.48 minutes
	system time =       0.74 seconds =       0.01 minutes
	total time  =          4 seconds =       0.07 minutes
Total time:
	user time   =      98.37 seconds =       1.64 minutes
	system time =       2.85 seconds =       0.05 minutes
	total time  =         15 seconds =       0.25 minutes
  Constructing Basis Sets for SAPT...

   => Loading Basis Set <=

    Name: (AUG-CC-PVTZ AUX)
    Role: RIFIT
    Keyword: DF_BASIS_SAPT
    atoms 1        entry C          line   148 file /home/liuchw/anaconda3/envs/psi4env/share/psi4/basis/aug-cc-pvtz-ri.gbs 
    atoms 2-5, 7-9 entry H          line    30 file /home/liuchw/anaconda3/envs/psi4env/share/psi4/basis/aug-cc-pvtz-ri.gbs 
    atoms 6        entry N          line   206 file /home/liuchw/anaconda3/envs/psi4env/share/psi4/basis/aug-cc-pvtz-ri.gbs 


  //>>>>>>>>>>>>>>>>>>>>>>>>>>>>>>>>>>>//
  //               SAPT2+              //
  //<<<<<<<<<<<<<<<<<<<<<<<<<<<<<<<<<<<//


*** tstart() called on genome.bme.utexas.edu
*** at Thu Apr 23 22:16:32 2020

        SAPT2+  
    Ed Hohenstein
     6 June 2009

      Orbital Information
  --------------------------
    NSO        =       253
    NMO        =       253
    NRI        =       534
    NOCC A     =         5
    NOCC B     =         5
    FOCC A     =         1
    FOCC B     =         1
    NVIR A     =       248
    NVIR B     =       248

    Estimated memory usage: 299.6 MB

    Natural Orbital Cutoff:   1.000E-06
    Disp(T3) Truncation:            Yes
    CCD (vv|vv) Truncation:         Yes
    MBPT T2 Truncation:             Yes

    Monomer A: 135 virtual orbitals dropped
    Monomer B: 153 virtual orbitals dropped

    Elst10,r            =    -0.000047479134 [Eh]
    Exch10 (S^2)        =     0.000000364829 [Eh]
    Exch10              =     0.000000364830 [Eh]
    Ind20,r (A<-B)      =    -0.000009506405 [Eh]
    Ind20,r (B<-A)      =    -0.000000041197 [Eh]
    Ind20,r             =    -0.000009547603 [Eh]
    Exch-Ind20,r (A<-B) =     0.000000006376 [Eh]
    Exch-Ind20,r (B<-A) =     0.000000013135 [Eh]
    Exch-Ind20,r        =     0.000000019510 [Eh]
    Disp20              =    -0.000035218873 [Eh]
    Disp20 (NO)         =    -0.000033355483 [Eh]
    Exch-Disp20         =     0.000000061438 [Eh]
    Elst12,r            =    -0.000001305574 [Eh]
    Exch11              =    -0.000000009006 [Eh]
    Exch12              =     0.000000125841 [Eh]
    Ind22               =     0.000000238451 [Eh]
    Disp21              =     0.000000220148 [Eh]
    Disp22 (SDQ)        =     0.000001742683 [Eh]

    (i =   1 of   4)          2 seconds
    (i =   2 of   4)          3 seconds
    (i =   3 of   4)          5 seconds
    (i =   4 of   4)          6 seconds

    Disp220 (T)         =    -0.000002264116 [Eh]

    (i =   1 of   4)          2 seconds
    (i =   2 of   4)          3 seconds
    (i =   3 of   4)          4 seconds
    (i =   4 of   4)          6 seconds

    Disp202 (T)         =    -0.000003015815 [Eh]

    Disp22 (T)          =    -0.000005279931 [Eh]

    Est. Disp220 (T)    =    -0.000002390600 [Eh]
    Est. Disp202 (T)    =    -0.000003184293 [Eh]

    Est. Disp22 (T)     =    -0.000005574892 [Eh]

    SAPT Results 
  --------------------------------------------------------------------------------------------------------
    Electrostatics                 -0.04878471 [mEh]      -0.03061287 [kcal/mol]      -0.12808423 [kJ/mol]
      Elst10,r                     -0.04747913 [mEh]      -0.02979361 [kcal/mol]      -0.12465645 [kJ/mol]
      Elst12,r                     -0.00130557 [mEh]      -0.00081926 [kcal/mol]      -0.00342778 [kJ/mol]

    Exchange                        0.00048166 [mEh]       0.00030225 [kcal/mol]       0.00126461 [kJ/mol]
      Exch10                        0.00036483 [mEh]       0.00022893 [kcal/mol]       0.00095786 [kJ/mol]
      Exch10(S^2)                   0.00036483 [mEh]       0.00022893 [kcal/mol]       0.00095786 [kJ/mol]
      Exch11(S^2)                  -0.00000901 [mEh]      -0.00000565 [kcal/mol]      -0.00002364 [kJ/mol]
      Exch12(S^2)                   0.00012584 [mEh]       0.00007897 [kcal/mol]       0.00033039 [kJ/mol]

    Induction                      -0.00927676 [mEh]      -0.00582125 [kcal/mol]      -0.02435613 [kJ/mol]
      Ind20,r                      -0.00954760 [mEh]      -0.00599121 [kcal/mol]      -0.02506723 [kJ/mol]
      Ind22                         0.00023845 [mEh]       0.00014963 [kcal/mol]       0.00062605 [kJ/mol]
      Exch-Ind20,r                  0.00001951 [mEh]       0.00001224 [kcal/mol]       0.00005122 [kJ/mol]
      Exch-Ind22                   -0.00000049 [mEh]      -0.00000031 [kcal/mol]      -0.00000128 [kJ/mol]
      delta HF,r (2)                0.00001337 [mEh]       0.00000839 [kcal/mol]       0.00003510 [kJ/mol]

    Dispersion                     -0.03876950 [mEh]      -0.02432823 [kcal/mol]      -0.10178930 [kJ/mol]
      Disp20                       -0.03521887 [mEh]      -0.02210018 [kcal/mol]      -0.09246714 [kJ/mol]
      Disp21                        0.00022015 [mEh]       0.00013814 [kcal/mol]       0.00057800 [kJ/mol]
      Disp22 (SDQ)                  0.00174268 [mEh]       0.00109355 [kcal/mol]       0.00457541 [kJ/mol]
      Disp22 (T)                   -0.00527993 [mEh]      -0.00331321 [kcal/mol]      -0.01386246 [kJ/mol]
      Est. Disp22 (T)              -0.00557489 [mEh]      -0.00349830 [kcal/mol]      -0.01463688 [kJ/mol]
      Exch-Disp20                   0.00006144 [mEh]       0.00003855 [kcal/mol]       0.00016131 [kJ/mol]

  Total HF                         -0.05662903 [mEh]      -0.03553525 [kcal/mol]      -0.14867949 [kJ/mol]
  Total SAPT0                      -0.09178646 [mEh]      -0.05759687 [kcal/mol]      -0.24098532 [kJ/mol]
  Total SAPT2                      -0.09273724 [mEh]      -0.05819349 [kcal/mol]      -0.24348158 [kJ/mol]
  Total SAPT2+                     -0.09634930 [mEh]      -0.06046010 [kcal/mol]      -0.25296505 [kJ/mol]

  Special recipe for scaled SAPT0 (see Manual):
    Electrostatics sSAPT0          -0.04747913 [mEh]      -0.02979361 [kcal/mol]      -0.12465645 [kJ/mol]
    Exchange sSAPT0                 0.00036483 [mEh]       0.00022893 [kcal/mol]       0.00095786 [kJ/mol]
    Induction sSAPT0               -0.00951472 [mEh]      -0.00597058 [kcal/mol]      -0.02498090 [kJ/mol]
    Dispersion sSAPT0              -0.03515744 [mEh]      -0.02206162 [kcal/mol]      -0.09230583 [kJ/mol]
  Total sSAPT0                     -0.09178646 [mEh]      -0.05759687 [kcal/mol]      -0.24098532 [kJ/mol]
  --------------------------------------------------------------------------------------------------------

*** tstop() called on genome.bme.utexas.edu at Thu Apr 23 22:17:15 2020
Module time:
	user time   =     297.15 seconds =       4.95 minutes
	system time =      18.04 seconds =       0.30 minutes
	total time  =         43 seconds =       0.72 minutes
Total time:
	user time   =     396.51 seconds =       6.61 minutes
	system time =      20.93 seconds =       0.35 minutes
	total time  =         58 seconds =       0.97 minutes

    Psi4 stopped on: Thursday, 23 April 2020 10:17PM
    Psi4 wall time for execution: 0:00:57.96

*** Psi4 exiting successfully. Buy a developer a beer!
