
    -----------------------------------------------------------------------
          Psi4: An Open-Source Ab Initio Electronic Structure Package
                               Psi4 1.4a2.dev224 

                         Git: Rev {master} e453b16 


    R. M. Parrish, L. A. Burns, D. G. A. Smith, A. C. Simmonett,
    A. E. DePrince III, E. G. Hohenstein, U. Bozkaya, A. Yu. Sokolov,
    R. Di Remigio, R. M. Richard, J. F. Gonthier, A. M. James,
    H. R. McAlexander, A. Kumar, M. Saitow, X. Wang, B. P. Pritchard,
    P. Verma, H. F. Schaefer III, K. Patkowski, R. A. King, E. F. Valeev,
    F. A. Evangelista, J. M. Turney, T. D. Crawford, and C. D. Sherrill,
    J. Chem. Theory Comput. 13(7) pp 3185--3197 (2017).
    (doi: 10.1021/acs.jctc.7b00174)


                         Additional Contributions by
    P. Kraus, H. Kruse, M. H. Lechner, M. C. Schieber, R. A. Shaw,
    A. Alenaizan, R. Galvelis, Z. L. Glick, S. Lehtola, and J. P. Misiewicz

    -----------------------------------------------------------------------


    Psi4 started on: Thursday, 23 April 2020 10:54PM

    Process ID: 45196
    Host:       genome.bme.utexas.edu
    PSIDATADIR: /home/liuchw/anaconda3/envs/psi4env/share/psi4
    Memory:     500.0 MiB
    Threads:    8
    
  ==> Input File <==

--------------------------------------------------------------------------
#Generated by lconvert.py for sapt job

memory 50 GB

molecule  {
0 1
  C       1.433270    0.673520    0.000070
  H       2.314590    1.298680   -0.000900
  H       0.472720    1.168200    0.001070
  C       1.527250   -0.655290    0.000050
  H       0.645880   -1.280300    0.001020
  H       2.487500   -1.150700   -0.000950
--
0 1
  C      -3.393720   -0.088770   -0.279160
  H      -3.684290    0.957280   -0.279290
  H      -2.803710   -0.300180   -1.165690
  H      -2.804660   -0.300210    0.608000
  H      -4.283880   -0.709920   -0.279640
units angstrom
no_reorient
symmetry c1
}

set {
scf_type DF
basis aug-cc-pvtz
freeze_core True
guess SAD
}
energy('sapt2+')
--------------------------------------------------------------------------

  Memory set to  46.566 GiB by Python driver.

Scratch directory: /scratch/liuchw/

  //>>>>>>>>>>>>>>>>>>>>>>>>>>>>>>>>>>>//
  //              Dimer HF             //
  //<<<<<<<<<<<<<<<<<<<<<<<<<<<<<<<<<<<//


*** tstart() called on genome.bme.utexas.edu
*** at Thu Apr 23 22:54:29 2020

   => Loading Basis Set <=

    Name: AUG-CC-PVTZ
    Role: ORBITAL
    Keyword: BASIS
    atoms 1, 4, 7        entry C          line   239 file /home/liuchw/anaconda3/envs/psi4env/share/psi4/basis/aug-cc-pvtz.gbs 
    atoms 2-3, 5-6, 8-11 entry H          line    40 file /home/liuchw/anaconda3/envs/psi4env/share/psi4/basis/aug-cc-pvtz.gbs 


         ---------------------------------------------------------
                                   SCF
               by Justin Turney, Rob Parrish, Andy Simmonett
                          and Daniel G. A. Smith
                              RHF Reference
                        8 Threads,  47683 MiB Core
         ---------------------------------------------------------

  ==> Geometry <==

    Molecular point group: c1
    Full point group: C1

    Geometry (in Angstrom), charge = 0, multiplicity = 1:

       Center              X                  Y                   Z               Mass       
    ------------   -----------------  -----------------  -----------------  -----------------
         C            1.726356590383     0.699984886370     0.101598182252    12.000000000000
         H            2.607676590383     1.325144886370     0.100628182252     1.007825032230
         H            0.765806590383     1.194664886370     0.102598182252     1.007825032230
         C            1.820336590383    -0.628825113630     0.101578182252    12.000000000000
         H            0.938966590383    -1.253835113630     0.102548182252     1.007825032230
         H            2.780586590383    -1.124235113630     0.100578182252     1.007825032230
         C           -3.100633409617    -0.062305113630    -0.177631817748    12.000000000000
         H           -3.391203409617     0.983744886370    -0.177761817748     1.007825032230
         H           -2.510623409617    -0.273715113630    -1.064161817748     1.007825032230
         H           -2.511573409617    -0.273745113630     0.709528182252     1.007825032230
         H           -3.990793409617    -0.683455113630    -0.178111817748     1.007825032230

  Running in c1 symmetry.

  Rotational constants: A =      0.84863  B =      0.06748  C =      0.06326 [cm^-1]
  Rotational constants: A =  25441.21364  B =   2022.98885  C =   1896.43516 [MHz]
  Nuclear repulsion =   64.126821871194267

  Charge       = 0
  Multiplicity = 1
  Electrons    = 26
  Nalpha       = 13
  Nbeta        = 13

  ==> Algorithm <==

  SCF Algorithm Type is DF.
  DIIS enabled.
  MOM disabled.
  Fractional occupation disabled.
  Guess Type is SAD.
  Energy threshold   = 1.00e-08
  Density threshold  = 1.00e-08
  Integral threshold = 0.00e+00

  ==> Primary Basis <==

  Basis Set: AUG-CC-PVTZ
    Blend: AUG-CC-PVTZ
    Number of shells: 114
    Number of basis function: 322
    Number of Cartesian functions: 365
    Spherical Harmonics?: true
    Max angular momentum: 3

   => Loading Basis Set <=

    Name: (AUG-CC-PVTZ AUX)
    Role: JKFIT
    Keyword: DF_BASIS_SCF
    atoms 1, 4, 7        entry C          line   162 file /home/liuchw/anaconda3/envs/psi4env/share/psi4/basis/aug-cc-pvtz-jkfit.gbs 
    atoms 2-3, 5-6, 8-11 entry H          line    70 file /home/liuchw/anaconda3/envs/psi4env/share/psi4/basis/aug-cc-pvtz-jkfit.gbs 

  ==> Pre-Iterations <==

   -------------------------------------------------------
    Irrep   Nso     Nmo     Nalpha   Nbeta   Ndocc  Nsocc
   -------------------------------------------------------
     A        322     322       0       0       0       0
   -------------------------------------------------------
    Total     322     322      13      13      13       0
   -------------------------------------------------------

  ==> Integral Setup <==

  ==> DiskDFJK: Density-Fitted J/K Matrices <==

    J tasked:                  Yes
    K tasked:                  Yes
    wK tasked:                  No
    OpenMP threads:              8
    Integrals threads:           8
    Memory [MiB]:            35762
    Algorithm:                Core
    Integral Cache:           SAVE
    Schwarz Cutoff:          1E-12
    Fitting Condition:       1E-10

   => Auxiliary Basis Set <=

  Basis Set: (AUG-CC-PVTZ AUX)
    Blend: AUG-CC-PVTZ-JKFIT
    Number of shells: 202
    Number of basis function: 680
    Number of Cartesian functions: 833
    Spherical Harmonics?: true
    Max angular momentum: 4

  Minimum eigenvalue in the overlap matrix is 3.9926083978E-06.
  Using Symmetric Orthogonalization.

  SCF Guess: Superposition of Atomic Densities via on-the-fly atomic UHF.

  ==> Iterations <==

                           Total Energy        Delta E     RMS |[F,P]|

   @DF-RHF iter SAD:  -116.91441923067723   -1.16914e+02   0.00000e+00 
   @DF-RHF iter   1:  -118.12220574441939   -1.20779e+00   1.62517e-03 DIIS
   @DF-RHF iter   2:  -118.25400902653419   -1.31803e-01   6.70141e-04 DIIS
   @DF-RHF iter   3:  -118.27712582678026   -2.31168e-02   1.02453e-04 DIIS
   @DF-RHF iter   4:  -118.27843747457645   -1.31165e-03   1.22427e-05 DIIS
   @DF-RHF iter   5:  -118.27845629276760   -1.88182e-05   2.84132e-06 DIIS
   @DF-RHF iter   6:  -118.27845687969361   -5.86926e-07   5.26941e-07 DIIS
   @DF-RHF iter   7:  -118.27845691313108   -3.34375e-08   6.39839e-08 DIIS
   @DF-RHF iter   8:  -118.27845691360203   -4.70948e-10   1.85093e-08 DIIS
   @DF-RHF iter   9:  -118.27845691362666   -2.46274e-11   6.80520e-09 DIIS
  Energy and wave function converged.


  ==> Post-Iterations <==

    Orbital Energies [Eh]
    ---------------------

    Doubly Occupied:                                                      

       1A    -11.230899     2A    -11.229174     3A    -11.206362  
       4A     -1.034677     5A     -0.945479     6A     -0.793244  
       7A     -0.644992     8A     -0.587546     9A     -0.547058  
      10A     -0.546959    11A     -0.546722    12A     -0.508471  
      13A     -0.377033  

    Virtual:                                                              

      14A      0.029771    15A      0.037227    16A      0.038590  
      17A      0.052163    18A      0.052536    19A      0.056027  
      20A      0.074365    21A      0.079921    22A      0.091846  
      23A      0.105206    24A      0.117881    25A      0.124245  
      26A      0.127505    27A      0.132274    28A      0.135267  
      29A      0.144547    30A      0.149778    31A      0.169262  
      32A      0.174947    33A      0.184221    34A      0.194422  
      35A      0.206372    36A      0.214873    37A      0.223319  
      38A      0.236206    39A      0.245144    40A      0.255040  
      41A      0.270455    42A      0.284163    43A      0.296057  
      44A      0.304083    45A      0.309064    46A      0.319540  
      47A      0.321244    48A      0.326217    49A      0.338940  
      50A      0.341355    51A      0.347220    52A      0.351954  
      53A      0.361304    54A      0.374531    55A      0.378397  
      56A      0.382925    57A      0.386235    58A      0.400246  
      59A      0.403777    60A      0.407651    61A      0.414127  
      62A      0.430686    63A      0.442293    64A      0.447690  
      65A      0.449407    66A      0.451292    67A      0.453546  
      68A      0.460510    69A      0.464906    70A      0.468995  
      71A      0.482256    72A      0.493996    73A      0.498308  
      74A      0.518599    75A      0.529684    76A      0.533731  
      77A      0.536067    78A      0.587284    79A      0.606971  
      80A      0.614014    81A      0.621319    82A      0.633469  
      83A      0.671603    84A      0.684317    85A      0.709154  
      86A      0.720539    87A      0.756950    88A      0.774207  
      89A      0.794225    90A      0.809402    91A      0.823892  
      92A      0.830261    93A      0.835604    94A      0.843371  
      95A      0.878797    96A      0.887359    97A      0.888344  
      98A      0.889720    99A      0.900334   100A      0.910165  
     101A      0.915446   102A      0.917916   103A      0.927494  
     104A      0.933400   105A      0.941067   106A      0.944728  
     107A      0.955384   108A      0.957391   109A      0.959787  
     110A      0.967096   111A      0.975194   112A      0.993809  
     113A      0.996792   114A      0.998638   115A      1.005708  
     116A      1.025109   117A      1.029866   118A      1.045399  
     119A      1.050847   120A      1.066425   121A      1.070388  
     122A      1.074712   123A      1.079337   124A      1.082873  
     125A      1.096015   126A      1.099487   127A      1.102376  
     128A      1.115918   129A      1.120251   130A      1.127203  
     131A      1.131590   132A      1.143352   133A      1.161684  
     134A      1.170992   135A      1.178985   136A      1.190731  
     137A      1.196698   138A      1.228294   139A      1.232736  
     140A      1.269075   141A      1.272395   142A      1.278710  
     143A      1.307474   144A      1.330440   145A      1.348988  
     146A      1.357794   147A      1.384509   148A      1.419739  
     149A      1.434689   150A      1.461748   151A      1.502337  
     152A      1.532521   153A      1.581534   154A      1.596478  
     155A      1.603216   156A      1.613292   157A      1.619019  
     158A      1.623330   159A      1.626806   160A      1.633327  
     161A      1.638689   162A      1.642835   163A      1.667976  
     164A      1.687820   165A      1.734563   166A      1.745930  
     167A      1.753563   168A      1.767515   169A      1.787381  
     170A      1.794113   171A      1.815849   172A      1.823016  
     173A      1.836840   174A      1.839225   175A      1.876419  
     176A      1.887650   177A      1.896815   178A      1.921950  
     179A      1.935981   180A      1.938663   181A      1.944946  
     182A      1.956067   183A      2.017436   184A      2.049161  
     185A      2.073917   186A      2.086704   187A      2.123733  
     188A      2.127614   189A      2.135981   190A      2.151883  
     191A      2.157387   192A      2.195402   193A      2.227736  
     194A      2.252942   195A      2.265629   196A      2.295979  
     197A      2.336547   198A      2.357346   199A      2.471187  
     200A      2.583109   201A      2.632263   202A      2.654600  
     203A      2.879920   204A      2.935841   205A      3.034800  
     206A      3.056128   207A      3.235283   208A      3.241542  
     209A      3.259408   210A      3.265458   211A      3.272679  
     212A      3.283075   213A      3.309666   214A      3.321338  
     215A      3.341945   216A      3.429267   217A      3.463305  
     218A      3.482690   219A      3.494309   220A      3.500328  
     221A      3.557280   222A      3.577422   223A      3.578942  
     224A      3.582298   225A      3.587377   226A      3.604221  
     227A      3.611285   228A      3.613134   229A      3.619049  
     230A      3.637593   231A      3.711385   232A      3.734687  
     233A      3.750201   234A      3.787075   235A      3.791999  
     236A      3.862037   237A      3.864181   238A      3.882717  
     239A      3.919659   240A      3.923499   241A      3.927276  
     242A      4.000019   243A      4.031082   244A      4.059831  
     245A      4.064314   246A      4.068186   247A      4.074597  
     248A      4.091252   249A      4.094467   250A      4.104049  
     251A      4.110256   252A      4.118016   253A      4.126471  
     254A      4.159615   255A      4.167069   256A      4.241142  
     257A      4.272867   258A      4.325300   259A      4.338864  
     260A      4.386539   261A      4.398614   262A      4.518903  
     263A      4.571155   264A      4.582033   265A      4.587147  
     266A      4.589972   267A      4.598524   268A      4.618706  
     269A      4.701767   270A      4.718320   271A      4.770674  
     272A      4.797296   273A      4.818400   274A      4.833411  
     275A      4.859410   276A      4.862447   277A      4.865790  
     278A      4.869345   279A      4.872378   280A      4.923286  
     281A      4.942790   282A      4.949074   283A      4.979106  
     284A      4.987614   285A      5.066257   286A      5.196906  
     287A      5.197947   288A      5.203401   289A      5.209292  
     290A      5.265920   291A      5.276095   292A      5.294961  
     293A      5.310650   294A      5.348173   295A      5.361480  
     296A      5.508209   297A      5.585429   298A      5.596797  
     299A      5.623822   300A      5.628698   301A      5.647381  
     302A      5.651486   303A      5.657041   304A      5.830656  
     305A      5.835260   306A      5.850320   307A      6.013402  
     308A      6.104232   309A      6.243743   310A      6.249813  
     311A      6.253091   312A      6.482654   313A      6.591172  
     314A      6.623678   315A      6.631946   316A      6.666518  
     317A      6.676682   318A      6.743237   319A      6.991229  
     320A     17.072669   321A     17.417457   322A     17.907822  

    Final Occupation by Irrep:
              A 
    DOCC [    13 ]

  @DF-RHF Final Energy:  -118.27845691362666

   => Energetics <=

    Nuclear Repulsion Energy =             64.1268218711942666
    One-Electron Energy =                -284.4133279189787800
    Two-Electron Energy =                 102.0080491341578579
    Total Energy =                       -118.2784569136266555

Computation Completed


Properties will be evaluated at   0.000000,   0.000000,   0.000000 [a0]

Properties computed using the SCF density matrix

  Nuclear Dipole Moment: [e a0]
     X:    -4.9790      Y:    -0.0988      Z:    -0.2851

  Electronic Dipole Moment: [e a0]
     X:     4.9718      Y:     0.0994      Z:     0.2832

  Dipole Moment: [e a0]
     X:    -0.0073      Y:     0.0005      Z:    -0.0020     Total:     0.0075

  Dipole Moment: [D]
     X:    -0.0185      Y:     0.0014      Z:    -0.0050     Total:     0.0192


*** tstop() called on genome.bme.utexas.edu at Thu Apr 23 22:54:39 2020
Module time:
	user time   =      64.71 seconds =       1.08 minutes
	system time =       1.58 seconds =       0.03 minutes
	total time  =         10 seconds =       0.17 minutes
Total time:
	user time   =      64.71 seconds =       1.08 minutes
	system time =       1.58 seconds =       0.03 minutes
	total time  =         10 seconds =       0.17 minutes

  //>>>>>>>>>>>>>>>>>>>>>>>>>>>>>>>>>>>//
  //            Monomer A HF           //
  //<<<<<<<<<<<<<<<<<<<<<<<<<<<<<<<<<<<//


*** tstart() called on genome.bme.utexas.edu
*** at Thu Apr 23 22:54:39 2020

   => Loading Basis Set <=

    Name: AUG-CC-PVTZ
    Role: ORBITAL
    Keyword: BASIS
    atoms 1, 4, 7        entry C          line   239 file /home/liuchw/anaconda3/envs/psi4env/share/psi4/basis/aug-cc-pvtz.gbs 
    atoms 2-3, 5-6, 8-11 entry H          line    40 file /home/liuchw/anaconda3/envs/psi4env/share/psi4/basis/aug-cc-pvtz.gbs 


         ---------------------------------------------------------
                                   SCF
               by Justin Turney, Rob Parrish, Andy Simmonett
                          and Daniel G. A. Smith
                              RHF Reference
                        8 Threads,  47683 MiB Core
         ---------------------------------------------------------

  ==> Geometry <==

    Molecular point group: c1
    Full point group: C1

    Geometry (in Angstrom), charge = 0, multiplicity = 1:

       Center              X                  Y                   Z               Mass       
    ------------   -----------------  -----------------  -----------------  -----------------
         C            1.726356590383     0.699984886370     0.101598182252    12.000000000000
         H            2.607676590383     1.325144886370     0.100628182252     1.007825032230
         H            0.765806590383     1.194664886370     0.102598182252     1.007825032230
         C            1.820336590383    -0.628825113630     0.101578182252    12.000000000000
         H            0.938966590383    -1.253835113630     0.102548182252     1.007825032230
         H            2.780586590383    -1.124235113630     0.100578182252     1.007825032230
      Gh(C)          -3.100633409617    -0.062305113630    -0.177631817748    12.000000000000
      Gh(H)          -3.391203409617     0.983744886370    -0.177761817748     1.007825032230
      Gh(H)          -2.510623409617    -0.273715113630    -1.064161817748     1.007825032230
      Gh(H)          -2.511573409617    -0.273745113630     0.709528182252     1.007825032230
      Gh(H)          -3.990793409617    -0.683455113630    -0.178111817748     1.007825032230

  Running in c1 symmetry.

  Rotational constants: A =      0.84863  B =      0.06748  C =      0.06326 [cm^-1]
  Rotational constants: A =  25441.21364  B =   2022.98885  C =   1896.43516 [MHz]
  Nuclear repulsion =   33.432345192272848

  Charge       = 0
  Multiplicity = 1
  Electrons    = 16
  Nalpha       = 8
  Nbeta        = 8

  ==> Algorithm <==

  SCF Algorithm Type is DF.
  DIIS enabled.
  MOM disabled.
  Fractional occupation disabled.
  Guess Type is SAD.
  Energy threshold   = 1.00e-08
  Density threshold  = 1.00e-08
  Integral threshold = 0.00e+00

  ==> Primary Basis <==

  Basis Set: AUG-CC-PVTZ
    Blend: AUG-CC-PVTZ
    Number of shells: 114
    Number of basis function: 322
    Number of Cartesian functions: 365
    Spherical Harmonics?: true
    Max angular momentum: 3

   => Loading Basis Set <=

    Name: (AUG-CC-PVTZ AUX)
    Role: JKFIT
    Keyword: DF_BASIS_SCF
    atoms 1, 4, 7        entry C          line   162 file /home/liuchw/anaconda3/envs/psi4env/share/psi4/basis/aug-cc-pvtz-jkfit.gbs 
    atoms 2-3, 5-6, 8-11 entry H          line    70 file /home/liuchw/anaconda3/envs/psi4env/share/psi4/basis/aug-cc-pvtz-jkfit.gbs 

  ==> Pre-Iterations <==

   -------------------------------------------------------
    Irrep   Nso     Nmo     Nalpha   Nbeta   Ndocc  Nsocc
   -------------------------------------------------------
     A        322     322       0       0       0       0
   -------------------------------------------------------
    Total     322     322       8       8       8       0
   -------------------------------------------------------

  ==> Integral Setup <==

  ==> DiskDFJK: Density-Fitted J/K Matrices <==

    J tasked:                  Yes
    K tasked:                  Yes
    wK tasked:                  No
    OpenMP threads:              8
    Integrals threads:           8
    Memory [MiB]:            35762
    Algorithm:                Core
    Integral Cache:           LOAD
    Schwarz Cutoff:          1E-12
    Fitting Condition:       1E-10

   => Auxiliary Basis Set <=

  Basis Set: (AUG-CC-PVTZ AUX)
    Blend: AUG-CC-PVTZ-JKFIT
    Number of shells: 202
    Number of basis function: 680
    Number of Cartesian functions: 833
    Spherical Harmonics?: true
    Max angular momentum: 4

  Minimum eigenvalue in the overlap matrix is 3.9926083978E-06.
  Using Symmetric Orthogonalization.

  SCF Guess: Superposition of Atomic Densities via on-the-fly atomic UHF.

  ==> Iterations <==

                           Total Energy        Delta E     RMS |[F,P]|

   @DF-RHF iter SAD:   -77.27133826576244   -7.72713e+01   0.00000e+00 
   @DF-RHF iter   1:   -77.98489054308554   -7.13552e-01   1.15497e-03 DIIS
   @DF-RHF iter   2:   -78.05246625487295   -6.75757e-02   4.73156e-04 DIIS
   @DF-RHF iter   3:   -78.06417558000059   -1.17093e-02   7.14421e-05 DIIS
   @DF-RHF iter   4:   -78.06474059182281   -5.65012e-04   7.11714e-06 DIIS
   @DF-RHF iter   5:   -78.06474689024948   -6.29843e-06   8.49220e-07 DIIS
   @DF-RHF iter   6:   -78.06474699019613   -9.99466e-08   1.01953e-07 DIIS
   @DF-RHF iter   7:   -78.06474699145588   -1.25975e-09   1.70885e-08 DIIS
   @DF-RHF iter   8:   -78.06474699149503   -3.91509e-11   2.53154e-09 DIIS
  Energy and wave function converged.


  ==> Post-Iterations <==

    Orbital Energies [Eh]
    ---------------------

    Doubly Occupied:                                                      

       1A    -11.231163     2A    -11.229437     3A     -1.034925  
       4A     -0.793495     5A     -0.645237     6A     -0.587783  
       7A     -0.508748     8A     -0.377259  

    Virtual:                                                              

       9A      0.023573    10A      0.035752    11A      0.037392  
      12A      0.049288    13A      0.051101    14A      0.053865  
      15A      0.074430    16A      0.078277    17A      0.091797  
      18A      0.101184    19A      0.104132    20A      0.116295  
      21A      0.119716    22A      0.125965    23A      0.128628  
      24A      0.130244    25A      0.148564    26A      0.162451  
      27A      0.174794    28A      0.183748    29A      0.195323  
      30A      0.210384    31A      0.219588    32A      0.233202  
      33A      0.235376    34A      0.258742    35A      0.266336  
      36A      0.272702    37A      0.277028    38A      0.286680  
      39A      0.297443    40A      0.300423    41A      0.302051  
      42A      0.303585    43A      0.312528    44A      0.326820  
      45A      0.333380    46A      0.334072    47A      0.354235  
      48A      0.362799    49A      0.366342    50A      0.369142  
      51A      0.382562    52A      0.383709    53A      0.390002  
      54A      0.398103    55A      0.405803    56A      0.407181  
      57A      0.432186    58A      0.445451    59A      0.449530  
      60A      0.450527    61A      0.457507    62A      0.461511  
      63A      0.468022    64A      0.482084    65A      0.493354  
      66A      0.495505    67A      0.501384    68A      0.514674  
      69A      0.523786    70A      0.530599    71A      0.550346  
      72A      0.578288    73A      0.580882    74A      0.607890  
      75A      0.615685    76A      0.621874    77A      0.628030  
      78A      0.647262    79A      0.665329    80A      0.670208  
      81A      0.682260    82A      0.715673    83A      0.747540  
      84A      0.756796    85A      0.798633    86A      0.816990  
      87A      0.830834    88A      0.858928    89A      0.884616  
      90A      0.890772    91A      0.907596    92A      0.917876  
      93A      0.921881    94A      0.927906    95A      0.929235  
      96A      0.933402    97A      0.940486    98A      0.945940  
      99A      0.950261   100A      0.963630   101A      0.968573  
     102A      0.979311   103A      0.988979   104A      0.996026  
     105A      1.012096   106A      1.020244   107A      1.031479  
     108A      1.036082   109A      1.046115   110A      1.049877  
     111A      1.055061   112A      1.061685   113A      1.065630  
     114A      1.071106   115A      1.083470   116A      1.084227  
     117A      1.089717   118A      1.091484   119A      1.101346  
     120A      1.104362   121A      1.109634   122A      1.117671  
     123A      1.132979   124A      1.137503   125A      1.143017  
     126A      1.166648   127A      1.170704   128A      1.178910  
     129A      1.184406   130A      1.200807   131A      1.207103  
     132A      1.236394   133A      1.240351   134A      1.253194  
     135A      1.268260   136A      1.278066   137A      1.313234  
     138A      1.325557   139A      1.346644   140A      1.355424  
     141A      1.387157   142A      1.392097   143A      1.400708  
     144A      1.406852   145A      1.423009   146A      1.438272  
     147A      1.440002   148A      1.461896   149A      1.493522  
     150A      1.529898   151A      1.593381   152A      1.598366  
     153A      1.600916   154A      1.619813   155A      1.629005  
     156A      1.676071   157A      1.716789   158A      1.719216  
     159A      1.735833   160A      1.741134   161A      1.773446  
     162A      1.792542   163A      1.795660   164A      1.806621  
     165A      1.821805   166A      1.844711   167A      1.859551  
     168A      1.871012   169A      1.877810   170A      1.889244  
     171A      1.937261   172A      1.939896   173A      2.016704  
     174A      2.042185   175A      2.047255   176A      2.050464  
     177A      2.057596   178A      2.065917   179A      2.074622  
     180A      2.080125   181A      2.094793   182A      2.105635  
     183A      2.128541   184A      2.156006   185A      2.172304  
     186A      2.227978   187A      2.263652   188A      2.275704  
     189A      2.304619   190A      2.336750   191A      2.342754  
     192A      2.358042   193A      2.458043   194A      2.472682  
     195A      2.512978   196A      2.584322   197A      2.653128  
     198A      2.687995   199A      2.693043   200A      2.716670  
     201A      2.860694   202A      2.880883   203A      3.034466  
     204A      3.058940   205A      3.235492   206A      3.263489  
     207A      3.269350   208A      3.282829   209A      3.316761  
     210A      3.340641   211A      3.429962   212A      3.463133  
     213A      3.482438   214A      3.502281   215A      3.600315  
     216A      3.609144   217A      3.617247   218A      3.670868  
     219A      3.710056   220A      3.735107   221A      3.747358  
     222A      3.785860   223A      3.791827   224A      3.858002  
     225A      3.863780   226A      3.882761   227A      3.993573  
     228A      4.022038   229A      4.025978   230A      4.027560  
     231A      4.034306   232A      4.036818   233A      4.045297  
     234A      4.047354   235A      4.094153   236A      4.108694  
     237A      4.117633   238A      4.165849   239A      4.180890  
     240A      4.220653   241A      4.243770   242A      4.317901  
     243A      4.338211   244A      4.384542   245A      4.395541  
     246A      4.410075   247A      4.418844   248A      4.425221  
     249A      4.458499   250A      4.462034   251A      4.498229  
     252A      4.517376   253A      4.523703   254A      4.572217  
     255A      4.575997   256A      4.597814   257A      4.615408  
     258A      4.633699   259A      4.644350   260A      4.648970  
     261A      4.705323   262A      4.721476   263A      4.811199  
     264A      4.869663   265A      4.921102   266A      4.942394  
     267A      4.948716   268A      4.969836   269A      4.978838  
     270A      4.981874   271A      5.001027   272A      5.008988  
     273A      5.066003   274A      5.192917   275A      5.195127  
     276A      5.195492   277A      5.207801   278A      5.265737  
     279A      5.275864   280A      5.294651   281A      5.310715  
     282A      5.358223   283A      5.369111   284A      5.375131  
     285A      5.394553   286A      5.424451   287A      5.459852  
     288A      5.507946   289A      5.519468   290A      5.531753  
     291A      5.536145   292A      5.585337   293A      5.596370  
     294A      5.613022   295A      5.624233   296A      5.630279  
     297A      6.013125   298A      6.103923   299A      6.202697  
     300A      6.206450   301A      6.213323   302A      6.393872  
     303A      6.395542   304A      6.482727   305A      6.592625  
     306A      6.673122   307A      6.742744   308A      6.789742  
     309A      6.799077   310A      6.808194   311A      6.990919  
     312A      7.051219   313A      7.784297   314A      7.788396  
     315A      7.811439   316A      8.134393   317A      8.158941  
     318A      8.172106   319A     10.472337   320A     17.078796  
     321A     17.417495   322A     53.131499  

    Final Occupation by Irrep:
              A 
    DOCC [     8 ]

  @DF-RHF Final Energy:   -78.06474699149503

   => Energetics <=

    Nuclear Repulsion Energy =             33.4323451922728481
    One-Electron Energy =                -170.1780901043645144
    Two-Electron Energy =                  58.6809979205966243
    Total Energy =                        -78.0647469914950278

Computation Completed


Properties will be evaluated at   0.000000,   0.000000,   0.000000 [a0]

Properties computed using the SCF density matrix

  Nuclear Dipole Moment: [e a0]
     X:    53.6176      Y:     1.0747      Z:     3.0716

  Electronic Dipole Moment: [e a0]
     X:   -53.6175      Y:    -1.0747      Z:    -3.0716

  Dipole Moment: [e a0]
     X:     0.0001      Y:    -0.0001      Z:    -0.0000     Total:     0.0001

  Dipole Moment: [D]
     X:     0.0003      Y:    -0.0001      Z:    -0.0001     Total:     0.0003


*** tstop() called on genome.bme.utexas.edu at Thu Apr 23 22:54:44 2020
Module time:
	user time   =      35.87 seconds =       0.60 minutes
	system time =       1.03 seconds =       0.02 minutes
	total time  =          5 seconds =       0.08 minutes
Total time:
	user time   =     100.65 seconds =       1.68 minutes
	system time =       2.62 seconds =       0.04 minutes
	total time  =         15 seconds =       0.25 minutes

  //>>>>>>>>>>>>>>>>>>>>>>>>>>>>>>>>>>>//
  //            Monomer B HF           //
  //<<<<<<<<<<<<<<<<<<<<<<<<<<<<<<<<<<<//


*** tstart() called on genome.bme.utexas.edu
*** at Thu Apr 23 22:54:44 2020

   => Loading Basis Set <=

    Name: AUG-CC-PVTZ
    Role: ORBITAL
    Keyword: BASIS
    atoms 1, 4, 7        entry C          line   239 file /home/liuchw/anaconda3/envs/psi4env/share/psi4/basis/aug-cc-pvtz.gbs 
    atoms 2-3, 5-6, 8-11 entry H          line    40 file /home/liuchw/anaconda3/envs/psi4env/share/psi4/basis/aug-cc-pvtz.gbs 


         ---------------------------------------------------------
                                   SCF
               by Justin Turney, Rob Parrish, Andy Simmonett
                          and Daniel G. A. Smith
                              RHF Reference
                        8 Threads,  47683 MiB Core
         ---------------------------------------------------------

  ==> Geometry <==

    Molecular point group: c1
    Full point group: C1

    Geometry (in Angstrom), charge = 0, multiplicity = 1:

       Center              X                  Y                   Z               Mass       
    ------------   -----------------  -----------------  -----------------  -----------------
      Gh(C)           1.726356590383     0.699984886370     0.101598182252    12.000000000000
      Gh(H)           2.607676590383     1.325144886370     0.100628182252     1.007825032230
      Gh(H)           0.765806590383     1.194664886370     0.102598182252     1.007825032230
      Gh(C)           1.820336590383    -0.628825113630     0.101578182252    12.000000000000
      Gh(H)           0.938966590383    -1.253835113630     0.102548182252     1.007825032230
      Gh(H)           2.780586590383    -1.124235113630     0.100578182252     1.007825032230
         C           -3.100633409617    -0.062305113630    -0.177631817748    12.000000000000
         H           -3.391203409617     0.983744886370    -0.177761817748     1.007825032230
         H           -2.510623409617    -0.273715113630    -1.064161817748     1.007825032230
         H           -2.511573409617    -0.273745113630     0.709528182252     1.007825032230
         H           -3.990793409617    -0.683455113630    -0.178111817748     1.007825032230

  Running in c1 symmetry.

  Rotational constants: A =      0.84863  B =      0.06748  C =      0.06326 [cm^-1]
  Rotational constants: A =  25441.21364  B =   2022.98885  C =   1896.43516 [MHz]
  Nuclear repulsion =   13.489490579373436

  Charge       = 0
  Multiplicity = 1
  Electrons    = 10
  Nalpha       = 5
  Nbeta        = 5

  ==> Algorithm <==

  SCF Algorithm Type is DF.
  DIIS enabled.
  MOM disabled.
  Fractional occupation disabled.
  Guess Type is SAD.
  Energy threshold   = 1.00e-08
  Density threshold  = 1.00e-08
  Integral threshold = 0.00e+00

  ==> Primary Basis <==

  Basis Set: AUG-CC-PVTZ
    Blend: AUG-CC-PVTZ
    Number of shells: 114
    Number of basis function: 322
    Number of Cartesian functions: 365
    Spherical Harmonics?: true
    Max angular momentum: 3

   => Loading Basis Set <=

    Name: (AUG-CC-PVTZ AUX)
    Role: JKFIT
    Keyword: DF_BASIS_SCF
    atoms 1, 4, 7        entry C          line   162 file /home/liuchw/anaconda3/envs/psi4env/share/psi4/basis/aug-cc-pvtz-jkfit.gbs 
    atoms 2-3, 5-6, 8-11 entry H          line    70 file /home/liuchw/anaconda3/envs/psi4env/share/psi4/basis/aug-cc-pvtz-jkfit.gbs 

  ==> Pre-Iterations <==

   -------------------------------------------------------
    Irrep   Nso     Nmo     Nalpha   Nbeta   Ndocc  Nsocc
   -------------------------------------------------------
     A        322     322       0       0       0       0
   -------------------------------------------------------
    Total     322     322       5       5       5       0
   -------------------------------------------------------

  ==> Integral Setup <==

  ==> DiskDFJK: Density-Fitted J/K Matrices <==

    J tasked:                  Yes
    K tasked:                  Yes
    wK tasked:                  No
    OpenMP threads:              8
    Integrals threads:           8
    Memory [MiB]:            35762
    Algorithm:                Core
    Integral Cache:           LOAD
    Schwarz Cutoff:          1E-12
    Fitting Condition:       1E-10

   => Auxiliary Basis Set <=

  Basis Set: (AUG-CC-PVTZ AUX)
    Blend: AUG-CC-PVTZ-JKFIT
    Number of shells: 202
    Number of basis function: 680
    Number of Cartesian functions: 833
    Spherical Harmonics?: true
    Max angular momentum: 4

  Minimum eigenvalue in the overlap matrix is 3.9926083978E-06.
  Using Symmetric Orthogonalization.

  SCF Guess: Superposition of Atomic Densities via on-the-fly atomic UHF.

  ==> Iterations <==

                           Total Energy        Delta E     RMS |[F,P]|

   @DF-RHF iter SAD:   -39.63360164181169   -3.96336e+01   0.00000e+00 
   @DF-RHF iter   1:   -40.13699654250006   -5.03395e-01   1.14725e-03 DIIS
   @DF-RHF iter   2:   -40.20137800793135   -6.43815e-02   4.77915e-04 DIIS
   @DF-RHF iter   3:   -40.21291913085682   -1.15411e-02   7.35697e-05 DIIS
   @DF-RHF iter   4:   -40.21366658683383   -7.47456e-04   9.00450e-06 DIIS
   @DF-RHF iter   5:   -40.21367708297657   -1.04961e-05   8.07775e-07 DIIS
   @DF-RHF iter   6:   -40.21367717634516   -9.33686e-08   7.09716e-08 DIIS
   @DF-RHF iter   7:   -40.21367717693676   -5.91605e-10   6.35598e-09 DIIS
  Energy and wave function converged.


  ==> Post-Iterations <==

    Orbital Energies [Eh]
    ---------------------

    Doubly Occupied:                                                      

       1A    -11.205127     2A     -0.944163     3A     -0.545736  
       4A     -0.545708     5A     -0.545435  

    Virtual:                                                              

       6A      0.022082     7A      0.035448     8A      0.037291  
       9A      0.049583    10A      0.052030    11A      0.054066  
      12A      0.073881    13A      0.077493    14A      0.087769  
      15A      0.096938    16A      0.105227    17A      0.117235  
      18A      0.120261    19A      0.127265    20A      0.128497  
      21A      0.133622    22A      0.145966    23A      0.157304  
      24A      0.175752    25A      0.182959    26A      0.211924  
      27A      0.224352    28A      0.230670    29A      0.235212  
      30A      0.246445    31A      0.256062    32A      0.279019  
      33A      0.282024    34A      0.285012    35A      0.289850  
      36A      0.300124    37A      0.304919    38A      0.317687  
      39A      0.319350    40A      0.326025    41A      0.332515  
      42A      0.337055    43A      0.339633    44A      0.340156  
      45A      0.351660    46A      0.362310    47A      0.366522  
      48A      0.368324    49A      0.382692    50A      0.396994  
      51A      0.406684    52A      0.407105    53A      0.409486  
      54A      0.411548    55A      0.428200    56A      0.429464  
      57A      0.447295    58A      0.461443    59A      0.468846  
      60A      0.472148    61A      0.481287    62A      0.487771  
      63A      0.515357    64A      0.517066    65A      0.525401  
      66A      0.527867    67A      0.538737    68A      0.554593  
      69A      0.568881    70A      0.603549    71A      0.610030  
      72A      0.619827    73A      0.634174    74A      0.639846  
      75A      0.650205    76A      0.667672    77A      0.688745  
      78A      0.698637    79A      0.713485    80A      0.737669  
      81A      0.779649    82A      0.788751    83A      0.815623  
      84A      0.830530    85A      0.835413    86A      0.856568  
      87A      0.890497    88A      0.898698    89A      0.913765  
      90A      0.919005    91A      0.935436    92A      0.944935  
      93A      0.962401    94A      0.967290    95A      0.970913  
      96A      0.979095    97A      0.988098    98A      0.993487  
      99A      0.997319   100A      0.998642   101A      1.006800  
     102A      1.014402   103A      1.016069   104A      1.019762  
     105A      1.043915   106A      1.056705   107A      1.066643  
     108A      1.077396   109A      1.080976   110A      1.084818  
     111A      1.093426   112A      1.100496   113A      1.105712  
     114A      1.109755   115A      1.116766   116A      1.124128  
     117A      1.133927   118A      1.140905   119A      1.144358  
     120A      1.171688   121A      1.175690   122A      1.184094  
     123A      1.201102   124A      1.202299   125A      1.211108  
     126A      1.223807   127A      1.231296   128A      1.233552  
     129A      1.245454   130A      1.254937   131A      1.276873  
     132A      1.285499   133A      1.310546   134A      1.311787  
     135A      1.339072   136A      1.351365   137A      1.367644  
     138A      1.391314   139A      1.401506   140A      1.416537  
     141A      1.449018   142A      1.468085   143A      1.491574  
     144A      1.531949   145A      1.539295   146A      1.548206  
     147A      1.560335   148A      1.571570   149A      1.581508  
     150A      1.599515   151A      1.621687   152A      1.625334  
     153A      1.638498   154A      1.642372   155A      1.673170  
     156A      1.686666   157A      1.725947   158A      1.746012  
     159A      1.755777   160A      1.762257   161A      1.779856  
     162A      1.814946   163A      1.837208   164A      1.864621  
     165A      1.881369   166A      1.888923   167A      1.897852  
     168A      1.929751   169A      1.945435   170A      1.952338  
     171A      1.959140   172A      2.029997   173A      2.070739  
     174A      2.113524   175A      2.124475   176A      2.148516  
     177A      2.155525   178A      2.160423   179A      2.161434  
     180A      2.178894   181A      2.211485   182A      2.220818  
     183A      2.255329   184A      2.284375   185A      2.289062  
     186A      2.292614   187A      2.297165   188A      2.318546  
     189A      2.327762   190A      2.358328   191A      2.486515  
     192A      2.495814   193A      2.594147   194A      2.634054  
     195A      2.705050   196A      2.712013   197A      2.758220  
     198A      2.862158   199A      2.941279   200A      3.243921  
     201A      3.245350   202A      3.264877   203A      3.271910  
     204A      3.300943   205A      3.493530   206A      3.561228  
     207A      3.580075   208A      3.581521   209A      3.586963  
     210A      3.588539   211A      3.607688   212A      3.638949  
     213A      3.764416   214A      3.820432   215A      3.890494  
     216A      3.920943   217A      3.924375   218A      3.927410  
     219A      3.958305   220A      4.032660   221A      4.034519  
     222A      4.039665   223A      4.054941   224A      4.059519  
     225A      4.064567   226A      4.068115   227A      4.071517  
     228A      4.076273   229A      4.095256   230A      4.096941  
     231A      4.123375   232A      4.146717   233A      4.157451  
     234A      4.162145   235A      4.171157   236A      4.237898  
     237A      4.246312   238A      4.262582   239A      4.278618  
     240A      4.333036   241A      4.336045   242A      4.417772  
     243A      4.481294   244A      4.534407   245A      4.548848  
     246A      4.573985   247A      4.583729   248A      4.593944  
     249A      4.608533   250A      4.661528   251A      4.725957  
     252A      4.771334   253A      4.796977   254A      4.816181  
     255A      4.831209   256A      4.854453   257A      4.860882  
     258A      4.863406   259A      4.867185   260A      4.873024  
     261A      4.886515   262A      4.909727   263A      4.923755  
     264A      4.928401   265A      4.983368   266A      4.988290  
     267A      5.039115   268A      5.096591   269A      5.131086  
     270A      5.198968   271A      5.201901   272A      5.204347  
     273A      5.345493   274A      5.365631   275A      5.391424  
     276A      5.425572   277A      5.451578   278A      5.484455  
     279A      5.527231   280A      5.547763   281A      5.587516  
     282A      5.647812   283A      5.649137   284A      5.656417  
     285A      5.658148   286A      5.682669   287A      5.729781  
     288A      5.820911   289A      5.831897   290A      5.836273  
     291A      5.846852   292A      5.852326   293A      5.913264  
     294A      5.993964   295A      6.070029   296A      6.084889  
     297A      6.212701   298A      6.237944   299A      6.245264  
     300A      6.251545   301A      6.254351   302A      6.486001  
     303A      6.588940   304A      6.625241   305A      6.631164  
     306A      6.669023   307A      6.964841   308A      7.079890  
     309A      7.139006   310A      7.557995   311A      7.591264  
     312A      7.684227   313A      7.867016   314A      8.047555  
     315A      8.310107   316A      8.383147   317A      8.865049  
     318A     10.582089   319A     10.868572   320A     17.902774  
     321A     50.530632   322A     52.038606  

    Final Occupation by Irrep:
              A 
    DOCC [     5 ]

  @DF-RHF Final Energy:   -40.21367717693676

   => Energetics <=

    Nuclear Repulsion Energy =             13.4894905793734363
    One-Electron Energy =                 -79.8340020969429816
    Two-Electron Energy =                  26.1308343406327808
    Total Energy =                        -40.2136771769367627

Computation Completed


Properties will be evaluated at   0.000000,   0.000000,   0.000000 [a0]

Properties computed using the SCF density matrix

  Nuclear Dipole Moment: [e a0]
     X:   -58.5966      Y:    -1.1735      Z:    -3.3567

  Electronic Dipole Moment: [e a0]
     X:    58.5963      Y:     1.1737      Z:     3.3567

  Dipole Moment: [e a0]
     X:    -0.0003      Y:     0.0002      Z:     0.0000     Total:     0.0004

  Dipole Moment: [D]
     X:    -0.0008      Y:     0.0005      Z:     0.0000     Total:     0.0009


*** tstop() called on genome.bme.utexas.edu at Thu Apr 23 22:54:50 2020
Module time:
	user time   =      31.65 seconds =       0.53 minutes
	system time =       0.94 seconds =       0.02 minutes
	total time  =          6 seconds =       0.10 minutes
Total time:
	user time   =     132.37 seconds =       2.21 minutes
	system time =       3.56 seconds =       0.06 minutes
	total time  =         21 seconds =       0.35 minutes
  Constructing Basis Sets for SAPT...

   => Loading Basis Set <=

    Name: (AUG-CC-PVTZ AUX)
    Role: RIFIT
    Keyword: DF_BASIS_SAPT
    atoms 1, 4, 7        entry C          line   148 file /home/liuchw/anaconda3/envs/psi4env/share/psi4/basis/aug-cc-pvtz-ri.gbs 
    atoms 2-3, 5-6, 8-11 entry H          line    30 file /home/liuchw/anaconda3/envs/psi4env/share/psi4/basis/aug-cc-pvtz-ri.gbs 


  //>>>>>>>>>>>>>>>>>>>>>>>>>>>>>>>>>>>//
  //               SAPT2+              //
  //<<<<<<<<<<<<<<<<<<<<<<<<<<<<<<<<<<<//


*** tstart() called on genome.bme.utexas.edu
*** at Thu Apr 23 22:54:50 2020

        SAPT2+  
    Ed Hohenstein
     6 June 2009

      Orbital Information
  --------------------------
    NSO        =       322
    NMO        =       322
    NRI        =       686
    NOCC A     =         8
    NOCC B     =         5
    FOCC A     =         2
    FOCC B     =         1
    NVIR A     =       314
    NVIR B     =       317

    Estimated memory usage: 705.8 MB

    Natural Orbital Cutoff:   1.000E-06
    Disp(T3) Truncation:            Yes
    CCD (vv|vv) Truncation:         Yes
    MBPT T2 Truncation:             Yes

    Monomer A: 161 virtual orbitals dropped
    Monomer B: 204 virtual orbitals dropped

    Elst10,r            =    -0.000066733191 [Eh]
    Exch10 (S^2)        =     0.000038626692 [Eh]
    Exch10              =     0.000038627720 [Eh]
    Ind20,r (A<-B)      =    -0.000001202777 [Eh]
    Ind20,r (B<-A)      =    -0.000003884547 [Eh]
    Ind20,r             =    -0.000005087324 [Eh]
    Exch-Ind20,r (A<-B) =     0.000000830561 [Eh]
    Exch-Ind20,r (B<-A) =     0.000001780404 [Eh]
    Exch-Ind20,r        =     0.000002610966 [Eh]
    Disp20              =    -0.000440339647 [Eh]
    Disp20 (NO)         =    -0.000411892196 [Eh]
    Exch-Disp20         =     0.000005947425 [Eh]
    Elst12,r            =    -0.000001920682 [Eh]
    Exch11              =     0.000000574088 [Eh]
    Exch12              =     0.000004886343 [Eh]
    Ind22               =    -0.000000516700 [Eh]
    Disp21              =     0.000010821441 [Eh]
    Disp22 (SDQ)        =     0.000037518890 [Eh]

    (i =   1 of   4)          7 seconds
    (i =   2 of   4)         14 seconds
    (i =   3 of   4)         22 seconds
    (i =   4 of   4)         28 seconds

    Disp220 (T)         =    -0.000032126929 [Eh]

    (i =   1 of   6)          3 seconds
    (i =   2 of   6)          6 seconds
    (i =   3 of   6)          9 seconds
    (i =   4 of   6)         12 seconds
    (i =   5 of   6)         15 seconds
    (i =   6 of   6)         18 seconds

    Disp202 (T)         =    -0.000027951613 [Eh]

    Disp22 (T)          =    -0.000060078543 [Eh]

    Est. Disp220 (T)    =    -0.000034345785 [Eh]
    Est. Disp202 (T)    =    -0.000029882100 [Eh]

    Est. Disp22 (T)     =    -0.000064227884 [Eh]

    SAPT Results 
  --------------------------------------------------------------------------------------------------------
    Electrostatics                 -0.06865387 [mEh]      -0.04308096 [kcal/mol]      -0.18025072 [kJ/mol]
      Elst10,r                     -0.06673319 [mEh]      -0.04187571 [kcal/mol]      -0.17520797 [kJ/mol]
      Elst12,r                     -0.00192068 [mEh]      -0.00120525 [kcal/mol]      -0.00504275 [kJ/mol]

    Exchange                        0.04408815 [mEh]       0.02766573 [kcal/mol]       0.11575342 [kJ/mol]
      Exch10                        0.03862772 [mEh]       0.02423926 [kcal/mol]       0.10141706 [kJ/mol]
      Exch10(S^2)                   0.03862669 [mEh]       0.02423861 [kcal/mol]       0.10141436 [kJ/mol]
      Exch11(S^2)                   0.00057409 [mEh]       0.00036025 [kcal/mol]       0.00150727 [kJ/mol]
      Exch12(S^2)                   0.00488634 [mEh]       0.00306623 [kcal/mol]       0.01282909 [kJ/mol]

    Induction                      -0.00489124 [mEh]      -0.00306930 [kcal/mol]      -0.01284194 [kJ/mol]
      Ind20,r                      -0.00508732 [mEh]      -0.00319234 [kcal/mol]      -0.01335677 [kJ/mol]
      Ind22                        -0.00051670 [mEh]      -0.00032423 [kcal/mol]      -0.00135660 [kJ/mol]
      Exch-Ind20,r                  0.00261097 [mEh]       0.00163841 [kcal/mol]       0.00685509 [kJ/mol]
      Exch-Ind22                    0.00026519 [mEh]       0.00016641 [kcal/mol]       0.00069625 [kJ/mol]
      delta HF,r (2)               -0.00216337 [mEh]      -0.00135753 [kcal/mol]      -0.00567991 [kJ/mol]

    Dispersion                     -0.45027978 [mEh]      -0.28255482 [kcal/mol]      -1.18220939 [kJ/mol]
      Disp20                       -0.44033965 [mEh]      -0.27631730 [kcal/mol]      -1.15611158 [kJ/mol]
      Disp21                        0.01082144 [mEh]       0.00679056 [kcal/mol]       0.02841169 [kJ/mol]
      Disp22 (SDQ)                  0.03751889 [mEh]       0.02354346 [kcal/mol]       0.09850583 [kJ/mol]
      Disp22 (T)                   -0.06007854 [mEh]      -0.03769985 [kcal/mol]      -0.15773619 [kJ/mol]
      Est. Disp22 (T)              -0.06422788 [mEh]      -0.04030361 [kcal/mol]      -0.16863029 [kJ/mol]
      Exch-Disp20                   0.00594742 [mEh]       0.00373207 [kcal/mol]       0.01561496 [kJ/mol]

  Total HF                         -0.03274519 [mEh]      -0.02054792 [kcal/mol]      -0.08597250 [kJ/mol]
  Total SAPT0                      -0.46713742 [mEh]      -0.29313315 [kcal/mol]      -1.22646912 [kJ/mol]
  Total SAPT2                      -0.46384918 [mEh]      -0.29106976 [kcal/mol]      -1.21783586 [kJ/mol]
  Total SAPT2+                     -0.47973674 [mEh]      -0.30103935 [kcal/mol]      -1.25954863 [kJ/mol]

  Special recipe for scaled SAPT0 (see Manual):
    Electrostatics sSAPT0          -0.06673319 [mEh]      -0.04187571 [kcal/mol]      -0.17520797 [kJ/mol]
    Exchange sSAPT0                 0.03862772 [mEh]       0.02423926 [kcal/mol]       0.10141706 [kJ/mol]
    Induction sSAPT0               -0.00463951 [mEh]      -0.00291134 [kcal/mol]      -0.01218104 [kJ/mol]
    Dispersion sSAPT0              -0.43439175 [mEh]      -0.27258494 [kcal/mol]      -1.14049538 [kJ/mol]
  Total sSAPT0                     -0.46713673 [mEh]      -0.29313273 [kcal/mol]      -1.22646733 [kJ/mol]
  --------------------------------------------------------------------------------------------------------

*** tstop() called on genome.bme.utexas.edu at Thu Apr 23 22:57:00 2020
Module time:
	user time   =     908.56 seconds =      15.14 minutes
	system time =      36.93 seconds =       0.62 minutes
	total time  =        130 seconds =       2.17 minutes
Total time:
	user time   =    1042.13 seconds =      17.37 minutes
	system time =      40.54 seconds =       0.68 minutes
	total time  =        151 seconds =       2.52 minutes

    Psi4 stopped on: Thursday, 23 April 2020 10:57PM
    Psi4 wall time for execution: 0:02:31.62

*** Psi4 exiting successfully. Buy a developer a beer!
