
    -----------------------------------------------------------------------
          Psi4: An Open-Source Ab Initio Electronic Structure Package
                               Psi4 1.4a2.dev224 

                         Git: Rev {master} e453b16 


    R. M. Parrish, L. A. Burns, D. G. A. Smith, A. C. Simmonett,
    A. E. DePrince III, E. G. Hohenstein, U. Bozkaya, A. Yu. Sokolov,
    R. Di Remigio, R. M. Richard, J. F. Gonthier, A. M. James,
    H. R. McAlexander, A. Kumar, M. Saitow, X. Wang, B. P. Pritchard,
    P. Verma, H. F. Schaefer III, K. Patkowski, R. A. King, E. F. Valeev,
    F. A. Evangelista, J. M. Turney, T. D. Crawford, and C. D. Sherrill,
    J. Chem. Theory Comput. 13(7) pp 3185--3197 (2017).
    (doi: 10.1021/acs.jctc.7b00174)


                         Additional Contributions by
    P. Kraus, H. Kruse, M. H. Lechner, M. C. Schieber, R. A. Shaw,
    A. Alenaizan, R. Galvelis, Z. L. Glick, S. Lehtola, and J. P. Misiewicz

    -----------------------------------------------------------------------


    Psi4 started on: Thursday, 23 April 2020 10:49PM

    Process ID: 122530
    Host:       node62.bme.utexas.edu
    PSIDATADIR: /home/liuchw/anaconda3/envs/psi4env/share/psi4
    Memory:     500.0 MiB
    Threads:    8
    
  ==> Input File <==

--------------------------------------------------------------------------
#Generated by lconvert.py for sapt job

memory 50 GB

molecule  {
0 1
  C       1.433270    0.673520    0.000070
  H       2.314590    1.298680   -0.000900
  H       0.472720    1.168200    0.001070
  C       1.527250   -0.655290    0.000050
  H       0.645880   -1.280300    0.001020
  H       2.487500   -1.150700   -0.000950
--
0 1
  C      -4.399960   -0.161410   -0.552980
  H      -4.690530    0.884640   -0.553110
  H      -3.809960   -0.372820   -1.439510
  H      -3.810910   -0.372850    0.334180
  H      -5.290130   -0.782570   -0.553460
units angstrom
no_reorient
symmetry c1
}

set {
scf_type DF
basis aug-cc-pvtz
freeze_core True
guess SAD
}
energy('sapt2+')
--------------------------------------------------------------------------

  Memory set to  46.566 GiB by Python driver.

Scratch directory: /scratch/liuchw/

  //>>>>>>>>>>>>>>>>>>>>>>>>>>>>>>>>>>>//
  //              Dimer HF             //
  //<<<<<<<<<<<<<<<<<<<<<<<<<<<<<<<<<<<//


*** tstart() called on node62.bme.utexas.edu
*** at Thu Apr 23 22:49:03 2020

   => Loading Basis Set <=

    Name: AUG-CC-PVTZ
    Role: ORBITAL
    Keyword: BASIS
    atoms 1, 4, 7        entry C          line   239 file /home/liuchw/anaconda3/envs/psi4env/share/psi4/basis/aug-cc-pvtz.gbs 
    atoms 2-3, 5-6, 8-11 entry H          line    40 file /home/liuchw/anaconda3/envs/psi4env/share/psi4/basis/aug-cc-pvtz.gbs 


         ---------------------------------------------------------
                                   SCF
               by Justin Turney, Rob Parrish, Andy Simmonett
                          and Daniel G. A. Smith
                              RHF Reference
                        8 Threads,  47683 MiB Core
         ---------------------------------------------------------

  ==> Geometry <==

    Molecular point group: c1
    Full point group: C1

    Geometry (in Angstrom), charge = 0, multiplicity = 1:

       Center              X                  Y                   Z               Mass       
    ------------   -----------------  -----------------  -----------------  -----------------
         C            2.092457673435     0.726413733346     0.201222139432    12.000000000000
         H            2.973777673435     1.351573733346     0.200252139432     1.007825032230
         H            1.131907673435     1.221093733346     0.202222139432     1.007825032230
         C            2.186437673435    -0.602396266654     0.201202139432    12.000000000000
         H            1.305067673435    -1.227406266654     0.202172139432     1.007825032230
         H            3.146687673435    -1.097806266654     0.200202139432     1.007825032230
         C           -3.740772326565    -0.108516266654    -0.351827860568    12.000000000000
         H           -4.031342326565     0.937533733346    -0.351957860568     1.007825032230
         H           -3.150772326565    -0.319926266654    -1.238357860568     1.007825032230
         H           -3.151722326565    -0.319956266654     0.535332139432     1.007825032230
         H           -4.630942326565    -0.729676266654    -0.352307860568     1.007825032230

  Running in c1 symmetry.

  Rotational constants: A =      0.84730  B =      0.04648  C =      0.04444 [cm^-1]
  Rotational constants: A =  25401.47624  B =   1393.40586  C =   1332.19780 [MHz]
  Nuclear repulsion =   61.179246492146760

  Charge       = 0
  Multiplicity = 1
  Electrons    = 26
  Nalpha       = 13
  Nbeta        = 13

  ==> Algorithm <==

  SCF Algorithm Type is DF.
  DIIS enabled.
  MOM disabled.
  Fractional occupation disabled.
  Guess Type is SAD.
  Energy threshold   = 1.00e-08
  Density threshold  = 1.00e-08
  Integral threshold = 0.00e+00

  ==> Primary Basis <==

  Basis Set: AUG-CC-PVTZ
    Blend: AUG-CC-PVTZ
    Number of shells: 114
    Number of basis function: 322
    Number of Cartesian functions: 365
    Spherical Harmonics?: true
    Max angular momentum: 3

   => Loading Basis Set <=

    Name: (AUG-CC-PVTZ AUX)
    Role: JKFIT
    Keyword: DF_BASIS_SCF
    atoms 1, 4, 7        entry C          line   162 file /home/liuchw/anaconda3/envs/psi4env/share/psi4/basis/aug-cc-pvtz-jkfit.gbs 
    atoms 2-3, 5-6, 8-11 entry H          line    70 file /home/liuchw/anaconda3/envs/psi4env/share/psi4/basis/aug-cc-pvtz-jkfit.gbs 

  ==> Pre-Iterations <==

   -------------------------------------------------------
    Irrep   Nso     Nmo     Nalpha   Nbeta   Ndocc  Nsocc
   -------------------------------------------------------
     A        322     322       0       0       0       0
   -------------------------------------------------------
    Total     322     322      13      13      13       0
   -------------------------------------------------------

  ==> Integral Setup <==

  ==> DiskDFJK: Density-Fitted J/K Matrices <==

    J tasked:                  Yes
    K tasked:                  Yes
    wK tasked:                  No
    OpenMP threads:              8
    Integrals threads:           8
    Memory [MiB]:            35762
    Algorithm:                Core
    Integral Cache:           SAVE
    Schwarz Cutoff:          1E-12
    Fitting Condition:       1E-10

   => Auxiliary Basis Set <=

  Basis Set: (AUG-CC-PVTZ AUX)
    Blend: AUG-CC-PVTZ-JKFIT
    Number of shells: 202
    Number of basis function: 680
    Number of Cartesian functions: 833
    Spherical Harmonics?: true
    Max angular momentum: 4

  Minimum eigenvalue in the overlap matrix is 4.5137235969E-06.
  Using Symmetric Orthogonalization.

  SCF Guess: Superposition of Atomic Densities via on-the-fly atomic UHF.

  ==> Iterations <==

                           Total Energy        Delta E     RMS |[F,P]|

   @DF-RHF iter SAD:  -116.90639003160953   -1.16906e+02   0.00000e+00 
   @DF-RHF iter   1:  -118.12195306827401   -1.21556e+00   1.62744e-03 DIIS
   @DF-RHF iter   2:  -118.25387500808132   -1.31922e-01   6.72089e-04 DIIS
   @DF-RHF iter   3:  -118.27710279467637   -2.32278e-02   1.02298e-04 DIIS
   @DF-RHF iter   4:  -118.27841001115139   -1.30722e-03   1.22169e-05 DIIS
   @DF-RHF iter   5:  -118.27842875181702   -1.87407e-05   2.84030e-06 DIIS
   @DF-RHF iter   6:  -118.27842933754248   -5.85725e-07   5.23346e-07 DIIS
   @DF-RHF iter   7:  -118.27842937059492   -3.30524e-08   6.04256e-08 DIIS
   @DF-RHF iter   8:  -118.27842937104877   -4.53852e-10   1.25490e-08 DIIS
   @DF-RHF iter   9:  -118.27842937106260   -1.38272e-11   5.65437e-09 DIIS
  Energy and wave function converged.


  ==> Post-Iterations <==

    Orbital Energies [Eh]
    ---------------------

    Doubly Occupied:                                                      

       1A    -11.231060     2A    -11.229335     3A    -11.205893  
       4A     -1.034824     5A     -0.944953     6A     -0.793393  
       7A     -0.645130     8A     -0.587682     9A     -0.546554  
      10A     -0.546475    11A     -0.546203    12A     -0.508639  
      13A     -0.377163  

    Virtual:                                                              

      14A      0.028880    15A      0.036806    16A      0.038632  
      17A      0.050080    18A      0.050886    19A      0.052820  
      20A      0.071200    21A      0.077491    22A      0.091928  
      23A      0.101462    24A      0.111623    25A      0.121063  
      26A      0.125526    27A      0.129477    28A      0.132611  
      29A      0.144008    30A      0.148318    31A      0.165755  
      32A      0.174767    33A      0.179957    34A      0.190848  
      35A      0.203678    36A      0.217243    37A      0.224170  
      38A      0.233775    39A      0.239389    40A      0.245675  
      41A      0.250385    42A      0.270876    43A      0.280755  
      44A      0.290985    45A      0.298674    46A      0.309902  
      47A      0.314482    48A      0.325585    49A      0.333969  
      50A      0.336474    51A      0.339902    52A      0.350668  
      53A      0.354123    54A      0.359150    55A      0.367500  
      56A      0.368233    57A      0.382720    58A      0.387140  
      59A      0.393130    60A      0.401980    61A      0.403914  
      62A      0.414516    63A      0.419132    64A      0.421945  
      65A      0.430109    66A      0.443007    67A      0.447279  
      68A      0.453882    69A      0.456636    70A      0.458561  
      71A      0.464451    72A      0.468379    73A      0.473908  
      74A      0.498364    75A      0.512414    76A      0.514851  
      77A      0.524395    78A      0.559871    79A      0.575322  
      80A      0.601141    81A      0.615370    82A      0.620244  
      83A      0.663523    84A      0.679387    85A      0.685792  
      86A      0.704715    87A      0.725805    88A      0.756815  
      89A      0.793070    90A      0.799362    91A      0.810244  
      92A      0.824738    93A      0.830630    94A      0.834201  
      95A      0.842641    96A      0.867769    97A      0.883473  
      98A      0.892860    99A      0.895076   100A      0.905178  
     101A      0.908162   102A      0.917618   103A      0.923566  
     104A      0.927756   105A      0.936160   106A      0.938938  
     107A      0.947725   108A      0.951041   109A      0.958282  
     110A      0.966260   111A      0.971118   112A      0.974362  
     113A      0.979934   114A      0.981087   115A      0.989873  
     116A      1.009766   117A      1.022974   118A      1.026766  
     119A      1.053051   120A      1.063371   121A      1.070232  
     122A      1.072564   123A      1.075544   124A      1.080133  
     125A      1.085450   126A      1.088430   127A      1.090270  
     128A      1.102624   129A      1.103820   130A      1.110141  
     131A      1.117433   132A      1.124653   133A      1.138465  
     134A      1.141128   135A      1.152732   136A      1.160663  
     137A      1.184592   138A      1.213063   139A      1.218108  
     140A      1.228369   141A      1.243613   142A      1.269814  
     143A      1.273291   144A      1.278121   145A      1.306988  
     146A      1.339058   147A      1.347792   148A      1.387752  
     149A      1.405316   150A      1.456438   151A      1.478269  
     152A      1.487385   153A      1.574393   154A      1.592619  
     155A      1.594547   156A      1.598929   157A      1.612071  
     158A      1.616939   159A      1.621643   160A      1.624894  
     161A      1.629318   162A      1.632588   163A      1.638436  
     164A      1.675628   165A      1.713352   166A      1.734241  
     167A      1.736755   168A      1.750469   169A      1.767101  
     170A      1.768377   171A      1.780777   172A      1.795722  
     173A      1.822101   174A      1.823317   175A      1.866062  
     176A      1.869553   177A      1.878961   178A      1.889396  
     179A      1.930320   180A      1.933890   181A      1.937625  
     182A      1.946017   183A      1.998194   184A      2.042552  
     185A      2.066456   186A      2.079120   187A      2.116970  
     188A      2.123598   189A      2.124757   190A      2.132683  
     191A      2.147931   192A      2.153836   193A      2.222140  
     194A      2.247344   195A      2.258510   196A      2.279062  
     197A      2.322812   198A      2.346218   199A      2.449864  
     200A      2.564030   201A      2.608936   202A      2.648152  
     203A      2.877410   204A      2.914218   205A      3.023010  
     206A      3.033876   207A      3.234868   208A      3.245613  
     209A      3.253183   210A      3.254034   211A      3.263213  
     212A      3.270576   213A      3.280505   214A      3.295834  
     215A      3.332730   216A      3.427612   217A      3.461608  
     218A      3.479019   219A      3.488396   220A      3.493999  
     221A      3.508250   222A      3.574288   223A      3.576817  
     224A      3.579985   225A      3.580504   226A      3.581573  
     227A      3.590532   228A      3.605542   229A      3.612316  
     230A      3.617066   231A      3.704684   232A      3.728233  
     233A      3.742569   234A      3.769838   235A      3.791730  
     236A      3.848037   237A      3.856871   238A      3.881457  
     239A      3.915590   240A      3.917576   241A      3.919024  
     242A      3.985838   243A      4.023405   244A      4.057341  
     245A      4.057678   246A      4.061804   247A      4.073755  
     248A      4.074886   249A      4.081485   250A      4.094212  
     251A      4.106294   252A      4.112339   253A      4.119321  
     254A      4.127051   255A      4.165257   256A      4.233965  
     257A      4.269395   258A      4.299242   259A      4.336663  
     260A      4.382153   261A      4.392589   262A      4.514055  
     263A      4.567062   264A      4.581664   265A      4.585447  
     266A      4.588278   267A      4.590881   268A      4.598100  
     269A      4.697479   270A      4.712440   271A      4.767585  
     272A      4.782158   273A      4.806730   274A      4.822143  
     275A      4.825551   276A      4.853264   277A      4.862041  
     278A      4.863114   279A      4.864625   280A      4.919286  
     281A      4.940936   282A      4.948806   283A      4.966630  
     284A      4.975892   285A      5.061005   286A      5.181103  
     287A      5.197973   288A      5.200163   289A      5.201142  
     290A      5.260780   291A      5.274447   292A      5.292758  
     293A      5.296375   294A      5.325754   295A      5.350060  
     296A      5.508029   297A      5.584966   298A      5.594059  
     299A      5.621443   300A      5.623569   301A      5.645352  
     302A      5.647923   303A      5.652040   304A      5.830828  
     305A      5.834352   306A      5.837470   307A      6.009553  
     308A      6.096778   309A      6.241051   310A      6.244455  
     311A      6.248033   312A      6.477300   313A      6.576917  
     314A      6.612328   315A      6.614521   316A      6.640775  
     317A      6.671129   318A      6.735097   319A      6.989416  
     320A     16.942312   321A     17.351100   322A     17.813285  

    Final Occupation by Irrep:
              A 
    DOCC [    13 ]

  @DF-RHF Final Energy:  -118.27842937106260

   => Energetics <=

    Nuclear Repulsion Energy =             61.1792464921467598
    One-Electron Energy =                -278.5207424323028818
    Two-Electron Energy =                  99.0630665690935075
    Total Energy =                       -118.2784293710626002

Computation Completed


Properties will be evaluated at   0.000000,   0.000000,   0.000000 [a0]

Properties computed using the SCF density matrix

  Nuclear Dipole Moment: [e a0]
     X:    -6.0067      Y:    -0.1730      Z:    -0.5648

  Electronic Dipole Moment: [e a0]
     X:     6.0029      Y:     0.1734      Z:     0.5633

  Dipole Moment: [e a0]
     X:    -0.0038      Y:     0.0004      Z:    -0.0015     Total:     0.0041

  Dipole Moment: [D]
     X:    -0.0096      Y:     0.0010      Z:    -0.0039     Total:     0.0104


*** tstop() called on node62.bme.utexas.edu at Thu Apr 23 22:49:09 2020
Module time:
	user time   =      40.06 seconds =       0.67 minutes
	system time =       2.39 seconds =       0.04 minutes
	total time  =          6 seconds =       0.10 minutes
Total time:
	user time   =      40.06 seconds =       0.67 minutes
	system time =       2.39 seconds =       0.04 minutes
	total time  =          6 seconds =       0.10 minutes

  //>>>>>>>>>>>>>>>>>>>>>>>>>>>>>>>>>>>//
  //            Monomer A HF           //
  //<<<<<<<<<<<<<<<<<<<<<<<<<<<<<<<<<<<//


*** tstart() called on node62.bme.utexas.edu
*** at Thu Apr 23 22:49:09 2020

   => Loading Basis Set <=

    Name: AUG-CC-PVTZ
    Role: ORBITAL
    Keyword: BASIS
    atoms 1, 4, 7        entry C          line   239 file /home/liuchw/anaconda3/envs/psi4env/share/psi4/basis/aug-cc-pvtz.gbs 
    atoms 2-3, 5-6, 8-11 entry H          line    40 file /home/liuchw/anaconda3/envs/psi4env/share/psi4/basis/aug-cc-pvtz.gbs 


         ---------------------------------------------------------
                                   SCF
               by Justin Turney, Rob Parrish, Andy Simmonett
                          and Daniel G. A. Smith
                              RHF Reference
                        8 Threads,  47683 MiB Core
         ---------------------------------------------------------

  ==> Geometry <==

    Molecular point group: c1
    Full point group: C1

    Geometry (in Angstrom), charge = 0, multiplicity = 1:

       Center              X                  Y                   Z               Mass       
    ------------   -----------------  -----------------  -----------------  -----------------
         C            2.092457673435     0.726413733346     0.201222139432    12.000000000000
         H            2.973777673435     1.351573733346     0.200252139432     1.007825032230
         H            1.131907673435     1.221093733346     0.202222139432     1.007825032230
         C            2.186437673435    -0.602396266654     0.201202139432    12.000000000000
         H            1.305067673435    -1.227406266654     0.202172139432     1.007825032230
         H            3.146687673435    -1.097806266654     0.200202139432     1.007825032230
      Gh(C)          -3.740772326565    -0.108516266654    -0.351827860568    12.000000000000
      Gh(H)          -4.031342326565     0.937533733346    -0.351957860568     1.007825032230
      Gh(H)          -3.150772326565    -0.319926266654    -1.238357860568     1.007825032230
      Gh(H)          -3.151722326565    -0.319956266654     0.535332139432     1.007825032230
      Gh(H)          -4.630942326565    -0.729676266654    -0.352307860568     1.007825032230

  Running in c1 symmetry.

  Rotational constants: A =      0.84730  B =      0.04648  C =      0.04444 [cm^-1]
  Rotational constants: A =  25401.47624  B =   1393.40586  C =   1332.19780 [MHz]
  Nuclear repulsion =   33.432345192272848

  Charge       = 0
  Multiplicity = 1
  Electrons    = 16
  Nalpha       = 8
  Nbeta        = 8

  ==> Algorithm <==

  SCF Algorithm Type is DF.
  DIIS enabled.
  MOM disabled.
  Fractional occupation disabled.
  Guess Type is SAD.
  Energy threshold   = 1.00e-08
  Density threshold  = 1.00e-08
  Integral threshold = 0.00e+00

  ==> Primary Basis <==

  Basis Set: AUG-CC-PVTZ
    Blend: AUG-CC-PVTZ
    Number of shells: 114
    Number of basis function: 322
    Number of Cartesian functions: 365
    Spherical Harmonics?: true
    Max angular momentum: 3

   => Loading Basis Set <=

    Name: (AUG-CC-PVTZ AUX)
    Role: JKFIT
    Keyword: DF_BASIS_SCF
    atoms 1, 4, 7        entry C          line   162 file /home/liuchw/anaconda3/envs/psi4env/share/psi4/basis/aug-cc-pvtz-jkfit.gbs 
    atoms 2-3, 5-6, 8-11 entry H          line    70 file /home/liuchw/anaconda3/envs/psi4env/share/psi4/basis/aug-cc-pvtz-jkfit.gbs 

  ==> Pre-Iterations <==

   -------------------------------------------------------
    Irrep   Nso     Nmo     Nalpha   Nbeta   Ndocc  Nsocc
   -------------------------------------------------------
     A        322     322       0       0       0       0
   -------------------------------------------------------
    Total     322     322       8       8       8       0
   -------------------------------------------------------

  ==> Integral Setup <==

  ==> DiskDFJK: Density-Fitted J/K Matrices <==

    J tasked:                  Yes
    K tasked:                  Yes
    wK tasked:                  No
    OpenMP threads:              8
    Integrals threads:           8
    Memory [MiB]:            35762
    Algorithm:                Core
    Integral Cache:           LOAD
    Schwarz Cutoff:          1E-12
    Fitting Condition:       1E-10

   => Auxiliary Basis Set <=

  Basis Set: (AUG-CC-PVTZ AUX)
    Blend: AUG-CC-PVTZ-JKFIT
    Number of shells: 202
    Number of basis function: 680
    Number of Cartesian functions: 833
    Spherical Harmonics?: true
    Max angular momentum: 4

  Minimum eigenvalue in the overlap matrix is 4.5137235969E-06.
  Using Symmetric Orthogonalization.

  SCF Guess: Superposition of Atomic Densities via on-the-fly atomic UHF.

  ==> Iterations <==

                           Total Energy        Delta E     RMS |[F,P]|

   @DF-RHF iter SAD:   -77.27133820357456   -7.72713e+01   0.00000e+00 
   @DF-RHF iter   1:   -77.98488564056254   -7.13547e-01   1.15495e-03 DIIS
   @DF-RHF iter   2:   -78.05246031207190   -6.75747e-02   4.73145e-04 DIIS
   @DF-RHF iter   3:   -78.06416923403241   -1.17089e-02   7.14403e-05 DIIS
   @DF-RHF iter   4:   -78.06473419591526   -5.64962e-04   7.11542e-06 DIIS
   @DF-RHF iter   5:   -78.06474049053605   -6.29462e-06   8.49072e-07 DIIS
   @DF-RHF iter   6:   -78.06474059048992   -9.99539e-08   1.01931e-07 DIIS
   @DF-RHF iter   7:   -78.06474059174806   -1.25814e-09   1.70801e-08 DIIS
   @DF-RHF iter   8:   -78.06474059178774   -3.96767e-11   2.54512e-09 DIIS
  Energy and wave function converged.


  ==> Post-Iterations <==

    Orbital Energies [Eh]
    ---------------------

    Doubly Occupied:                                                      

       1A    -11.231164     2A    -11.229439     3A     -1.034925  
       4A     -0.793496     5A     -0.645238     6A     -0.587784  
       7A     -0.508749     8A     -0.377258  

    Virtual:                                                              

       9A      0.022582    10A      0.035316    11A      0.037676  
      12A      0.048099    13A      0.048401    14A      0.050858  
      15A      0.071332    16A      0.075093    17A      0.091855  
      18A      0.099664    19A      0.101925    20A      0.113251  
      21A      0.115051    22A      0.124396    23A      0.126117  
      24A      0.127942    25A      0.148134    26A      0.158242  
      27A      0.174698    28A      0.179222    29A      0.189638  
      30A      0.205240    31A      0.222886    32A      0.228392  
      33A      0.234234    34A      0.252874    35A      0.255241  
      36A      0.258611    37A      0.275626    38A      0.277736  
      39A      0.289179    40A      0.292669    41A      0.294154  
      42A      0.296680    43A      0.306544    44A      0.313821  
      45A      0.322602    46A      0.327391    47A      0.341631  
      48A      0.355132    49A      0.356725    50A      0.364587  
      51A      0.367092    52A      0.372033    53A      0.384209  
      54A      0.389732    55A      0.396382    56A      0.403442  
      57A      0.417291    58A      0.420782    59A      0.424036  
      60A      0.429251    61A      0.441492    62A      0.446446  
      63A      0.455412    64A      0.460848    65A      0.466991  
      66A      0.471188    67A      0.482151    68A      0.484811  
      69A      0.513836    70A      0.518582    71A      0.555650  
      72A      0.562788    73A      0.570042    74A      0.582978  
      75A      0.589873    76A      0.602326    77A      0.618057  
      78A      0.620249    79A      0.664719    80A      0.669042  
      81A      0.669752    82A      0.696189    83A      0.712603  
      84A      0.756753    85A      0.797407    86A      0.810616  
      87A      0.827951    88A      0.833810    89A      0.869515  
      90A      0.892540    91A      0.907685    92A      0.916952  
      93A      0.921207    94A      0.922230    95A      0.925652  
      96A      0.933771    97A      0.938927    98A      0.942324  
      99A      0.946452   100A      0.951702   101A      0.957312  
     102A      0.961575   103A      0.968573   104A      0.975168  
     105A      0.980649   106A      1.018949   107A      1.025690  
     108A      1.033229   109A      1.035120   110A      1.041986  
     111A      1.042487   112A      1.052974   113A      1.064333  
     114A      1.067076   115A      1.073798   116A      1.074851  
     117A      1.078860   118A      1.087717   119A      1.090440  
     120A      1.097876   121A      1.102048   122A      1.110181  
     123A      1.112198   124A      1.113918   125A      1.131443  
     126A      1.142433   127A      1.145068   128A      1.145294  
     129A      1.161453   130A      1.163237   131A      1.191688  
     132A      1.225385   133A      1.234392   134A      1.240588  
     135A      1.244739   136A      1.253433   137A      1.265931  
     138A      1.276409   139A      1.313994   140A      1.338957  
     141A      1.373468   142A      1.390619   143A      1.392374  
     144A      1.394472   145A      1.401810   146A      1.405844  
     147A      1.416754   148A      1.451799   149A      1.457787  
     150A      1.481446   151A      1.500276   152A      1.576583  
     153A      1.598792   154A      1.615389   155A      1.627181  
     156A      1.675195   157A      1.705705   158A      1.714305  
     159A      1.718372   160A      1.723347   161A      1.740134  
     162A      1.767028   163A      1.780558   164A      1.794364  
     165A      1.820667   166A      1.821774   167A      1.848908  
     168A      1.852653   169A      1.853173   170A      1.868518  
     171A      1.916390   172A      1.936259   173A      1.995397  
     174A      2.040376   175A      2.044619   176A      2.048332  
     177A      2.060609   178A      2.063456   179A      2.068329  
     180A      2.073117   181A      2.079013   182A      2.081610  
     183A      2.124374   184A      2.128868   185A      2.143831  
     186A      2.221977   187A      2.257175   188A      2.265431  
     189A      2.283456   190A      2.297844   191A      2.328084  
     192A      2.346330   193A      2.449801   194A      2.454356  
     195A      2.495496   196A      2.564620   197A      2.646390  
     198A      2.684588   199A      2.688569   200A      2.702585  
     201A      2.840667   202A      2.877565   203A      3.024526  
     204A      3.034186   205A      3.234811   206A      3.246225  
     207A      3.262682   208A      3.279951   209A      3.295701  
     210A      3.332639   211A      3.427534   212A      3.461633  
     213A      3.479142   214A      3.495055   215A      3.586738  
     216A      3.606614   217A      3.616800   218A      3.648703  
     219A      3.704608   220A      3.726079   221A      3.742176  
     222A      3.768457   223A      3.791633   224A      3.847775  
     225A      3.856415   226A      3.881283   227A      3.985526  
     228A      4.019451   229A      4.021397   230A      4.022971  
     231A      4.027139   232A      4.031483   233A      4.032356  
     234A      4.033592   235A      4.094007   236A      4.106166  
     237A      4.110354   238A      4.164984   239A      4.175895  
     240A      4.184737   241A      4.233743   242A      4.297977  
     243A      4.336139   244A      4.381117   245A      4.390931  
     246A      4.409648   247A      4.411446   248A      4.415332  
     249A      4.438713   250A      4.440239   251A      4.465669  
     252A      4.513905   253A      4.516602   254A      4.531445  
     255A      4.567471   256A      4.587593   257A      4.590499  
     258A      4.629995   259A      4.631092   260A      4.638768  
     261A      4.697474   262A      4.713380   263A      4.802137  
     264A      4.853548   265A      4.918770   266A      4.940685  
     267A      4.948702   268A      4.964258   269A      4.974580  
     270A      4.980840   271A      4.983495   272A      4.992688  
     273A      5.060997   274A      5.179797   275A      5.193086  
     276A      5.194360   277A      5.194889   278A      5.260758  
     279A      5.274302   280A      5.292262   281A      5.299467  
     282A      5.349084   283A      5.368094   284A      5.370845  
     285A      5.379224   286A      5.421378   287A      5.444342  
     288A      5.507924   289A      5.517505   290A      5.524724  
     291A      5.527975   292A      5.584869   293A      5.589215  
     294A      5.597923   295A      5.621484   296A      5.624499  
     297A      6.009429   298A      6.096661   299A      6.201063  
     300A      6.203606   301A      6.208182   302A      6.394351  
     303A      6.395003   304A      6.477327   305A      6.577902  
     306A      6.670406   307A      6.733529   308A      6.778645  
     309A      6.781024   310A      6.791997   311A      6.989296  
     312A      7.033621   313A      7.777143   314A      7.779034  
     315A      7.796100   316A      8.127478   317A      8.136074  
     318A      8.155494   319A     10.451007   320A     16.945730  
     321A     17.354172   322A     52.927781  

    Final Occupation by Irrep:
              A 
    DOCC [     8 ]

  @DF-RHF Final Energy:   -78.06474059178774

   => Energetics <=

    Nuclear Repulsion Energy =             33.4323451922728481
    One-Electron Energy =                -170.1780669532400623
    Two-Electron Energy =                  58.6809811691794891
    Total Energy =                        -78.0647405917877393

Computation Completed


Properties will be evaluated at   0.000000,   0.000000,   0.000000 [a0]

Properties computed using the SCF density matrix

  Nuclear Dipole Moment: [e a0]
     X:    64.6869      Y:     1.8738      Z:     6.0838

  Electronic Dipole Moment: [e a0]
     X:   -64.6869      Y:    -1.8738      Z:    -6.0838

  Dipole Moment: [e a0]
     X:    -0.0000      Y:    -0.0001      Z:    -0.0000     Total:     0.0001

  Dipole Moment: [D]
     X:    -0.0000      Y:    -0.0002      Z:    -0.0001     Total:     0.0002


*** tstop() called on node62.bme.utexas.edu at Thu Apr 23 22:49:12 2020
Module time:
	user time   =      20.72 seconds =       0.35 minutes
	system time =       1.07 seconds =       0.02 minutes
	total time  =          3 seconds =       0.05 minutes
Total time:
	user time   =      60.84 seconds =       1.01 minutes
	system time =       3.47 seconds =       0.06 minutes
	total time  =          9 seconds =       0.15 minutes

  //>>>>>>>>>>>>>>>>>>>>>>>>>>>>>>>>>>>//
  //            Monomer B HF           //
  //<<<<<<<<<<<<<<<<<<<<<<<<<<<<<<<<<<<//


*** tstart() called on node62.bme.utexas.edu
*** at Thu Apr 23 22:49:13 2020

   => Loading Basis Set <=

    Name: AUG-CC-PVTZ
    Role: ORBITAL
    Keyword: BASIS
    atoms 1, 4, 7        entry C          line   239 file /home/liuchw/anaconda3/envs/psi4env/share/psi4/basis/aug-cc-pvtz.gbs 
    atoms 2-3, 5-6, 8-11 entry H          line    40 file /home/liuchw/anaconda3/envs/psi4env/share/psi4/basis/aug-cc-pvtz.gbs 


         ---------------------------------------------------------
                                   SCF
               by Justin Turney, Rob Parrish, Andy Simmonett
                          and Daniel G. A. Smith
                              RHF Reference
                        8 Threads,  47683 MiB Core
         ---------------------------------------------------------

  ==> Geometry <==

    Molecular point group: c1
    Full point group: C1

    Geometry (in Angstrom), charge = 0, multiplicity = 1:

       Center              X                  Y                   Z               Mass       
    ------------   -----------------  -----------------  -----------------  -----------------
      Gh(C)           2.092457673435     0.726413733346     0.201222139432    12.000000000000
      Gh(H)           2.973777673435     1.351573733346     0.200252139432     1.007825032230
      Gh(H)           1.131907673435     1.221093733346     0.202222139432     1.007825032230
      Gh(C)           2.186437673435    -0.602396266654     0.201202139432    12.000000000000
      Gh(H)           1.305067673435    -1.227406266654     0.202172139432     1.007825032230
      Gh(H)           3.146687673435    -1.097806266654     0.200202139432     1.007825032230
         C           -3.740772326565    -0.108516266654    -0.351827860568    12.000000000000
         H           -4.031342326565     0.937533733346    -0.351957860568     1.007825032230
         H           -3.150772326565    -0.319926266654    -1.238357860568     1.007825032230
         H           -3.151722326565    -0.319956266654     0.535332139432     1.007825032230
         H           -4.630942326565    -0.729676266654    -0.352307860568     1.007825032230

  Running in c1 symmetry.

  Rotational constants: A =      0.84730  B =      0.04648  C =      0.04444 [cm^-1]
  Rotational constants: A =  25401.47624  B =   1393.40586  C =   1332.19780 [MHz]
  Nuclear repulsion =   13.489481049032829

  Charge       = 0
  Multiplicity = 1
  Electrons    = 10
  Nalpha       = 5
  Nbeta        = 5

  ==> Algorithm <==

  SCF Algorithm Type is DF.
  DIIS enabled.
  MOM disabled.
  Fractional occupation disabled.
  Guess Type is SAD.
  Energy threshold   = 1.00e-08
  Density threshold  = 1.00e-08
  Integral threshold = 0.00e+00

  ==> Primary Basis <==

  Basis Set: AUG-CC-PVTZ
    Blend: AUG-CC-PVTZ
    Number of shells: 114
    Number of basis function: 322
    Number of Cartesian functions: 365
    Spherical Harmonics?: true
    Max angular momentum: 3

   => Loading Basis Set <=

    Name: (AUG-CC-PVTZ AUX)
    Role: JKFIT
    Keyword: DF_BASIS_SCF
    atoms 1, 4, 7        entry C          line   162 file /home/liuchw/anaconda3/envs/psi4env/share/psi4/basis/aug-cc-pvtz-jkfit.gbs 
    atoms 2-3, 5-6, 8-11 entry H          line    70 file /home/liuchw/anaconda3/envs/psi4env/share/psi4/basis/aug-cc-pvtz-jkfit.gbs 

  ==> Pre-Iterations <==

   -------------------------------------------------------
    Irrep   Nso     Nmo     Nalpha   Nbeta   Ndocc  Nsocc
   -------------------------------------------------------
     A        322     322       0       0       0       0
   -------------------------------------------------------
    Total     322     322       5       5       5       0
   -------------------------------------------------------

  ==> Integral Setup <==

  ==> DiskDFJK: Density-Fitted J/K Matrices <==

    J tasked:                  Yes
    K tasked:                  Yes
    wK tasked:                  No
    OpenMP threads:              8
    Integrals threads:           8
    Memory [MiB]:            35762
    Algorithm:                Core
    Integral Cache:           LOAD
    Schwarz Cutoff:          1E-12
    Fitting Condition:       1E-10

   => Auxiliary Basis Set <=

  Basis Set: (AUG-CC-PVTZ AUX)
    Blend: AUG-CC-PVTZ-JKFIT
    Number of shells: 202
    Number of basis function: 680
    Number of Cartesian functions: 833
    Spherical Harmonics?: true
    Max angular momentum: 4

  Minimum eigenvalue in the overlap matrix is 4.5137235969E-06.
  Using Symmetric Orthogonalization.

  SCF Guess: Superposition of Atomic Densities via on-the-fly atomic UHF.

  ==> Iterations <==

                           Total Energy        Delta E     RMS |[F,P]|

   @DF-RHF iter SAD:   -39.63360048040127   -3.96336e+01   0.00000e+00 
   @DF-RHF iter   1:   -40.13699562251529   -5.03395e-01   1.14724e-03 DIIS
   @DF-RHF iter   2:   -40.20137482842637   -6.43792e-02   4.77902e-04 DIIS
   @DF-RHF iter   3:   -40.21291499588848   -1.15402e-02   7.35616e-05 DIIS
   @DF-RHF iter   4:   -40.21366213635363   -7.47140e-04   8.99810e-06 DIIS
   @DF-RHF iter   5:   -40.21367261785171   -1.04815e-05   8.07758e-07 DIIS
   @DF-RHF iter   6:   -40.21367271129964   -9.34479e-08   7.08580e-08 DIIS
   @DF-RHF iter   7:   -40.21367271188769   -5.88045e-10   6.34806e-09 DIIS
  Energy and wave function converged.


  ==> Post-Iterations <==

    Orbital Energies [Eh]
    ---------------------

    Doubly Occupied:                                                      

       1A    -11.205122     2A     -0.944163     3A     -0.545739  
       4A     -0.545704     5A     -0.545434  

    Virtual:                                                              

       6A      0.021487     7A      0.034258     8A      0.037559  
       9A      0.048914    10A      0.049134    11A      0.051946  
      12A      0.070696    13A      0.074761    14A      0.083768  
      15A      0.097508    16A      0.105475    17A      0.116213  
      18A      0.118273    19A      0.121130    20A      0.125721  
      21A      0.130793    22A      0.143702    23A      0.153266  
      24A      0.171501    25A      0.179525    26A      0.214207  
      27A      0.219668    28A      0.224545    29A      0.233428  
      30A      0.239770    31A      0.252015    32A      0.267525  
      33A      0.268928    34A      0.280011    35A      0.281313  
      36A      0.297003    37A      0.300732    38A      0.302108  
      39A      0.306845    40A      0.318224    41A      0.321726  
      42A      0.332658    43A      0.335531    44A      0.338697  
      45A      0.345494    46A      0.349482    47A      0.359171  
      48A      0.360378    49A      0.366369    50A      0.382877  
      51A      0.389159    52A      0.396060    53A      0.403492  
      54A      0.404961    55A      0.406495    56A      0.412017  
      57A      0.435417    58A      0.446789    59A      0.450885  
      60A      0.455706    61A      0.462246    62A      0.474783  
      63A      0.478306    64A      0.480498    65A      0.502652  
      66A      0.518568    67A      0.525352    68A      0.532717  
      69A      0.547206    70A      0.598615    71A      0.606061  
      72A      0.609647    73A      0.623671    74A      0.631702  
      75A      0.655302    76A      0.657278    77A      0.671102  
      78A      0.683434    79A      0.688668    80A      0.698714  
      81A      0.735449    82A      0.781123    83A      0.809320  
      84A      0.811571    85A      0.835427    86A      0.842556  
      87A      0.863905    88A      0.896912    89A      0.901016  
      90A      0.911198    91A      0.949038    92A      0.949747  
      93A      0.959871    94A      0.966666    95A      0.969793  
      96A      0.977031    97A      0.977622    98A      0.980012  
      99A      0.982059   100A      0.989718   101A      0.995736  
     102A      1.000305   103A      1.007471   104A      1.012429  
     105A      1.018618   106A      1.036193   107A      1.071569  
     108A      1.072225   109A      1.075597   110A      1.081566  
     111A      1.082532   112A      1.087110   113A      1.088519  
     114A      1.092436   115A      1.105154   116A      1.111422  
     117A      1.122294   118A      1.125864   119A      1.134243  
     120A      1.146372   121A      1.160294   122A      1.162783  
     123A      1.173736   124A      1.194443   125A      1.198185  
     126A      1.218630   127A      1.224649   128A      1.228390  
     129A      1.234994   130A      1.252886   131A      1.260314  
     132A      1.269979   133A      1.277598   134A      1.282763  
     135A      1.295676   136A      1.305525   137A      1.321335  
     138A      1.340502   139A      1.364176   140A      1.380703  
     141A      1.413664   142A      1.466984   143A      1.470660  
     144A      1.515981   145A      1.524718   146A      1.545489  
     147A      1.546406   148A      1.562679   149A      1.571159  
     150A      1.594315   151A      1.598236   152A      1.620528  
     153A      1.622988   154A      1.630861   155A      1.638542  
     156A      1.650144   157A      1.721551   158A      1.735820  
     159A      1.739111   160A      1.748403   161A      1.759944  
     162A      1.772791   163A      1.834849   164A      1.837139  
     165A      1.870741   166A      1.876231   167A      1.879567  
     168A      1.885371   169A      1.930287   170A      1.936136  
     171A      1.945591   172A      2.019647   173A      2.032978  
     174A      2.112542   175A      2.119553   176A      2.136791  
     177A      2.146782   178A      2.151878   179A      2.153838  
     180A      2.157687   181A      2.201869   182A      2.216155  
     183A      2.247111   184A      2.274389   185A      2.279371  
     186A      2.283933   187A      2.295740   188A      2.312290  
     189A      2.314316   190A      2.332600   191A      2.461411  
     192A      2.494027   193A      2.584213   194A      2.606586  
     195A      2.694720   196A      2.705130   197A      2.753895  
     198A      2.847019   199A      2.916045   200A      3.229175  
     201A      3.240768   202A      3.254597   203A      3.255633  
     204A      3.271282   205A      3.489472   206A      3.511181  
     207A      3.577512   208A      3.578967   209A      3.581216  
     210A      3.581551   211A      3.583647   212A      3.608733  
     213A      3.747788   214A      3.799660   215A      3.888717  
     216A      3.916054   217A      3.918554   218A      3.919604  
     219A      3.955277   220A      4.032672   221A      4.033029  
     222A      4.039351   223A      4.056643   224A      4.057149  
     225A      4.059105   226A      4.059893   227A      4.065279  
     228A      4.074502   229A      4.076152   230A      4.081716  
     231A      4.119400   232A      4.126832   233A      4.154294  
     234A      4.155294   235A      4.157752   236A      4.234839  
     237A      4.242695   238A      4.258145   239A      4.270118  
     240A      4.302142   241A      4.318179   242A      4.401290  
     243A      4.472661   244A      4.532651   245A      4.535749  
     246A      4.571069   247A      4.582639   248A      4.588763  
     249A      4.598359   250A      4.647590   251A      4.724819  
     252A      4.767904   253A      4.783116   254A      4.807134  
     255A      4.814223   256A      4.823790   257A      4.844024  
     258A      4.862872   259A      4.863676   260A      4.865005  
     261A      4.882590   262A      4.901561   263A      4.905571  
     264A      4.926628   265A      4.974395   266A      4.981528  
     267A      5.036409   268A      5.091273   269A      5.122321  
     270A      5.198716   271A      5.200674   272A      5.201703  
     273A      5.321616   274A      5.359068   275A      5.370394  
     276A      5.414992   277A      5.446853   278A      5.481715  
     279A      5.525162   280A      5.545025   281A      5.584325  
     282A      5.645021   283A      5.646055   284A      5.650140  
     285A      5.652518   286A      5.668421   287A      5.717490  
     288A      5.805699   289A      5.826988   290A      5.831653  
     291A      5.835138   292A      5.841211   293A      5.902157  
     294A      5.992039   295A      6.069019   296A      6.074771  
     297A      6.211185   298A      6.237412   299A      6.242069  
     300A      6.245571   301A      6.248845   302A      6.483509  
     303A      6.582440   304A      6.613021   305A      6.615635  
     306A      6.642486   307A      6.954375   308A      7.079496  
     309A      7.132220   310A      7.555773   311A      7.582117  
     312A      7.669816   313A      7.862431   314A      8.043568  
     315A      8.305031   316A      8.382014   317A      8.862473  
     318A     10.573777   319A     10.829690   320A     17.807195  
     321A     50.287864   322A     51.899141  

    Final Occupation by Irrep:
              A 
    DOCC [     5 ]

  @DF-RHF Final Energy:   -40.21367271188769

   => Energetics <=

    Nuclear Repulsion Energy =             13.4894810490328290
    One-Electron Energy =                 -79.8339882950442359
    Two-Electron Energy =                  26.1308345341237143
    Total Energy =                        -40.2136727118876891

Computation Completed


Properties will be evaluated at   0.000000,   0.000000,   0.000000 [a0]

Properties computed using the SCF density matrix

  Nuclear Dipole Moment: [e a0]
     X:   -70.6935      Y:    -2.0468      Z:    -6.6485

  Electronic Dipole Moment: [e a0]
     X:    70.6933      Y:     2.0470      Z:     6.6485

  Dipole Moment: [e a0]
     X:    -0.0003      Y:     0.0002      Z:     0.0000     Total:     0.0003

  Dipole Moment: [D]
     X:    -0.0007      Y:     0.0005      Z:     0.0000     Total:     0.0009


*** tstop() called on node62.bme.utexas.edu at Thu Apr 23 22:49:15 2020
Module time:
	user time   =      15.07 seconds =       0.25 minutes
	system time =       0.70 seconds =       0.01 minutes
	total time  =          2 seconds =       0.03 minutes
Total time:
	user time   =      77.09 seconds =       1.28 minutes
	system time =       4.25 seconds =       0.07 minutes
	total time  =         12 seconds =       0.20 minutes
  Constructing Basis Sets for SAPT...

   => Loading Basis Set <=

    Name: (AUG-CC-PVTZ AUX)
    Role: RIFIT
    Keyword: DF_BASIS_SAPT
    atoms 1, 4, 7        entry C          line   148 file /home/liuchw/anaconda3/envs/psi4env/share/psi4/basis/aug-cc-pvtz-ri.gbs 
    atoms 2-3, 5-6, 8-11 entry H          line    30 file /home/liuchw/anaconda3/envs/psi4env/share/psi4/basis/aug-cc-pvtz-ri.gbs 


  //>>>>>>>>>>>>>>>>>>>>>>>>>>>>>>>>>>>//
  //               SAPT2+              //
  //<<<<<<<<<<<<<<<<<<<<<<<<<<<<<<<<<<<//


*** tstart() called on node62.bme.utexas.edu
*** at Thu Apr 23 22:49:16 2020

        SAPT2+  
    Ed Hohenstein
     6 June 2009

      Orbital Information
  --------------------------
    NSO        =       322
    NMO        =       322
    NRI        =       686
    NOCC A     =         8
    NOCC B     =         5
    FOCC A     =         2
    FOCC B     =         1
    NVIR A     =       314
    NVIR B     =       317

    Estimated memory usage: 705.8 MB

    Natural Orbital Cutoff:   1.000E-06
    Disp(T3) Truncation:            Yes
    CCD (vv|vv) Truncation:         Yes
    MBPT T2 Truncation:             Yes

    Monomer A: 161 virtual orbitals dropped
    Monomer B: 204 virtual orbitals dropped

    Elst10,r            =    -0.000016753874 [Eh]
    Exch10 (S^2)        =     0.000000952636 [Eh]
    Exch10              =     0.000000952637 [Eh]
    Ind20,r (A<-B)      =    -0.000000044957 [Eh]
    Ind20,r (B<-A)      =    -0.000000434356 [Eh]
    Ind20,r             =    -0.000000479314 [Eh]
    Exch-Ind20,r (A<-B) =     0.000000015757 [Eh]
    Exch-Ind20,r (B<-A) =     0.000000031827 [Eh]
    Exch-Ind20,r        =     0.000000047584 [Eh]
    Disp20              =    -0.000123547119 [Eh]
    Disp20 (NO)         =    -0.000118943713 [Eh]
    Exch-Disp20         =     0.000000195430 [Eh]
    Elst12,r            =     0.000000251477 [Eh]
    Exch11              =     0.000000001162 [Eh]
    Exch12              =     0.000000172346 [Eh]
    Ind22               =    -0.000000009727 [Eh]
    Disp21              =     0.000005370952 [Eh]
    Disp22 (SDQ)        =     0.000011210764 [Eh]

    (i =   1 of   4)          3 seconds
    (i =   2 of   4)          6 seconds
    (i =   3 of   4)          9 seconds
    (i =   4 of   4)         12 seconds

    Disp220 (T)         =    -0.000009462867 [Eh]

    (i =   1 of   6)          2 seconds
    (i =   2 of   6)          3 seconds
    (i =   3 of   6)          4 seconds
    (i =   4 of   6)          5 seconds
    (i =   5 of   6)          7 seconds
    (i =   6 of   6)          8 seconds

    Disp202 (T)         =    -0.000008220255 [Eh]

    Disp22 (T)          =    -0.000017683122 [Eh]

    Est. Disp220 (T)    =    -0.000009829103 [Eh]
    Est. Disp202 (T)    =    -0.000008538399 [Eh]

    Est. Disp22 (T)     =    -0.000018367502 [Eh]

    SAPT Results 
  --------------------------------------------------------------------------------------------------------
    Electrostatics                 -0.01650240 [mEh]      -0.01035541 [kcal/mol]      -0.04332704 [kJ/mol]
      Elst10,r                     -0.01675387 [mEh]      -0.01051321 [kcal/mol]      -0.04398729 [kJ/mol]
      Elst12,r                      0.00025148 [mEh]       0.00015780 [kcal/mol]       0.00066025 [kJ/mol]

    Exchange                        0.00112615 [mEh]       0.00070667 [kcal/mol]       0.00295670 [kJ/mol]
      Exch10                        0.00095264 [mEh]       0.00059779 [kcal/mol]       0.00250115 [kJ/mol]
      Exch10(S^2)                   0.00095264 [mEh]       0.00059779 [kcal/mol]       0.00250115 [kJ/mol]
      Exch11(S^2)                   0.00000116 [mEh]       0.00000073 [kcal/mol]       0.00000305 [kJ/mol]
      Exch12(S^2)                   0.00017235 [mEh]       0.00010815 [kcal/mol]       0.00045250 [kJ/mol]

    Induction                      -0.00027491 [mEh]      -0.00017251 [kcal/mol]      -0.00072178 [kJ/mol]
      Ind20,r                      -0.00047931 [mEh]      -0.00030077 [kcal/mol]      -0.00125844 [kJ/mol]
      Ind22                        -0.00000973 [mEh]      -0.00000610 [kcal/mol]      -0.00002554 [kJ/mol]
      Exch-Ind20,r                  0.00004758 [mEh]       0.00002986 [kcal/mol]       0.00012493 [kJ/mol]
      Exch-Ind22                    0.00000097 [mEh]       0.00000061 [kcal/mol]       0.00000254 [kJ/mol]
      delta HF,r (2)                0.00016558 [mEh]       0.00010390 [kcal/mol]       0.00043473 [kJ/mol]

    Dispersion                     -0.12513747 [mEh]      -0.07852495 [kcal/mol]      -0.32854839 [kJ/mol]
      Disp20                       -0.12354712 [mEh]      -0.07752699 [kcal/mol]      -0.32437292 [kJ/mol]
      Disp21                        0.00537095 [mEh]       0.00337032 [kcal/mol]       0.01410143 [kJ/mol]
      Disp22 (SDQ)                  0.01121076 [mEh]       0.00703486 [kcal/mol]       0.02943386 [kJ/mol]
      Disp22 (T)                   -0.01768312 [mEh]      -0.01109633 [kcal/mol]      -0.04642703 [kJ/mol]
      Est. Disp22 (T)              -0.01836750 [mEh]      -0.01152578 [kcal/mol]      -0.04822387 [kJ/mol]
      Exch-Disp20                   0.00019543 [mEh]       0.00012263 [kcal/mol]       0.00051310 [kJ/mol]

  Total HF                         -0.01606739 [mEh]      -0.01008244 [kcal/mol]      -0.04218492 [kJ/mol]
  Total SAPT0                      -0.13941908 [mEh]      -0.08748679 [kcal/mol]      -0.36604473 [kJ/mol]
  Total SAPT2                      -0.13900285 [mEh]      -0.08722561 [kcal/mol]      -0.36495194 [kJ/mol]
  Total SAPT2+                     -0.14078864 [mEh]      -0.08834620 [kcal/mol]      -0.36964051 [kJ/mol]

  Special recipe for scaled SAPT0 (see Manual):
    Electrostatics sSAPT0          -0.01675387 [mEh]      -0.01051321 [kcal/mol]      -0.04398729 [kJ/mol]
    Exchange sSAPT0                 0.00095264 [mEh]       0.00059779 [kcal/mol]       0.00250115 [kJ/mol]
    Induction sSAPT0               -0.00026615 [mEh]      -0.00016701 [kcal/mol]      -0.00069878 [kJ/mol]
    Dispersion sSAPT0              -0.12335169 [mEh]      -0.07740435 [kcal/mol]      -0.32385982 [kJ/mol]
  Total sSAPT0                     -0.13941908 [mEh]      -0.08748679 [kcal/mol]      -0.36604473 [kJ/mol]
  --------------------------------------------------------------------------------------------------------

*** tstop() called on node62.bme.utexas.edu at Thu Apr 23 22:50:23 2020
Module time:
	user time   =     457.61 seconds =       7.63 minutes
	system time =      27.88 seconds =       0.46 minutes
	total time  =         67 seconds =       1.12 minutes
Total time:
	user time   =     535.54 seconds =       8.93 minutes
	system time =      32.19 seconds =       0.54 minutes
	total time  =         80 seconds =       1.33 minutes

    Psi4 stopped on: Thursday, 23 April 2020 10:50PM
    Psi4 wall time for execution: 0:01:20.26

*** Psi4 exiting successfully. Buy a developer a beer!
