
    -----------------------------------------------------------------------
          Psi4: An Open-Source Ab Initio Electronic Structure Package
                               Psi4 1.4a2.dev224 

                         Git: Rev {master} e453b16 


    R. M. Parrish, L. A. Burns, D. G. A. Smith, A. C. Simmonett,
    A. E. DePrince III, E. G. Hohenstein, U. Bozkaya, A. Yu. Sokolov,
    R. Di Remigio, R. M. Richard, J. F. Gonthier, A. M. James,
    H. R. McAlexander, A. Kumar, M. Saitow, X. Wang, B. P. Pritchard,
    P. Verma, H. F. Schaefer III, K. Patkowski, R. A. King, E. F. Valeev,
    F. A. Evangelista, J. M. Turney, T. D. Crawford, and C. D. Sherrill,
    J. Chem. Theory Comput. 13(7) pp 3185--3197 (2017).
    (doi: 10.1021/acs.jctc.7b00174)


                         Additional Contributions by
    P. Kraus, H. Kruse, M. H. Lechner, M. C. Schieber, R. A. Shaw,
    A. Alenaizan, R. Galvelis, Z. L. Glick, S. Lehtola, and J. P. Misiewicz

    -----------------------------------------------------------------------


    Psi4 started on: Friday, 24 April 2020 12:58AM

    Process ID: 54058
    Host:       node144.bme.utexas.edu
    PSIDATADIR: /home/liuchw/anaconda3/envs/psi4env/share/psi4
    Memory:     500.0 MiB
    Threads:    8
    
  ==> Input File <==

--------------------------------------------------------------------------
#Generated by lconvert.py for sapt job

memory 50 GB

molecule  {
0 1
  C       1.433270    0.673520    0.000070
  H       2.314590    1.298680   -0.000900
  H       0.472720    1.168200    0.001070
  C       1.527250   -0.655290    0.000050
  H       0.645880   -1.280300    0.001020
  H       2.487500   -1.150700   -0.000950
--
0 1
  C      -2.217100   -0.003830    0.041020
  H      -2.507670    1.042230    0.040890
  H      -1.627100   -0.215230   -0.845510
  H      -1.628040   -0.215270    0.928180
  H      -3.107270   -0.624980    0.040550
units angstrom
no_reorient
symmetry c1
}

set {
scf_type DF
basis aug-cc-pvtz
freeze_core True
guess SAD
}
energy('sapt2+')
--------------------------------------------------------------------------

  Memory set to  46.566 GiB by Python driver.

Scratch directory: /scratch/liuchw/

  //>>>>>>>>>>>>>>>>>>>>>>>>>>>>>>>>>>>//
  //              Dimer HF             //
  //<<<<<<<<<<<<<<<<<<<<<<<<<<<<<<<<<<<//


*** tstart() called on node144.bme.utexas.edu
*** at Fri Apr 24 00:58:42 2020

   => Loading Basis Set <=

    Name: AUG-CC-PVTZ
    Role: ORBITAL
    Keyword: BASIS
    atoms 1, 4, 7        entry C          line   239 file /home/liuchw/anaconda3/envs/psi4env/share/psi4/basis/aug-cc-pvtz.gbs 
    atoms 2-3, 5-6, 8-11 entry H          line    40 file /home/liuchw/anaconda3/envs/psi4env/share/psi4/basis/aug-cc-pvtz.gbs 


         ---------------------------------------------------------
                                   SCF
               by Justin Turney, Rob Parrish, Andy Simmonett
                          and Daniel G. A. Smith
                              RHF Reference
                        8 Threads,  47683 MiB Core
         ---------------------------------------------------------

  ==> Geometry <==

    Molecular point group: c1
    Full point group: C1

    Geometry (in Angstrom), charge = 0, multiplicity = 1:

       Center              X                  Y                   Z               Mass       
    ------------   -----------------  -----------------  -----------------  -----------------
         C            1.298267279022     0.669080700473    -0.014893166953    12.000000000000
         H            2.179587279022     1.294240700473    -0.015863166953     1.007825032230
         H            0.337717279022     1.163760700473    -0.013893166953     1.007825032230
         C            1.392247279022    -0.659729299527    -0.014913166953    12.000000000000
         H            0.510877279022    -1.284739299527    -0.013943166953     1.007825032230
         H            2.352497279022    -1.155139299527    -0.015913166953     1.007825032230
         C           -2.352102720978    -0.008269299527     0.026056833047    12.000000000000
         H           -2.642672720978     1.037790700473     0.025926833047     1.007825032230
         H           -1.762102720978    -0.219669299527    -0.860473166953     1.007825032230
         H           -1.763042720978    -0.219709299527     0.913216833047     1.007825032230
         H           -3.242272720978    -0.629419299527     0.025586833047     1.007825032230

  Running in c1 symmetry.

  Rotational constants: A =      0.85040  B =      0.11537  C =      0.10357 [cm^-1]
  Rotational constants: A =  25494.41197  B =   3458.72616  C =   3104.88580 [MHz]
  Nuclear repulsion =   69.474354567492838

  Charge       = 0
  Multiplicity = 1
  Electrons    = 26
  Nalpha       = 13
  Nbeta        = 13

  ==> Algorithm <==

  SCF Algorithm Type is DF.
  DIIS enabled.
  MOM disabled.
  Fractional occupation disabled.
  Guess Type is SAD.
  Energy threshold   = 1.00e-08
  Density threshold  = 1.00e-08
  Integral threshold = 0.00e+00

  ==> Primary Basis <==

  Basis Set: AUG-CC-PVTZ
    Blend: AUG-CC-PVTZ
    Number of shells: 114
    Number of basis function: 322
    Number of Cartesian functions: 365
    Spherical Harmonics?: true
    Max angular momentum: 3

   => Loading Basis Set <=

    Name: (AUG-CC-PVTZ AUX)
    Role: JKFIT
    Keyword: DF_BASIS_SCF
    atoms 1, 4, 7        entry C          line   162 file /home/liuchw/anaconda3/envs/psi4env/share/psi4/basis/aug-cc-pvtz-jkfit.gbs 
    atoms 2-3, 5-6, 8-11 entry H          line    70 file /home/liuchw/anaconda3/envs/psi4env/share/psi4/basis/aug-cc-pvtz-jkfit.gbs 

  ==> Pre-Iterations <==

   -------------------------------------------------------
    Irrep   Nso     Nmo     Nalpha   Nbeta   Ndocc  Nsocc
   -------------------------------------------------------
     A        322     322       0       0       0       0
   -------------------------------------------------------
    Total     322     322      13      13      13       0
   -------------------------------------------------------

  ==> Integral Setup <==

  ==> DiskDFJK: Density-Fitted J/K Matrices <==

    J tasked:                  Yes
    K tasked:                  Yes
    wK tasked:                  No
    OpenMP threads:              8
    Integrals threads:           8
    Memory [MiB]:            35762
    Algorithm:                Core
    Integral Cache:           SAVE
    Schwarz Cutoff:          1E-12
    Fitting Condition:       1E-10

   => Auxiliary Basis Set <=

  Basis Set: (AUG-CC-PVTZ AUX)
    Blend: AUG-CC-PVTZ-JKFIT
    Number of shells: 202
    Number of basis function: 680
    Number of Cartesian functions: 833
    Spherical Harmonics?: true
    Max angular momentum: 4

  Minimum eigenvalue in the overlap matrix is 2.5828857358E-06.
  Using Symmetric Orthogonalization.

  SCF Guess: Superposition of Atomic Densities via on-the-fly atomic UHF.

  ==> Iterations <==

                           Total Energy        Delta E     RMS |[F,P]|

   @DF-RHF iter SAD:  -116.99344015274508   -1.16993e+02   0.00000e+00 
   @DF-RHF iter   1:  -118.12227479821473   -1.12883e+00   1.60966e-03 DIIS
   @DF-RHF iter   2:  -118.25356857123815   -1.31294e-01   6.56152e-04 DIIS
   @DF-RHF iter   3:  -118.27586922394401   -2.23007e-02   1.03959e-04 DIIS
   @DF-RHF iter   4:  -118.27721586932630   -1.34665e-03   1.24611e-05 DIIS
   @DF-RHF iter   5:  -118.27723529311186   -1.94238e-05   2.95378e-06 DIIS
   @DF-RHF iter   6:  -118.27723592098147   -6.27870e-07   5.50813e-07 DIIS
   @DF-RHF iter   7:  -118.27723595700087   -3.60194e-08   9.26535e-08 DIIS
   @DF-RHF iter   8:  -118.27723595769710   -6.96232e-10   3.50999e-08 DIIS
   @DF-RHF iter   9:  -118.27723595779763   -1.00528e-10   9.13734e-09 DIIS
  Energy and wave function converged.


  ==> Post-Iterations <==

    Orbital Energies [Eh]
    ---------------------

    Doubly Occupied:                                                      

       1A    -11.229935     2A    -11.228207     3A    -11.206588  
       4A     -1.034187     5A     -0.946556     6A     -0.792665  
       7A     -0.645540     8A     -0.587277     9A     -0.548153  
      10A     -0.547921    11A     -0.546178    12A     -0.507470  
      13A     -0.376381  

    Virtual:                                                              

      14A      0.030361    15A      0.037376    16A      0.038944  
      17A      0.052868    18A      0.054960    19A      0.059208  
      20A      0.076553    21A      0.081991    22A      0.091565  
      23A      0.108583    24A      0.124995    25A      0.126069  
      26A      0.128816    27A      0.138529    28A      0.140369  
      29A      0.145366    30A      0.158555    31A      0.173072  
      32A      0.175339    33A      0.188421    34A      0.201024  
      35A      0.209954    36A      0.225605    37A      0.233014  
      38A      0.242069    39A      0.251637    40A      0.271288  
      41A      0.296157    42A      0.301900    43A      0.311223  
      44A      0.315393    45A      0.327832    46A      0.328113  
      47A      0.332770    48A      0.339436    49A      0.339917  
      50A      0.346033    51A      0.356404    52A      0.376319  
      53A      0.378418    54A      0.388864    55A      0.391046  
      56A      0.398550    57A      0.407415    58A      0.412237  
      59A      0.425765    60A      0.430688    61A      0.431538  
      62A      0.437473    63A      0.452067    64A      0.452629  
      65A      0.459276    66A      0.467565    67A      0.468898  
      68A      0.491021    69A      0.497953    70A      0.509643  
      71A      0.517025    72A      0.518553    73A      0.534845  
      74A      0.541306    75A      0.547715    76A      0.554252  
      77A      0.601401    78A      0.608170    79A      0.617319  
      80A      0.622689    81A      0.638461    82A      0.656392  
      83A      0.695868    84A      0.707319    85A      0.746950  
      86A      0.754463    87A      0.757975    88A      0.796078  
      89A      0.815830    90A      0.825831    91A      0.828971  
      92A      0.830369    93A      0.859867    94A      0.869756  
      95A      0.882826    96A      0.888610    97A      0.890412  
      98A      0.898333    99A      0.913741   100A      0.916772  
     101A      0.926935   102A      0.929175   103A      0.936230  
     104A      0.947940   105A      0.953996   106A      0.958247  
     107A      0.962612   108A      0.973327   109A      0.975511  
     110A      0.992261   111A      0.995587   112A      1.005970  
     113A      1.031456   114A      1.036288   115A      1.043199  
     116A      1.054424   117A      1.059731   118A      1.066955  
     119A      1.077695   120A      1.078774   121A      1.090142  
     122A      1.101397   123A      1.103151   124A      1.110863  
     125A      1.123924   126A      1.146900   127A      1.151645  
     128A      1.152640   129A      1.172115   130A      1.180542  
     131A      1.184765   132A      1.201714   133A      1.215471  
     134A      1.231808   135A      1.236013   136A      1.249271  
     137A      1.272533   138A      1.280938   139A      1.298057  
     140A      1.303245   141A      1.352490   142A      1.381195  
     143A      1.400290   144A      1.411901   145A      1.418079  
     146A      1.444237   147A      1.506454   148A      1.513456  
     149A      1.518013   150A      1.542607   151A      1.585420  
     152A      1.603944   153A      1.605355   154A      1.616829  
     155A      1.639013   156A      1.640011   157A      1.645084  
     158A      1.662534   159A      1.687807   160A      1.689239  
     161A      1.707199   162A      1.729262   163A      1.754366  
     164A      1.770163   165A      1.789834   166A      1.798097  
     167A      1.808065   168A      1.818592   169A      1.847676  
     170A      1.856514   171A      1.861859   172A      1.867631  
     173A      1.878746   174A      1.898624   175A      1.919358  
     176A      1.927696   177A      1.939265   178A      1.963044  
     179A      1.967729   180A      1.974614   181A      2.000546  
     182A      2.049091   183A      2.069513   184A      2.105183  
     185A      2.106972   186A      2.141912   187A      2.148284  
     188A      2.180498   189A      2.186801   190A      2.194109  
     191A      2.238334   192A      2.280218   193A      2.287183  
     194A      2.306155   195A      2.326831   196A      2.339734  
     197A      2.371576   198A      2.381119   199A      2.494203  
     200A      2.612814   201A      2.662239   202A      2.689704  
     203A      2.899398   204A      3.033835   205A      3.096875  
     206A      3.147385   207A      3.257577   208A      3.264036  
     209A      3.275749   210A      3.311302   211A      3.314482  
     212A      3.351921   213A      3.366905   214A      3.382648  
     215A      3.456141   216A      3.460631   217A      3.477968  
     218A      3.485874   219A      3.527083   220A      3.560244  
     221A      3.592927   222A      3.599365   223A      3.612536  
     224A      3.621443   225A      3.630945   226A      3.632412  
     227A      3.666070   228A      3.668992   229A      3.673289  
     230A      3.722681   231A      3.737944   232A      3.758375  
     233A      3.799499   234A      3.803663   235A      3.884217  
     236A      3.887543   237A      3.905093   238A      3.928844  
     239A      3.942953   240A      3.949474   241A      3.992160  
     242A      4.034067   243A      4.068340   244A      4.077410  
     245A      4.088634   246A      4.096325   247A      4.112171  
     248A      4.112413   249A      4.136357   250A      4.147111  
     251A      4.147306   252A      4.156049   253A      4.189002  
     254A      4.216951   255A      4.290637   256A      4.299226  
     257A      4.345262   258A      4.349727   259A      4.406446  
     260A      4.418069   261A      4.439974   262A      4.551214  
     263A      4.586439   264A      4.590540   265A      4.618736  
     266A      4.640562   267A      4.666528   268A      4.703818  
     269A      4.720030   270A      4.739513   271A      4.780228  
     272A      4.832106   273A      4.850418   274A      4.858979  
     275A      4.867971   276A      4.873892   277A      4.888746  
     278A      4.918886   279A      4.940065   280A      4.950508  
     281A      4.956950   282A      4.976465   283A      5.000037  
     284A      5.029235   285A      5.075298   286A      5.190826  
     287A      5.206215   288A      5.215518   289A      5.249796  
     290A      5.277593   291A      5.290422   292A      5.303169  
     293A      5.344704   294A      5.404983   295A      5.427409  
     296A      5.509312   297A      5.601464   298A      5.601959  
     299A      5.632250   300A      5.640068   301A      5.664197  
     302A      5.676957   303A      5.711008   304A      5.831784  
     305A      5.841111   306A      5.880613   307A      6.045825  
     308A      6.143438   309A      6.253621   310A      6.262332  
     311A      6.271632   312A      6.511915   313A      6.618496  
     314A      6.652040   315A      6.676300   316A      6.698616  
     317A      6.758036   318A      6.788654   319A      7.028289  
     320A     17.341489   321A     17.571025   322A     18.314494  

    Final Occupation by Irrep:
              A 
    DOCC [    13 ]

  @DF-RHF Final Energy:  -118.27723595779763

   => Energetics <=

    Nuclear Repulsion Energy =             69.4743545674928384
    One-Electron Energy =                -295.1090715290300750
    Two-Electron Energy =                 107.3574810037396077
    Total Energy =                       -118.2772359577976289

Computation Completed


Properties will be evaluated at   0.000000,   0.000000,   0.000000 [a0]

Properties computed using the SCF density matrix

  Nuclear Dipole Moment: [e a0]
     X:    -3.7775      Y:    -0.0121      Z:     0.0419

  Electronic Dipole Moment: [e a0]
     X:     3.7620      Y:     0.0124      Z:    -0.0410

  Dipole Moment: [e a0]
     X:    -0.0154      Y:     0.0003      Z:     0.0009     Total:     0.0154

  Dipole Moment: [D]
     X:    -0.0392      Y:     0.0009      Z:     0.0022     Total:     0.0393


*** tstop() called on node144.bme.utexas.edu at Fri Apr 24 00:58:53 2020
Module time:
	user time   =      65.64 seconds =       1.09 minutes
	system time =       2.88 seconds =       0.05 minutes
	total time  =         11 seconds =       0.18 minutes
Total time:
	user time   =      65.64 seconds =       1.09 minutes
	system time =       2.88 seconds =       0.05 minutes
	total time  =         11 seconds =       0.18 minutes

  //>>>>>>>>>>>>>>>>>>>>>>>>>>>>>>>>>>>//
  //            Monomer A HF           //
  //<<<<<<<<<<<<<<<<<<<<<<<<<<<<<<<<<<<//


*** tstart() called on node144.bme.utexas.edu
*** at Fri Apr 24 00:58:53 2020

   => Loading Basis Set <=

    Name: AUG-CC-PVTZ
    Role: ORBITAL
    Keyword: BASIS
    atoms 1, 4, 7        entry C          line   239 file /home/liuchw/anaconda3/envs/psi4env/share/psi4/basis/aug-cc-pvtz.gbs 
    atoms 2-3, 5-6, 8-11 entry H          line    40 file /home/liuchw/anaconda3/envs/psi4env/share/psi4/basis/aug-cc-pvtz.gbs 


         ---------------------------------------------------------
                                   SCF
               by Justin Turney, Rob Parrish, Andy Simmonett
                          and Daniel G. A. Smith
                              RHF Reference
                        8 Threads,  47683 MiB Core
         ---------------------------------------------------------

  ==> Geometry <==

    Molecular point group: c1
    Full point group: C1

    Geometry (in Angstrom), charge = 0, multiplicity = 1:

       Center              X                  Y                   Z               Mass       
    ------------   -----------------  -----------------  -----------------  -----------------
         C            1.298267279022     0.669080700473    -0.014893166953    12.000000000000
         H            2.179587279022     1.294240700473    -0.015863166953     1.007825032230
         H            0.337717279022     1.163760700473    -0.013893166953     1.007825032230
         C            1.392247279022    -0.659729299527    -0.014913166953    12.000000000000
         H            0.510877279022    -1.284739299527    -0.013943166953     1.007825032230
         H            2.352497279022    -1.155139299527    -0.015913166953     1.007825032230
      Gh(C)          -2.352102720978    -0.008269299527     0.026056833047    12.000000000000
      Gh(H)          -2.642672720978     1.037790700473     0.025926833047     1.007825032230
      Gh(H)          -1.762102720978    -0.219669299527    -0.860473166953     1.007825032230
      Gh(H)          -1.763042720978    -0.219709299527     0.913216833047     1.007825032230
      Gh(H)          -3.242272720978    -0.629419299527     0.025586833047     1.007825032230

  Running in c1 symmetry.

  Rotational constants: A =      0.85040  B =      0.11537  C =      0.10357 [cm^-1]
  Rotational constants: A =  25494.41197  B =   3458.72616  C =   3104.88580 [MHz]
  Nuclear repulsion =   33.432345192272855

  Charge       = 0
  Multiplicity = 1
  Electrons    = 16
  Nalpha       = 8
  Nbeta        = 8

  ==> Algorithm <==

  SCF Algorithm Type is DF.
  DIIS enabled.
  MOM disabled.
  Fractional occupation disabled.
  Guess Type is SAD.
  Energy threshold   = 1.00e-08
  Density threshold  = 1.00e-08
  Integral threshold = 0.00e+00

  ==> Primary Basis <==

  Basis Set: AUG-CC-PVTZ
    Blend: AUG-CC-PVTZ
    Number of shells: 114
    Number of basis function: 322
    Number of Cartesian functions: 365
    Spherical Harmonics?: true
    Max angular momentum: 3

   => Loading Basis Set <=

    Name: (AUG-CC-PVTZ AUX)
    Role: JKFIT
    Keyword: DF_BASIS_SCF
    atoms 1, 4, 7        entry C          line   162 file /home/liuchw/anaconda3/envs/psi4env/share/psi4/basis/aug-cc-pvtz-jkfit.gbs 
    atoms 2-3, 5-6, 8-11 entry H          line    70 file /home/liuchw/anaconda3/envs/psi4env/share/psi4/basis/aug-cc-pvtz-jkfit.gbs 

  ==> Pre-Iterations <==

   -------------------------------------------------------
    Irrep   Nso     Nmo     Nalpha   Nbeta   Ndocc  Nsocc
   -------------------------------------------------------
     A        322     322       0       0       0       0
   -------------------------------------------------------
    Total     322     322       8       8       8       0
   -------------------------------------------------------

  ==> Integral Setup <==

  ==> DiskDFJK: Density-Fitted J/K Matrices <==

    J tasked:                  Yes
    K tasked:                  Yes
    wK tasked:                  No
    OpenMP threads:              8
    Integrals threads:           8
    Memory [MiB]:            35762
    Algorithm:                Core
    Integral Cache:           LOAD
    Schwarz Cutoff:          1E-12
    Fitting Condition:       1E-10

   => Auxiliary Basis Set <=

  Basis Set: (AUG-CC-PVTZ AUX)
    Blend: AUG-CC-PVTZ-JKFIT
    Number of shells: 202
    Number of basis function: 680
    Number of Cartesian functions: 833
    Spherical Harmonics?: true
    Max angular momentum: 4

  Minimum eigenvalue in the overlap matrix is 2.5828857358E-06.
  Using Symmetric Orthogonalization.

  SCF Guess: Superposition of Atomic Densities via on-the-fly atomic UHF.

  ==> Iterations <==

                           Total Energy        Delta E     RMS |[F,P]|

   @DF-RHF iter SAD:   -77.27133849717610   -7.72713e+01   0.00000e+00 
   @DF-RHF iter   1:   -77.98490021195224   -7.13562e-01   1.15502e-03 DIIS
   @DF-RHF iter   2:   -78.05247892915844   -6.75787e-02   4.73195e-04 DIIS
   @DF-RHF iter   3:   -78.06419006785660   -1.17111e-02   7.14489e-05 DIIS
   @DF-RHF iter   4:   -78.06475518891146   -5.65121e-04   7.12257e-06 DIIS
   @DF-RHF iter   5:   -78.06476149927367   -6.31036e-06   8.50038e-07 DIIS
   @DF-RHF iter   6:   -78.06476159928499   -1.00011e-07   1.02000e-07 DIIS
   @DF-RHF iter   7:   -78.06476160054596   -1.26097e-09   1.70807e-08 DIIS
   @DF-RHF iter   8:   -78.06476160058496   -3.89946e-11   2.32360e-09 DIIS
  Energy and wave function converged.


  ==> Post-Iterations <==

    Orbital Energies [Eh]
    ---------------------

    Doubly Occupied:                                                      

       1A    -11.231163     2A    -11.229437     3A     -1.034923  
       4A     -0.793494     5A     -0.645233     6A     -0.587781  
       7A     -0.508745     8A     -0.377260  

    Virtual:                                                              

       9A      0.024998    10A      0.035988    11A      0.037337  
      12A      0.050177    13A      0.053800    14A      0.057992  
      15A      0.076219    16A      0.081703    17A      0.091685  
      18A      0.102641    19A      0.107422    20A      0.120424  
      21A      0.125062    22A      0.126181    23A      0.132845  
      24A      0.138354    25A      0.149411    26A      0.166581  
      27A      0.174757    28A      0.187877    29A      0.206554  
      30A      0.213610    31A      0.226182    32A      0.238070  
      33A      0.246765    34A      0.263601    35A      0.274256  
      36A      0.284805    37A      0.296194    38A      0.299943  
      39A      0.304050    40A      0.308029    41A      0.317574  
      42A      0.319218    43A      0.322239    44A      0.334015  
      45A      0.347527    46A      0.352125    47A      0.361183  
      48A      0.382036    49A      0.385773    50A      0.392738  
      51A      0.400516    52A      0.406188    53A      0.413489  
      54A      0.426015    55A      0.431748    56A      0.435366  
      57A      0.438094    58A      0.456982    59A      0.459639  
      60A      0.460257    61A      0.484230    62A      0.484432  
      63A      0.493493    64A      0.503623    65A      0.514752  
      66A      0.530486    67A      0.542827    68A      0.544955  
      69A      0.560868    70A      0.573894    71A      0.576084  
      72A      0.601689    73A      0.607472    74A      0.617416  
      75A      0.628107    76A      0.643730    77A      0.645795  
      78A      0.665739    79A      0.675261    80A      0.701351  
      81A      0.707362    82A      0.745024    83A      0.755481  
      84A      0.761005    85A      0.807353    86A      0.821378  
      87A      0.830563    88A      0.879480    89A      0.886304  
      90A      0.888441    91A      0.912346    92A      0.915820  
      93A      0.924094    94A      0.936306    95A      0.941061  
      96A      0.947973    97A      0.960120    98A      0.965120  
      99A      0.979642   100A      0.993039   101A      0.994911  
     102A      1.000503   103A      1.011543   104A      1.018712  
     105A      1.034710   106A      1.044668   107A      1.046413  
     108A      1.055406   109A      1.058668   110A      1.068893  
     111A      1.077106   112A      1.084569   113A      1.092080  
     114A      1.094720   115A      1.102082   116A      1.110947  
     117A      1.123749   118A      1.128638   119A      1.140945  
     120A      1.151236   121A      1.154260   122A      1.169278  
     123A      1.175963   124A      1.181370   125A      1.190613  
     126A      1.204082   127A      1.234215   128A      1.241142  
     129A      1.251603   130A      1.255968   131A      1.264247  
     132A      1.296765   133A      1.299363   134A      1.313516  
     135A      1.336686   136A      1.350475   137A      1.374160  
     138A      1.394786   139A      1.398377   140A      1.415604  
     141A      1.422795   142A      1.439901   143A      1.456979  
     144A      1.484738   145A      1.524842   146A      1.530227  
     147A      1.555239   148A      1.597269   149A      1.605760  
     150A      1.618839   151A      1.620030   152A      1.644751  
     153A      1.657499   154A      1.730085   155A      1.740827  
     156A      1.744844   157A      1.753665   158A      1.760177  
     159A      1.772948   160A      1.804149   161A      1.829104  
     162A      1.842511   163A      1.862566   164A      1.879100  
     165A      1.887800   166A      1.897121   167A      1.907955  
     168A      1.910233   169A      1.928618   170A      1.944863  
     171A      1.950820   172A      1.989536   173A      2.038627  
     174A      2.051086   175A      2.064922   176A      2.070706  
     177A      2.075901   178A      2.113276   179A      2.133281  
     180A      2.144991   181A      2.153920   182A      2.183818  
     183A      2.213062   184A      2.235934   185A      2.273298  
     186A      2.319220   187A      2.319868   188A      2.337641  
     189A      2.357199   190A      2.371229   191A      2.386903  
     192A      2.414183   193A      2.487894   194A      2.491858  
     195A      2.539536   196A      2.616276   197A      2.661421  
     198A      2.699674   199A      2.718682   200A      2.757732  
     201A      2.900585   202A      2.926348   203A      3.068208  
     204A      3.104995   205A      3.262101   206A      3.265795  
     207A      3.313097   208A      3.327383   209A      3.367128  
     210A      3.416170   211A      3.475326   212A      3.483639  
     213A      3.520199   214A      3.532622   215A      3.622208  
     216A      3.623901   217A      3.643354   218A      3.719514  
     219A      3.742327   220A      3.768708   221A      3.796688  
     222A      3.816348   223A      3.869477   224A      3.883268  
     225A      3.912809   226A      3.940986   227A      4.019656  
     228A      4.038113   229A      4.046772   230A      4.072492  
     231A      4.086197   232A      4.090787   233A      4.101183  
     234A      4.114558   235A      4.138099   236A      4.140899  
     237A      4.171380   238A      4.233285   239A      4.235176  
     240A      4.316776   241A      4.346986   242A      4.349217  
     243A      4.363132   244A      4.408192   245A      4.423229  
     246A      4.426428   247A      4.456747   248A      4.468568  
     249A      4.520278   250A      4.525563   251A      4.529024  
     252A      4.569790   253A      4.588675   254A      4.609776  
     255A      4.628338   256A      4.639736   257A      4.659185  
     258A      4.664331   259A      4.700354   260A      4.731696  
     261A      4.758903   262A      4.775469   263A      4.878851  
     264A      4.891161   265A      4.946839   266A      4.953108  
     267A      4.976561   268A      4.986168   269A      4.997447  
     270A      5.013871   271A      5.049504   272A      5.073204  
     273A      5.075030   274A      5.197822   275A      5.206494  
     276A      5.217604   277A      5.239674   278A      5.284023  
     279A      5.289135   280A      5.303054   281A      5.334590  
     282A      5.367944   283A      5.373226   284A      5.390529  
     285A      5.431889   286A      5.441071   287A      5.496460  
     288A      5.508707   289A      5.532325   290A      5.550145  
     291A      5.573730   292A      5.603214   293A      5.603537  
     294A      5.640751   295A      5.649621   296A      5.664620  
     297A      6.046258   298A      6.139993   299A      6.220187  
     300A      6.236987   301A      6.260276   302A      6.394050  
     303A      6.400034   304A      6.510473   305A      6.624954  
     306A      6.690229   307A      6.776539   308A      6.821585  
     309A      6.837151   310A      6.904567   311A      7.023626  
     312A      7.108981   313A      7.799910   314A      7.818398  
     315A      7.854412   316A      8.170355   317A      8.201267  
     318A      8.250134   319A     10.627956   320A     17.341088  
     321A     17.570684   322A     53.842228  

    Final Occupation by Irrep:
              A 
    DOCC [     8 ]

  @DF-RHF Final Energy:   -78.06476160058496

   => Energetics <=

    Nuclear Repulsion Energy =             33.4323451922728552
    One-Electron Energy =                -170.1781443432607830
    Two-Electron Energy =                  58.6810375504029622
    Total Energy =                        -78.0647616005849585

Computation Completed


Properties will be evaluated at   0.000000,   0.000000,   0.000000 [a0]

Properties computed using the SCF density matrix

  Nuclear Dipole Moment: [e a0]
     X:    40.6740      Y:     0.1403      Z:    -0.4506

  Electronic Dipole Moment: [e a0]
     X:   -40.6738      Y:    -0.1403      Z:     0.4506

  Dipole Moment: [e a0]
     X:     0.0002      Y:    -0.0000      Z:     0.0000     Total:     0.0003

  Dipole Moment: [D]
     X:     0.0006      Y:    -0.0001      Z:     0.0000     Total:     0.0006


*** tstop() called on node144.bme.utexas.edu at Fri Apr 24 00:59:00 2020
Module time:
	user time   =      35.16 seconds =       0.59 minutes
	system time =       1.60 seconds =       0.03 minutes
	total time  =          7 seconds =       0.12 minutes
Total time:
	user time   =     100.87 seconds =       1.68 minutes
	system time =       4.49 seconds =       0.07 minutes
	total time  =         18 seconds =       0.30 minutes

  //>>>>>>>>>>>>>>>>>>>>>>>>>>>>>>>>>>>//
  //            Monomer B HF           //
  //<<<<<<<<<<<<<<<<<<<<<<<<<<<<<<<<<<<//


*** tstart() called on node144.bme.utexas.edu
*** at Fri Apr 24 00:59:00 2020

   => Loading Basis Set <=

    Name: AUG-CC-PVTZ
    Role: ORBITAL
    Keyword: BASIS
    atoms 1, 4, 7        entry C          line   239 file /home/liuchw/anaconda3/envs/psi4env/share/psi4/basis/aug-cc-pvtz.gbs 
    atoms 2-3, 5-6, 8-11 entry H          line    40 file /home/liuchw/anaconda3/envs/psi4env/share/psi4/basis/aug-cc-pvtz.gbs 


         ---------------------------------------------------------
                                   SCF
               by Justin Turney, Rob Parrish, Andy Simmonett
                          and Daniel G. A. Smith
                              RHF Reference
                        8 Threads,  47683 MiB Core
         ---------------------------------------------------------

  ==> Geometry <==

    Molecular point group: c1
    Full point group: C1

    Geometry (in Angstrom), charge = 0, multiplicity = 1:

       Center              X                  Y                   Z               Mass       
    ------------   -----------------  -----------------  -----------------  -----------------
      Gh(C)           1.298267279022     0.669080700473    -0.014893166953    12.000000000000
      Gh(H)           2.179587279022     1.294240700473    -0.015863166953     1.007825032230
      Gh(H)           0.337717279022     1.163760700473    -0.013893166953     1.007825032230
      Gh(C)           1.392247279022    -0.659729299527    -0.014913166953    12.000000000000
      Gh(H)           0.510877279022    -1.284739299527    -0.013943166953     1.007825032230
      Gh(H)           2.352497279022    -1.155139299527    -0.015913166953     1.007825032230
         C           -2.352102720978    -0.008269299527     0.026056833047    12.000000000000
         H           -2.642672720978     1.037790700473     0.025926833047     1.007825032230
         H           -1.762102720978    -0.219669299527    -0.860473166953     1.007825032230
         H           -1.763042720978    -0.219709299527     0.913216833047     1.007825032230
         H           -3.242272720978    -0.629419299527     0.025586833047     1.007825032230

  Running in c1 symmetry.

  Rotational constants: A =      0.85040  B =      0.11537  C =      0.10357 [cm^-1]
  Rotational constants: A =  25494.41197  B =   3458.72616  C =   3104.88580 [MHz]
  Nuclear repulsion =   13.489458114252722

  Charge       = 0
  Multiplicity = 1
  Electrons    = 10
  Nalpha       = 5
  Nbeta        = 5

  ==> Algorithm <==

  SCF Algorithm Type is DF.
  DIIS enabled.
  MOM disabled.
  Fractional occupation disabled.
  Guess Type is SAD.
  Energy threshold   = 1.00e-08
  Density threshold  = 1.00e-08
  Integral threshold = 0.00e+00

  ==> Primary Basis <==

  Basis Set: AUG-CC-PVTZ
    Blend: AUG-CC-PVTZ
    Number of shells: 114
    Number of basis function: 322
    Number of Cartesian functions: 365
    Spherical Harmonics?: true
    Max angular momentum: 3

   => Loading Basis Set <=

    Name: (AUG-CC-PVTZ AUX)
    Role: JKFIT
    Keyword: DF_BASIS_SCF
    atoms 1, 4, 7        entry C          line   162 file /home/liuchw/anaconda3/envs/psi4env/share/psi4/basis/aug-cc-pvtz-jkfit.gbs 
    atoms 2-3, 5-6, 8-11 entry H          line    70 file /home/liuchw/anaconda3/envs/psi4env/share/psi4/basis/aug-cc-pvtz-jkfit.gbs 

  ==> Pre-Iterations <==

   -------------------------------------------------------
    Irrep   Nso     Nmo     Nalpha   Nbeta   Ndocc  Nsocc
   -------------------------------------------------------
     A        322     322       0       0       0       0
   -------------------------------------------------------
    Total     322     322       5       5       5       0
   -------------------------------------------------------

  ==> Integral Setup <==

  ==> DiskDFJK: Density-Fitted J/K Matrices <==

    J tasked:                  Yes
    K tasked:                  Yes
    wK tasked:                  No
    OpenMP threads:              8
    Integrals threads:           8
    Memory [MiB]:            35762
    Algorithm:                Core
    Integral Cache:           LOAD
    Schwarz Cutoff:          1E-12
    Fitting Condition:       1E-10

   => Auxiliary Basis Set <=

  Basis Set: (AUG-CC-PVTZ AUX)
    Blend: AUG-CC-PVTZ-JKFIT
    Number of shells: 202
    Number of basis function: 680
    Number of Cartesian functions: 833
    Spherical Harmonics?: true
    Max angular momentum: 4

  Minimum eigenvalue in the overlap matrix is 2.5828857358E-06.
  Using Symmetric Orthogonalization.

  SCF Guess: Superposition of Atomic Densities via on-the-fly atomic UHF.

  ==> Iterations <==

                           Total Energy        Delta E     RMS |[F,P]|

   @DF-RHF iter SAD:   -39.63359769451684   -3.96336e+01   0.00000e+00 
   @DF-RHF iter   1:   -40.13700194672005   -5.03404e-01   1.14726e-03 DIIS
   @DF-RHF iter   2:   -40.20138759951761   -6.43857e-02   4.77944e-04 DIIS
   @DF-RHF iter   3:   -40.21293067234910   -1.15431e-02   7.35862e-05 DIIS
   @DF-RHF iter   4:   -40.21367872660771   -7.48054e-04   9.01853e-06 DIIS
   @DF-RHF iter   5:   -40.21368925835264   -1.05317e-05   8.08906e-07 DIIS
   @DF-RHF iter   6:   -40.21368935177600   -9.34234e-08   7.11491e-08 DIIS
   @DF-RHF iter   7:   -40.21368935237288   -5.96877e-10   6.38346e-09 DIIS
  Energy and wave function converged.


  ==> Post-Iterations <==

    Orbital Energies [Eh]
    ---------------------

    Doubly Occupied:                                                      

       1A    -11.205142     2A     -0.944162     3A     -0.545739  
       4A     -0.545708     5A     -0.545432  

    Virtual:                                                              

       6A      0.022923     7A      0.036319     8A      0.037531  
       9A      0.049438    10A      0.055115    11A      0.057308  
      12A      0.076356    13A      0.080228    14A      0.092683  
      15A      0.096772    16A      0.104846    17A      0.115711  
      18A      0.125946    19A      0.129477    20A      0.136945  
      21A      0.139012    22A      0.153937    23A      0.161999  
      24A      0.180518    25A      0.186533    26A      0.214692  
      27A      0.228636    28A      0.231258    29A      0.240779  
      30A      0.260865    31A      0.273184    32A      0.283977  
      33A      0.288068    34A      0.298507    35A      0.306371  
      36A      0.314792    37A      0.320183    38A      0.327637  
      39A      0.329062    40A      0.334692    41A      0.338904  
      42A      0.343117    43A      0.350947    44A      0.356911  
      45A      0.364109    46A      0.383135    47A      0.386987  
      48A      0.392961    49A      0.406762    50A      0.410410  
      51A      0.416160    52A      0.423496    53A      0.436677  
      54A      0.437360    55A      0.453677    56A      0.459567  
      57A      0.469158    58A      0.490597    59A      0.491579  
      60A      0.498684    61A      0.506429    62A      0.517962  
      63A      0.524154    64A      0.543114    65A      0.546900  
      66A      0.550418    67A      0.571056    68A      0.592259  
      69A      0.613111    70A      0.614755    71A      0.622816  
      72A      0.630897    73A      0.635106    74A      0.659468  
      75A      0.684202    76A      0.688331    77A      0.701413  
      78A      0.721516    79A      0.757570    80A      0.767615  
      81A      0.819286    82A      0.820506    83A      0.833850  
      84A      0.844627    85A      0.872427    86A      0.880083  
      87A      0.891823    88A      0.895042    89A      0.906687  
      90A      0.918312    91A      0.942605    92A      0.946396  
      93A      0.970070    94A      0.970892    95A      0.984919  
      96A      0.989580    97A      0.994695    98A      1.006835  
      99A      1.007830   100A      1.010150   101A      1.028470  
     102A      1.029536   103A      1.040339   104A      1.057955  
     105A      1.071851   106A      1.084306   107A      1.089568  
     108A      1.091120   109A      1.106755   110A      1.114126  
     111A      1.116511   112A      1.121088   113A      1.143044  
     114A      1.153546   115A      1.165810   116A      1.181842  
     117A      1.182907   118A      1.190920   119A      1.200870  
     120A      1.209098   121A      1.219273   122A      1.223648  
     123A      1.231985   124A      1.245577   125A      1.255602  
     126A      1.267203   127A      1.272381   128A      1.278361  
     129A      1.314574   130A      1.326683   131A      1.336048  
     132A      1.340731   133A      1.374340   134A      1.401344  
     135A      1.405906   136A      1.411820   137A      1.477004  
     138A      1.493641   139A      1.499997   140A      1.509880  
     141A      1.518048   142A      1.522251   143A      1.556322  
     144A      1.570697   145A      1.585198   146A      1.614789  
     147A      1.618262   148A      1.630167   149A      1.648472  
     150A      1.653346   151A      1.665568   152A      1.686747  
     153A      1.706835   154A      1.715971   155A      1.726235  
     156A      1.768517   157A      1.802084   158A      1.805946  
     159A      1.821578   160A      1.839213   161A      1.869027  
     162A      1.886066   163A      1.900429   164A      1.928519  
     165A      1.950296   166A      1.957606   167A      1.964630  
     168A      1.995028   169A      1.998185   170A      2.049694  
     171A      2.053091   172A      2.081045   173A      2.091729  
     174A      2.137376   175A      2.152380   176A      2.170761  
     177A      2.186729   178A      2.189449   179A      2.197372  
     180A      2.212671   181A      2.235659   182A      2.250206  
     183A      2.290761   184A      2.309159   185A      2.317536  
     186A      2.319934   187A      2.332059   188A      2.369037  
     189A      2.378587   190A      2.412623   191A      2.522068  
     192A      2.561104   193A      2.606735   194A      2.681391  
     195A      2.731551   196A      2.780239   197A      2.819330  
     198A      2.915420   199A      3.158166   200A      3.253593  
     201A      3.283612   202A      3.312503   203A      3.324634  
     204A      3.432617   205A      3.532801   206A      3.589966  
     207A      3.596729   208A      3.605422   209A      3.632361  
     210A      3.647411   211A      3.676080   212A      3.738319  
     213A      3.819610   214A      3.885612   215A      3.912638  
     216A      3.932251   217A      3.949462   218A      3.950647  
     219A      3.977266   220A      4.037463   221A      4.043841  
     222A      4.049266   223A      4.072826   224A      4.078877  
     225A      4.081675   226A      4.097395   227A      4.113472  
     228A      4.114301   229A      4.163529   230A      4.164597  
     231A      4.168456   232A      4.184731   233A      4.186992  
     234A      4.203454   235A      4.208439   236A      4.253148  
     237A      4.255819   238A      4.332398   239A      4.338325  
     240A      4.362989   241A      4.451406   242A      4.497652  
     243A      4.539638   244A      4.568653   245A      4.586901  
     246A      4.598490   247A      4.636871   248A      4.674902  
     249A      4.707051   250A      4.715825   251A      4.732431  
     252A      4.777268   253A      4.829450   254A      4.848841  
     255A      4.864619   256A      4.866907   257A      4.871804  
     258A      4.873211   259A      4.906889   260A      4.917266  
     261A      4.938498   262A      4.954820   263A      4.965897  
     264A      4.984104   265A      5.016442   266A      5.047954  
     267A      5.054435   268A      5.115302   269A      5.156524  
     270A      5.212235   271A      5.220606   272A      5.229852  
     273A      5.371419   274A      5.418695   275A      5.438829  
     276A      5.471736   277A      5.492491   278A      5.520528  
     279A      5.536310   280A      5.551516   281A      5.604306  
     282A      5.657064   283A      5.666180   284A      5.680555  
     285A      5.713624   286A      5.726302   287A      5.744218  
     288A      5.833996   289A      5.835380   290A      5.858012  
     291A      5.879379   292A      5.913837   293A      5.929766  
     294A      6.006089   295A      6.075989   296A      6.106514  
     297A      6.215978   298A      6.246155   299A      6.259947  
     300A      6.266260   301A      6.273949   302A      6.496714  
     303A      6.619398   304A      6.655136   305A      6.684342  
     306A      6.761830   307A      6.999021   308A      7.103560  
     309A      7.168025   310A      7.591867   311A      7.654392  
     312A      7.724226   313A      7.884753   314A      8.111763  
     315A      8.353491   316A      8.386554   317A      8.883503  
     318A     10.615715   319A     10.955796   320A     18.317212  
     321A     51.016088   322A     52.318179  

    Final Occupation by Irrep:
              A 
    DOCC [     5 ]

  @DF-RHF Final Energy:   -40.21368935237288

   => Energetics <=

    Nuclear Repulsion Energy =             13.4894581142527219
    One-Electron Energy =                 -79.8339340750258657
    Two-Electron Energy =                  26.1307866084002569
    Total Energy =                        -40.2136893523728816

Computation Completed


Properties will be evaluated at   0.000000,   0.000000,   0.000000 [a0]

Properties computed using the SCF density matrix

  Nuclear Dipole Moment: [e a0]
     X:   -44.4515      Y:    -0.1524      Z:     0.4925

  Electronic Dipole Moment: [e a0]
     X:    44.4511      Y:     0.1526      Z:    -0.4925

  Dipole Moment: [e a0]
     X:    -0.0003      Y:     0.0002      Z:     0.0000     Total:     0.0004

  Dipole Moment: [D]
     X:    -0.0009      Y:     0.0005      Z:     0.0000     Total:     0.0010


*** tstop() called on node144.bme.utexas.edu at Fri Apr 24 00:59:05 2020
Module time:
	user time   =      29.86 seconds =       0.50 minutes
	system time =       1.37 seconds =       0.02 minutes
	total time  =          5 seconds =       0.08 minutes
Total time:
	user time   =     130.80 seconds =       2.18 minutes
	system time =       5.87 seconds =       0.10 minutes
	total time  =         23 seconds =       0.38 minutes
  Constructing Basis Sets for SAPT...

   => Loading Basis Set <=

    Name: (AUG-CC-PVTZ AUX)
    Role: RIFIT
    Keyword: DF_BASIS_SAPT
    atoms 1, 4, 7        entry C          line   148 file /home/liuchw/anaconda3/envs/psi4env/share/psi4/basis/aug-cc-pvtz-ri.gbs 
    atoms 2-3, 5-6, 8-11 entry H          line    30 file /home/liuchw/anaconda3/envs/psi4env/share/psi4/basis/aug-cc-pvtz-ri.gbs 


  //>>>>>>>>>>>>>>>>>>>>>>>>>>>>>>>>>>>//
  //               SAPT2+              //
  //<<<<<<<<<<<<<<<<<<<<<<<<<<<<<<<<<<<//


*** tstart() called on node144.bme.utexas.edu
*** at Fri Apr 24 00:59:05 2020

        SAPT2+  
    Ed Hohenstein
     6 June 2009

      Orbital Information
  --------------------------
    NSO        =       322
    NMO        =       322
    NRI        =       686
    NOCC A     =         8
    NOCC B     =         5
    FOCC A     =         2
    FOCC B     =         1
    NVIR A     =       314
    NVIR B     =       317

    Estimated memory usage: 705.8 MB

    Natural Orbital Cutoff:   1.000E-06
    Disp(T3) Truncation:            Yes
    CCD (vv|vv) Truncation:         Yes
    MBPT T2 Truncation:             Yes

    Monomer A: 159 virtual orbitals dropped
    Monomer B: 203 virtual orbitals dropped

    Elst10,r            =    -0.000952058068 [Eh]
    Exch10 (S^2)        =     0.002371403365 [Eh]
    Exch10              =     0.002374445386 [Eh]
    Ind20,r (A<-B)      =    -0.000119263579 [Eh]
    Ind20,r (B<-A)      =    -0.000217333986 [Eh]
    Ind20,r             =    -0.000336597565 [Eh]
    Exch-Ind20,r (A<-B) =     0.000103058028 [Eh]
    Exch-Ind20,r (B<-A) =     0.000177099845 [Eh]
    Exch-Ind20,r        =     0.000280157873 [Eh]
    Disp20              =    -0.002954571980 [Eh]
    Disp20 (NO)         =    -0.002634249253 [Eh]
    Exch-Disp20         =     0.000251299452 [Eh]
    Elst12,r            =    -0.000105870560 [Eh]
    Exch11              =     0.000068123801 [Eh]
    Exch12              =     0.000137627650 [Eh]
    Ind22               =    -0.000033724503 [Eh]
    Disp21              =     0.000016569082 [Eh]
    Disp22 (SDQ)        =     0.000225602360 [Eh]

    (i =   1 of   4)         16 seconds
    (i =   2 of   4)         28 seconds
    (i =   3 of   4)         41 seconds
    (i =   4 of   4)         56 seconds

    Disp220 (T)         =    -0.000194146779 [Eh]

    (i =   1 of   6)          5 seconds
    (i =   2 of   6)         10 seconds
    (i =   3 of   6)         16 seconds
    (i =   4 of   6)         22 seconds
    (i =   5 of   6)         28 seconds
    (i =   6 of   6)         34 seconds

    Disp202 (T)         =    -0.000168877221 [Eh]

    Disp22 (T)          =    -0.000363024000 [Eh]

    Est. Disp220 (T)    =    -0.000217754882 [Eh]
    Est. Disp202 (T)    =    -0.000189412564 [Eh]

    Est. Disp22 (T)     =    -0.000407167445 [Eh]

    SAPT Results 
  --------------------------------------------------------------------------------------------------------
    Electrostatics                 -1.05792863 [mEh]      -0.66386024 [kcal/mol]      -2.77759123 [kJ/mol]
      Elst10,r                     -0.95205807 [mEh]      -0.59742546 [kcal/mol]      -2.49962811 [kJ/mol]
      Elst12,r                     -0.10587056 [mEh]      -0.06643478 [kcal/mol]      -0.27796312 [kJ/mol]

    Exchange                        2.58019684 [mEh]       1.61909796 [kcal/mol]       6.77430586 [kJ/mol]
      Exch10                        2.37444539 [mEh]       1.48998697 [kcal/mol]       6.23410550 [kJ/mol]
      Exch10(S^2)                   2.37140336 [mEh]       1.48807808 [kcal/mol]       6.22611868 [kJ/mol]
      Exch11(S^2)                   0.06812380 [mEh]       0.04274833 [kcal/mol]       0.17885902 [kJ/mol]
      Exch12(S^2)                   0.13762765 [mEh]       0.08636265 [kcal/mol]       0.36134135 [kJ/mol]

    Induction                      -0.21304698 [mEh]      -0.13368900 [kcal/mol]      -0.55935478 [kJ/mol]
      Ind20,r                      -0.33659756 [mEh]      -0.21121816 [kcal/mol]      -0.88373678 [kJ/mol]
      Ind22                        -0.03372450 [mEh]      -0.02116245 [kcal/mol]      -0.08854367 [kJ/mol]
      Exch-Ind20,r                  0.28015787 [mEh]       0.17580172 [kcal/mol]       0.73555439 [kJ/mol]
      Exch-Ind22                    0.02806968 [mEh]       0.01761399 [kcal/mol]       0.07369693 [kJ/mol]
      delta HF,r (2)               -0.15095247 [mEh]      -0.09472410 [kcal/mol]      -0.39632565 [kJ/mol]

    Dispersion                     -2.86826853 [mEh]      -1.79986568 [kcal/mol]      -7.53063799 [kJ/mol]
      Disp20                       -2.95457198 [mEh]      -1.85402191 [kcal/mol]      -7.75722766 [kJ/mol]
      Disp21                        0.01656908 [mEh]       0.01039726 [kcal/mol]       0.04350212 [kJ/mol]
      Disp22 (SDQ)                  0.22560236 [mEh]       0.14156762 [kcal/mol]       0.59231891 [kJ/mol]
      Disp22 (T)                   -0.36302400 [mEh]      -0.22780100 [kcal/mol]      -0.95311938 [kJ/mol]
      Est. Disp22 (T)              -0.40716745 [mEh]      -0.25550143 [kcal/mol]      -1.06901798 [kJ/mol]
      Exch-Disp20                   0.25129945 [mEh]       0.15769279 [kcal/mol]       0.65978662 [kJ/mol]

  Total HF                          1.21499516 [mEh]       0.76242097 [kcal/mol]       3.18996935 [kJ/mol]
  Total SAPT0                      -1.48827737 [mEh]      -0.93390815 [kcal/mol]      -3.90747169 [kJ/mol]
  Total SAPT2                      -1.39405130 [mEh]      -0.87478040 [kcal/mol]      -3.66008119 [kJ/mol]
  Total SAPT2+                     -1.55904731 [mEh]      -0.97831695 [kcal/mol]      -4.09327814 [kJ/mol]

  Special recipe for scaled SAPT0 (see Manual):
    Electrostatics sSAPT0          -0.95205807 [mEh]      -0.59742546 [kcal/mol]      -2.49962811 [kJ/mol]
    Exchange sSAPT0                 2.37444539 [mEh]       1.48998697 [kcal/mol]       6.23410550 [kJ/mol]
    Induction sSAPT0               -0.20631262 [mEh]      -0.12946312 [kcal/mol]      -0.54167371 [kJ/mol]
    Dispersion sSAPT0              -2.70230419 [mEh]      -1.69572148 [kcal/mol]      -7.09489868 [kJ/mol]
  Total sSAPT0                     -1.48622949 [mEh]      -0.93262309 [kcal/mol]      -3.90209500 [kJ/mol]
  --------------------------------------------------------------------------------------------------------

*** tstop() called on node144.bme.utexas.edu at Fri Apr 24 01:02:52 2020
Module time:
	user time   =    1457.11 seconds =      24.29 minutes
	system time =      94.92 seconds =       1.58 minutes
	total time  =        227 seconds =       3.78 minutes
Total time:
	user time   =    1588.89 seconds =      26.48 minutes
	system time =     100.87 seconds =       1.68 minutes
	total time  =        250 seconds =       4.17 minutes

    Psi4 stopped on: Friday, 24 April 2020 01:02AM
    Psi4 wall time for execution: 0:04:09.69

*** Psi4 exiting successfully. Buy a developer a beer!
