
    -----------------------------------------------------------------------
          Psi4: An Open-Source Ab Initio Electronic Structure Package
                               Psi4 1.4a2.dev224 

                         Git: Rev {master} e453b16 


    R. M. Parrish, L. A. Burns, D. G. A. Smith, A. C. Simmonett,
    A. E. DePrince III, E. G. Hohenstein, U. Bozkaya, A. Yu. Sokolov,
    R. Di Remigio, R. M. Richard, J. F. Gonthier, A. M. James,
    H. R. McAlexander, A. Kumar, M. Saitow, X. Wang, B. P. Pritchard,
    P. Verma, H. F. Schaefer III, K. Patkowski, R. A. King, E. F. Valeev,
    F. A. Evangelista, J. M. Turney, T. D. Crawford, and C. D. Sherrill,
    J. Chem. Theory Comput. 13(7) pp 3185--3197 (2017).
    (doi: 10.1021/acs.jctc.7b00174)


                         Additional Contributions by
    P. Kraus, H. Kruse, M. H. Lechner, M. C. Schieber, R. A. Shaw,
    A. Alenaizan, R. Galvelis, Z. L. Glick, S. Lehtola, and J. P. Misiewicz

    -----------------------------------------------------------------------


    Psi4 started on: Friday, 24 April 2020 12:54AM

    Process ID: 7067
    Host:       node62.bme.utexas.edu
    PSIDATADIR: /home/liuchw/anaconda3/envs/psi4env/share/psi4
    Memory:     500.0 MiB
    Threads:    8
    
  ==> Input File <==

--------------------------------------------------------------------------
#Generated by lconvert.py for sapt job

memory 50 GB

molecule  {
0 1
  C      -1.635460   -0.589710    0.000260
  C      -1.253730    0.687370   -0.000210
  H      -1.799160   -1.127790   -0.922420
  H      -1.798090   -1.127430    0.923340
  H      -1.091050    1.226750    0.921740
  H      -1.092110    1.226260   -0.922630
--
0 1
  N       2.189290    0.037610   -0.000410
  H       2.572660   -0.432580    0.809050
  H       1.198630   -0.171350   -0.001850
  H       2.576440   -0.438610   -0.804540
units angstrom
no_reorient
symmetry c1
}

set {
scf_type DF
basis aug-cc-pvtz
freeze_core True
guess SAD
}
energy('sapt2+')
--------------------------------------------------------------------------

  Memory set to  46.566 GiB by Python driver.

Scratch directory: /scratch/liuchw/

  //>>>>>>>>>>>>>>>>>>>>>>>>>>>>>>>>>>>//
  //              Dimer HF             //
  //<<<<<<<<<<<<<<<<<<<<<<<<<<<<<<<<<<<//


*** tstart() called on node62.bme.utexas.edu
*** at Fri Apr 24 00:54:41 2020

   => Loading Basis Set <=

    Name: AUG-CC-PVTZ
    Role: ORBITAL
    Keyword: BASIS
    atoms 1-2       entry C          line   239 file /home/liuchw/anaconda3/envs/psi4env/share/psi4/basis/aug-cc-pvtz.gbs 
    atoms 3-6, 8-10 entry H          line    40 file /home/liuchw/anaconda3/envs/psi4env/share/psi4/basis/aug-cc-pvtz.gbs 
    atoms 7         entry N          line   285 file /home/liuchw/anaconda3/envs/psi4env/share/psi4/basis/aug-cc-pvtz.gbs 


         ---------------------------------------------------------
                                   SCF
               by Justin Turney, Rob Parrish, Andy Simmonett
                          and Daniel G. A. Smith
                              RHF Reference
                        8 Threads,  47683 MiB Core
         ---------------------------------------------------------

  ==> Geometry <==

    Molecular point group: c1
    Full point group: C1

    Geometry (in Angstrom), charge = 0, multiplicity = 1:

       Center              X                  Y                   Z               Mass       
    ------------   -----------------  -----------------  -----------------  -----------------
         C           -1.559075288471    -0.608512837504     0.000313935353    12.000000000000
         C           -1.177345288471     0.668567162496    -0.000156064647    12.000000000000
         H           -1.722775288471    -1.146592837504    -0.922366064647     1.007825032230
         H           -1.721705288471    -1.146232837504     0.923393935353     1.007825032230
         H           -1.014665288471     1.207947162496     0.921793935353     1.007825032230
         H           -1.015725288471     1.207457162496    -0.922576064647     1.007825032230
         N            2.265674711529     0.018807162496    -0.000356064647    14.003074004430
         H            2.649044711529    -0.451382837504     0.809103935353     1.007825032230
         H            1.275014711529    -0.190152837504    -0.001796064647     1.007825032230
         H            2.652824711529    -0.457412837504    -0.804486064647     1.007825032230

  Running in c1 symmetry.

  Rotational constants: A =      0.81905  B =      0.11523  C =      0.10710 [cm^-1]
  Rotational constants: A =  24554.62855  B =   3454.37296  C =   3210.85210 [MHz]
  Nuclear repulsion =   68.287749532121950

  Charge       = 0
  Multiplicity = 1
  Electrons    = 26
  Nalpha       = 13
  Nbeta        = 13

  ==> Algorithm <==

  SCF Algorithm Type is DF.
  DIIS enabled.
  MOM disabled.
  Fractional occupation disabled.
  Guess Type is SAD.
  Energy threshold   = 1.00e-08
  Density threshold  = 1.00e-08
  Integral threshold = 0.00e+00

  ==> Primary Basis <==

  Basis Set: AUG-CC-PVTZ
    Blend: AUG-CC-PVTZ
    Number of shells: 105
    Number of basis function: 299
    Number of Cartesian functions: 340
    Spherical Harmonics?: true
    Max angular momentum: 3

   => Loading Basis Set <=

    Name: (AUG-CC-PVTZ AUX)
    Role: JKFIT
    Keyword: DF_BASIS_SCF
    atoms 1-2       entry C          line   162 file /home/liuchw/anaconda3/envs/psi4env/share/psi4/basis/aug-cc-pvtz-jkfit.gbs 
    atoms 3-6, 8-10 entry H          line    70 file /home/liuchw/anaconda3/envs/psi4env/share/psi4/basis/aug-cc-pvtz-jkfit.gbs 
    atoms 7         entry N          line   224 file /home/liuchw/anaconda3/envs/psi4env/share/psi4/basis/aug-cc-pvtz-jkfit.gbs 

  ==> Pre-Iterations <==

   -------------------------------------------------------
    Irrep   Nso     Nmo     Nalpha   Nbeta   Ndocc  Nsocc
   -------------------------------------------------------
     A        299     299       0       0       0       0
   -------------------------------------------------------
    Total     299     299      13      13      13       0
   -------------------------------------------------------

  ==> Integral Setup <==

  ==> DiskDFJK: Density-Fitted J/K Matrices <==

    J tasked:                  Yes
    K tasked:                  Yes
    wK tasked:                  No
    OpenMP threads:              8
    Integrals threads:           8
    Memory [MiB]:            35762
    Algorithm:                Core
    Integral Cache:           SAVE
    Schwarz Cutoff:          1E-12
    Fitting Condition:       1E-10

   => Auxiliary Basis Set <=

  Basis Set: (AUG-CC-PVTZ AUX)
    Blend: AUG-CC-PVTZ-JKFIT
    Number of shells: 188
    Number of basis function: 634
    Number of Cartesian functions: 778
    Spherical Harmonics?: true
    Max angular momentum: 4

  Minimum eigenvalue in the overlap matrix is 4.5021340148E-06.
  Using Symmetric Orthogonalization.

  SCF Guess: Superposition of Atomic Densities via on-the-fly atomic UHF.

  ==> Iterations <==

                           Total Energy        Delta E     RMS |[F,P]|

   @DF-RHF iter SAD:  -132.98114754579049   -1.32981e+02   0.00000e+00 
   @DF-RHF iter   1:  -134.11208237503428   -1.13093e+00   1.96857e-03 DIIS
   @DF-RHF iter   2:  -134.24574255101885   -1.33660e-01   1.01115e-03 DIIS
   @DF-RHF iter   3:  -134.28329870638549   -3.75562e-02   1.27392e-04 DIIS
   @DF-RHF iter   4:  -134.28457746860136   -1.27876e-03   4.32777e-05 DIIS
   @DF-RHF iter   5:  -134.28467836266688   -1.00894e-04   7.26122e-06 DIIS
   @DF-RHF iter   6:  -134.28468374321338   -5.38055e-06   1.44452e-06 DIIS
   @DF-RHF iter   7:  -134.28468398445978   -2.41246e-07   5.43131e-07 DIIS
   @DF-RHF iter   8:  -134.28468401324190   -2.87821e-08   2.03741e-07 DIIS
   @DF-RHF iter   9:  -134.28468401727577   -4.03386e-09   4.31998e-08 DIIS
   @DF-RHF iter  10:  -134.28468401758369   -3.07921e-10   1.12459e-08 DIIS
   @DF-RHF iter  11:  -134.28468401760045   -1.67688e-11   3.72370e-09 DIIS
  Energy and wave function converged.


  ==> Post-Iterations <==

    Orbital Energies [Eh]
    ---------------------

    Doubly Occupied:                                                      

       1A    -15.532039     2A    -11.235915     3A    -11.234196  
       4A     -1.135194     5A     -1.040423     6A     -0.798494  
       7A     -0.649914     8A     -0.620004     9A     -0.619011  
      10A     -0.592525    11A     -0.513204    12A     -0.423494  
      13A     -0.382875  

    Virtual:                                                              

      14A      0.027915    15A      0.039492    16A      0.041762  
      17A      0.044121    18A      0.059841    19A      0.061426  
      20A      0.076669    21A      0.093017    22A      0.103079  
      23A      0.116081    24A      0.121631    25A      0.141889  
      26A      0.144635    27A      0.146773    28A      0.163769  
      29A      0.169790    30A      0.171395    31A      0.173005  
      32A      0.184267    33A      0.213137    34A      0.216709  
      35A      0.226281    36A      0.244524    37A      0.245141  
      38A      0.264129    39A      0.280508    40A      0.301632  
      41A      0.304149    42A      0.311531    43A      0.316979  
      44A      0.323185    45A      0.336690    46A      0.360287  
      47A      0.361709    48A      0.366863    49A      0.373382  
      50A      0.374871    51A      0.387457    52A      0.397534  
      53A      0.400351    54A      0.408860    55A      0.416555  
      56A      0.420763    57A      0.434086    58A      0.434742  
      59A      0.450261    60A      0.453891    61A      0.459491  
      62A      0.459580    63A      0.472087    64A      0.475355  
      65A      0.503879    66A      0.505789    67A      0.514131  
      68A      0.530070    69A      0.533426    70A      0.557612  
      71A      0.591946    72A      0.603987    73A      0.610362  
      74A      0.638616    75A      0.661109    76A      0.678840  
      77A      0.701881    78A      0.703858    79A      0.759250  
      80A      0.781936    81A      0.786247    82A      0.801815  
      83A      0.807488    84A      0.822025    85A      0.832327  
      86A      0.857402    87A      0.857477    88A      0.881660  
      89A      0.891357    90A      0.893317    91A      0.901567  
      92A      0.919868    93A      0.919919    94A      0.930388  
      95A      0.931637    96A      0.939412    97A      0.943816  
      98A      0.964273    99A      0.984864   100A      0.989111  
     101A      0.995375   102A      0.998348   103A      1.013562  
     104A      1.026266   105A      1.028614   106A      1.042416  
     107A      1.052413   108A      1.063041   109A      1.065129  
     110A      1.088542   111A      1.090050   112A      1.113801  
     113A      1.117105   114A      1.133079   115A      1.133399  
     116A      1.140722   117A      1.144288   118A      1.154874  
     119A      1.181198   120A      1.183166   121A      1.190692  
     122A      1.192996   123A      1.223360   124A      1.249825  
     125A      1.251427   126A      1.270096   127A      1.287882  
     128A      1.293007   129A      1.312491   130A      1.344402  
     131A      1.359968   132A      1.382851   133A      1.385635  
     134A      1.423535   135A      1.439208   136A      1.481481  
     137A      1.484440   138A      1.488303   139A      1.528062  
     140A      1.535594   141A      1.570760   142A      1.625147  
     143A      1.637237   144A      1.639201   145A      1.668922  
     146A      1.701797   147A      1.711744   148A      1.736627  
     149A      1.763911   150A      1.772932   151A      1.782401  
     152A      1.785991   153A      1.792832   154A      1.828470  
     155A      1.879435   156A      1.881202   157A      1.896088  
     158A      1.911873   159A      1.930292   160A      1.941231  
     161A      1.953943   162A      1.986584   163A      2.035120  
     164A      2.042983   165A      2.063731   166A      2.079516  
     167A      2.082265   168A      2.103854   169A      2.121966  
     170A      2.142468   171A      2.151932   172A      2.162061  
     173A      2.174035   174A      2.210406   175A      2.221695  
     176A      2.327968   177A      2.329163   178A      2.364764  
     179A      2.388493   180A      2.397532   181A      2.399285  
     182A      2.446840   183A      2.488254   184A      2.521184  
     185A      2.540882   186A      2.604560   187A      2.642803  
     188A      2.756167   189A      3.043581   190A      3.092074  
     191A      3.147993   192A      3.259108   193A      3.311406  
     194A      3.327593   195A      3.374275   196A      3.406152  
     197A      3.430341   198A      3.461868   199A      3.492724  
     200A      3.502323   201A      3.524149   202A      3.560792  
     203A      3.609238   204A      3.616538   205A      3.633236  
     206A      3.669794   207A      3.728147   208A      3.729960  
     209A      3.759091   210A      3.763504   211A      3.829282  
     212A      3.853395   213A      3.871026   214A      3.884795  
     215A      3.918263   216A      4.011228   217A      4.025696  
     218A      4.043468   219A      4.046407   220A      4.093564  
     221A      4.107866   222A      4.112532   223A      4.159882  
     224A      4.165997   225A      4.198183   226A      4.232344  
     227A      4.249859   228A      4.250127   229A      4.294492  
     230A      4.309992   231A      4.316804   232A      4.341603  
     233A      4.350829   234A      4.370085   235A      4.377756  
     236A      4.382702   237A      4.409980   238A      4.460399  
     239A      4.526700   240A      4.534736   241A      4.564657  
     242A      4.571473   243A      4.590996   244A      4.631268  
     245A      4.725187   246A      4.733910   247A      4.746526  
     248A      4.791581   249A      4.794898   250A      4.823345  
     251A      4.843926   252A      4.919240   253A      4.938002  
     254A      4.961935   255A      4.977193   256A      4.987375  
     257A      4.992803   258A      5.001215   259A      5.037691  
     260A      5.072734   261A      5.096987   262A      5.126362  
     263A      5.179684   264A      5.189596   265A      5.259426  
     266A      5.296543   267A      5.297130   268A      5.298054  
     269A      5.351181   270A      5.419451   271A      5.507077  
     272A      5.584216   273A      5.594953   274A      5.622799  
     275A      5.700283   276A      5.743880   277A      5.767676  
     278A      5.829627   279A      5.932897   280A      5.945168  
     281A      6.005203   282A      6.096630   283A      6.118297  
     284A      6.368571   285A      6.384049   286A      6.423143  
     287A      6.486233   288A      6.603592   289A      6.686136  
     290A      6.734862   291A      6.765265   292A      6.981683  
     293A      6.986525   294A      7.006419   295A      7.732703  
     296A      7.735510   297A     17.325171   298A     17.467358  
     299A     17.868777  

    Final Occupation by Irrep:
              A 
    DOCC [    13 ]

  @DF-RHF Final Energy:  -134.28468401760045

   => Energetics <=

    Nuclear Repulsion Energy =             68.2877495321219499
    One-Electron Energy =                -315.5902928793748288
    Two-Electron Energy =                 113.0178593296524241
    Total Energy =                       -134.2846840176004548

Computation Completed


Properties will be evaluated at   0.000000,   0.000000,   0.000000 [a0]

Properties computed using the SCF density matrix

  Nuclear Dipole Moment: [e a0]
     X:     1.0265      Y:    -0.9154      Z:     0.0029

  Electronic Dipole Moment: [e a0]
     X:    -1.2294      Y:     0.3197      Z:    -0.0008

  Dipole Moment: [e a0]
     X:    -0.2029      Y:    -0.5957      Z:     0.0020     Total:     0.6293

  Dipole Moment: [D]
     X:    -0.5157      Y:    -1.5141      Z:     0.0052     Total:     1.5995


*** tstop() called on node62.bme.utexas.edu at Fri Apr 24 00:54:47 2020
Module time:
	user time   =      40.94 seconds =       0.68 minutes
	system time =       2.57 seconds =       0.04 minutes
	total time  =          6 seconds =       0.10 minutes
Total time:
	user time   =      40.94 seconds =       0.68 minutes
	system time =       2.57 seconds =       0.04 minutes
	total time  =          6 seconds =       0.10 minutes

  //>>>>>>>>>>>>>>>>>>>>>>>>>>>>>>>>>>>//
  //            Monomer A HF           //
  //<<<<<<<<<<<<<<<<<<<<<<<<<<<<<<<<<<<//


*** tstart() called on node62.bme.utexas.edu
*** at Fri Apr 24 00:54:47 2020

   => Loading Basis Set <=

    Name: AUG-CC-PVTZ
    Role: ORBITAL
    Keyword: BASIS
    atoms 1-2       entry C          line   239 file /home/liuchw/anaconda3/envs/psi4env/share/psi4/basis/aug-cc-pvtz.gbs 
    atoms 3-6, 8-10 entry H          line    40 file /home/liuchw/anaconda3/envs/psi4env/share/psi4/basis/aug-cc-pvtz.gbs 
    atoms 7         entry N          line   285 file /home/liuchw/anaconda3/envs/psi4env/share/psi4/basis/aug-cc-pvtz.gbs 


         ---------------------------------------------------------
                                   SCF
               by Justin Turney, Rob Parrish, Andy Simmonett
                          and Daniel G. A. Smith
                              RHF Reference
                        8 Threads,  47683 MiB Core
         ---------------------------------------------------------

  ==> Geometry <==

    Molecular point group: c1
    Full point group: C1

    Geometry (in Angstrom), charge = 0, multiplicity = 1:

       Center              X                  Y                   Z               Mass       
    ------------   -----------------  -----------------  -----------------  -----------------
         C           -1.559075288471    -0.608512837504     0.000313935353    12.000000000000
         C           -1.177345288471     0.668567162496    -0.000156064647    12.000000000000
         H           -1.722775288471    -1.146592837504    -0.922366064647     1.007825032230
         H           -1.721705288471    -1.146232837504     0.923393935353     1.007825032230
         H           -1.014665288471     1.207947162496     0.921793935353     1.007825032230
         H           -1.015725288471     1.207457162496    -0.922576064647     1.007825032230
      Gh(N)           2.265674711529     0.018807162496    -0.000356064647    14.003074004430
      Gh(H)           2.649044711529    -0.451382837504     0.809103935353     1.007825032230
      Gh(H)           1.275014711529    -0.190152837504    -0.001796064647     1.007825032230
      Gh(H)           2.652824711529    -0.457412837504    -0.804486064647     1.007825032230

  Running in c1 symmetry.

  Rotational constants: A =      0.81905  B =      0.11523  C =      0.10710 [cm^-1]
  Rotational constants: A =  24554.62855  B =   3454.37296  C =   3210.85210 [MHz]
  Nuclear repulsion =   33.419361642044862

  Charge       = 0
  Multiplicity = 1
  Electrons    = 16
  Nalpha       = 8
  Nbeta        = 8

  ==> Algorithm <==

  SCF Algorithm Type is DF.
  DIIS enabled.
  MOM disabled.
  Fractional occupation disabled.
  Guess Type is SAD.
  Energy threshold   = 1.00e-08
  Density threshold  = 1.00e-08
  Integral threshold = 0.00e+00

  ==> Primary Basis <==

  Basis Set: AUG-CC-PVTZ
    Blend: AUG-CC-PVTZ
    Number of shells: 105
    Number of basis function: 299
    Number of Cartesian functions: 340
    Spherical Harmonics?: true
    Max angular momentum: 3

   => Loading Basis Set <=

    Name: (AUG-CC-PVTZ AUX)
    Role: JKFIT
    Keyword: DF_BASIS_SCF
    atoms 1-2       entry C          line   162 file /home/liuchw/anaconda3/envs/psi4env/share/psi4/basis/aug-cc-pvtz-jkfit.gbs 
    atoms 3-6, 8-10 entry H          line    70 file /home/liuchw/anaconda3/envs/psi4env/share/psi4/basis/aug-cc-pvtz-jkfit.gbs 
    atoms 7         entry N          line   224 file /home/liuchw/anaconda3/envs/psi4env/share/psi4/basis/aug-cc-pvtz-jkfit.gbs 

  ==> Pre-Iterations <==

   -------------------------------------------------------
    Irrep   Nso     Nmo     Nalpha   Nbeta   Ndocc  Nsocc
   -------------------------------------------------------
     A        299     299       0       0       0       0
   -------------------------------------------------------
    Total     299     299       8       8       8       0
   -------------------------------------------------------

  ==> Integral Setup <==

  ==> DiskDFJK: Density-Fitted J/K Matrices <==

    J tasked:                  Yes
    K tasked:                  Yes
    wK tasked:                  No
    OpenMP threads:              8
    Integrals threads:           8
    Memory [MiB]:            35762
    Algorithm:                Core
    Integral Cache:           LOAD
    Schwarz Cutoff:          1E-12
    Fitting Condition:       1E-10

   => Auxiliary Basis Set <=

  Basis Set: (AUG-CC-PVTZ AUX)
    Blend: AUG-CC-PVTZ-JKFIT
    Number of shells: 188
    Number of basis function: 634
    Number of Cartesian functions: 778
    Spherical Harmonics?: true
    Max angular momentum: 4

  Minimum eigenvalue in the overlap matrix is 4.5021340148E-06.
  Using Symmetric Orthogonalization.

  SCF Guess: Superposition of Atomic Densities via on-the-fly atomic UHF.

  ==> Iterations <==

                           Total Energy        Delta E     RMS |[F,P]|

   @DF-RHF iter SAD:   -77.26987335378406   -7.72699e+01   0.00000e+00 
   @DF-RHF iter   1:   -77.98506226602137   -7.15189e-01   1.24225e-03 DIIS
   @DF-RHF iter   2:   -78.05252874125887   -6.74665e-02   5.08789e-04 DIIS
   @DF-RHF iter   3:   -78.06420785064380   -1.16791e-02   7.69380e-05 DIIS
   @DF-RHF iter   4:   -78.06477314425062   -5.65294e-04   7.67744e-06 DIIS
   @DF-RHF iter   5:   -78.06477948768382   -6.34343e-06   9.20146e-07 DIIS
   @DF-RHF iter   6:   -78.06477958853263   -1.00849e-07   1.12691e-07 DIIS
   @DF-RHF iter   7:   -78.06477958980717   -1.27454e-09   2.50006e-08 DIIS
   @DF-RHF iter   8:   -78.06477958985650   -4.93259e-11   1.12979e-08 DIIS
   @DF-RHF iter   9:   -78.06477958986372   -7.21911e-12   1.48180e-09 DIIS
  Energy and wave function converged.


  ==> Post-Iterations <==

    Orbital Energies [Eh]
    ---------------------

    Doubly Occupied:                                                      

       1A    -11.231303     2A    -11.229584     3A     -1.034590  
       4A     -0.793724     5A     -0.644828     6A     -0.587947  
       7A     -0.508660     8A     -0.377085  

    Virtual:                                                              

       9A      0.026905    10A      0.040135    11A      0.040316  
      12A      0.043380    13A      0.059705    14A      0.062167  
      15A      0.075370    16A      0.086686    17A      0.103008  
      18A      0.111828    19A      0.119906    20A      0.130200  
      21A      0.134820    22A      0.140722    23A      0.155525  
      24A      0.159156    25A      0.169469    26A      0.173604  
      27A      0.182741    28A      0.192889    29A      0.228768  
      30A      0.233891    31A      0.255716    32A      0.256778  
      33A      0.270266    34A      0.286217    35A      0.304106  
      36A      0.307720    37A      0.316624    38A      0.318925  
      39A      0.319068    40A      0.330208    41A      0.341447  
      42A      0.348291    43A      0.357899    44A      0.362964  
      45A      0.374750    46A      0.378590    47A      0.389186  
      48A      0.398108    49A      0.406247    50A      0.409232  
      51A      0.413475    52A      0.421049    53A      0.433094  
      54A      0.443359    55A      0.447824    56A      0.451224  
      57A      0.460800    58A      0.464024    59A      0.478530  
      60A      0.504515    61A      0.509130    62A      0.530037  
      63A      0.551236    64A      0.571934    65A      0.579574  
      66A      0.590550    67A      0.618423    68A      0.633693  
      69A      0.672316    70A      0.691386    71A      0.704575  
      72A      0.705547    73A      0.719049    74A      0.731201  
      75A      0.737292    76A      0.787829    77A      0.789351  
      78A      0.807635    79A      0.812130    80A      0.824261  
      81A      0.828227    82A      0.831586    83A      0.861993  
      84A      0.887891    85A      0.909822    86A      0.910861  
      87A      0.914144    88A      0.916391    89A      0.927302  
      90A      0.937714    91A      0.945896    92A      0.954419  
      93A      0.971093    94A      0.999768    95A      1.010985  
      96A      1.014564    97A      1.019509    98A      1.024202  
      99A      1.035208   100A      1.037899   101A      1.063237  
     102A      1.072753   103A      1.082496   104A      1.094429  
     105A      1.106428   106A      1.116964   107A      1.119941  
     108A      1.121785   109A      1.147876   110A      1.154571  
     111A      1.155144   112A      1.170147   113A      1.183397  
     114A      1.189146   115A      1.206588   116A      1.207913  
     117A      1.253785   118A      1.259308   119A      1.278360  
     120A      1.293051   121A      1.303590   122A      1.312627  
     123A      1.345474   124A      1.349555   125A      1.365774  
     126A      1.376324   127A      1.407956   128A      1.433287  
     129A      1.454610   130A      1.468227   131A      1.471528  
     132A      1.521471   133A      1.559977   134A      1.572331  
     135A      1.580037   136A      1.614103   137A      1.621666  
     138A      1.636452   139A      1.641237   140A      1.651428  
     141A      1.672796   142A      1.693055   143A      1.700218  
     144A      1.710242   145A      1.739585   146A      1.764720  
     147A      1.778409   148A      1.789880   149A      1.801728  
     150A      1.827807   151A      1.840556   152A      1.894296  
     153A      1.921408   154A      1.937158   155A      1.966554  
     156A      1.977612   157A      1.986268   158A      2.029114  
     159A      2.065522   160A      2.069021   161A      2.084235  
     162A      2.101425   163A      2.114349   164A      2.119635  
     165A      2.170212   166A      2.172075   167A      2.174254  
     168A      2.221262   169A      2.248859   170A      2.253551  
     171A      2.302267   172A      2.335998   173A      2.354325  
     174A      2.413000   175A      2.437528   176A      2.512134  
     177A      2.645339   178A      2.679078   179A      2.732515  
     180A      2.743543   181A      2.798335   182A      2.846431  
     183A      2.896288   184A      2.937428   185A      3.040939  
     186A      3.081770   187A      3.103416   188A      3.155977  
     189A      3.212791   190A      3.263288   191A      3.306300  
     192A      3.331857   193A      3.341258   194A      3.401467  
     195A      3.421462   196A      3.438074   197A      3.502629  
     198A      3.525217   199A      3.550226   200A      3.598180  
     201A      3.622969   202A      3.661312   203A      3.725322  
     204A      3.732933   205A      3.762481   206A      3.770524  
     207A      3.845292   208A      3.859779   209A      3.886778  
     210A      3.908643   211A      3.945261   212A      4.019790  
     213A      4.035935   214A      4.100854   215A      4.113451  
     216A      4.118000   217A      4.234290   218A      4.236982  
     219A      4.297925   220A      4.336779   221A      4.365296  
     222A      4.369386   223A      4.394179   224A      4.401847  
     225A      4.446353   226A      4.458930   227A      4.532688  
     228A      4.540234   229A      4.566182   230A      4.579492  
     231A      4.586962   232A      4.597754   233A      4.635990  
     234A      4.677890   235A      4.723105   236A      4.724437  
     237A      4.797595   238A      4.844260   239A      4.880030  
     240A      4.882067   241A      4.921462   242A      4.925243  
     243A      4.970141   244A      4.979662   245A      4.986913  
     246A      4.989037   247A      4.999810   248A      5.015897  
     249A      5.039752   250A      5.074059   251A      5.113307  
     252A      5.183314   253A      5.262959   254A      5.291646  
     255A      5.301745   256A      5.303064   257A      5.354582  
     258A      5.365193   259A      5.411303   260A      5.416575  
     261A      5.492648   262A      5.508673   263A      5.518696  
     264A      5.564124   265A      5.588875   266A      5.601562  
     267A      5.626744   268A      5.702640   269A      5.762052  
     270A      5.787682   271A      6.004973   272A      6.008755  
     273A      6.120487   274A      6.264040   275A      6.305883  
     276A      6.383944   277A      6.496323   278A      6.606310  
     279A      6.691932   280A      6.772560   281A      6.915121  
     282A      6.938285   283A      6.991174   284A      7.185626  
     285A      7.485240   286A      7.662354   287A      7.685414  
     288A      7.873582   289A      7.905658   290A      8.028117  
     291A      9.278983   292A      9.279574   293A      9.736556  
     294A     10.910490   295A     11.024175   296A     12.188883  
     297A     17.337913   298A     17.514032   299A     60.257462  

    Final Occupation by Irrep:
              A 
    DOCC [     8 ]

  @DF-RHF Final Energy:   -78.06477958986372

   => Energetics <=

    Nuclear Repulsion Energy =             33.4193616420448620
    One-Electron Energy =                -170.1528392522003230
    Two-Electron Energy =                  58.6686980202917496
    Total Energy =                        -78.0647795898637185

Computation Completed


Properties will be evaluated at   0.000000,   0.000000,   0.000000 [a0]

Properties computed using the SCF density matrix

  Nuclear Dipole Moment: [e a0]
     X:   -41.3725      Y:     0.9126      Z:     0.0023

  Electronic Dipole Moment: [e a0]
     X:    41.3719      Y:    -0.9122      Z:    -0.0023

  Dipole Moment: [e a0]
     X:    -0.0006      Y:     0.0004      Z:    -0.0000     Total:     0.0008

  Dipole Moment: [D]
     X:    -0.0016      Y:     0.0010      Z:    -0.0000     Total:     0.0019


*** tstop() called on node62.bme.utexas.edu at Fri Apr 24 00:54:50 2020
Module time:
	user time   =      16.97 seconds =       0.28 minutes
	system time =       0.70 seconds =       0.01 minutes
	total time  =          3 seconds =       0.05 minutes
Total time:
	user time   =      57.95 seconds =       0.97 minutes
	system time =       3.27 seconds =       0.05 minutes
	total time  =          9 seconds =       0.15 minutes

  //>>>>>>>>>>>>>>>>>>>>>>>>>>>>>>>>>>>//
  //            Monomer B HF           //
  //<<<<<<<<<<<<<<<<<<<<<<<<<<<<<<<<<<<//


*** tstart() called on node62.bme.utexas.edu
*** at Fri Apr 24 00:54:50 2020

   => Loading Basis Set <=

    Name: AUG-CC-PVTZ
    Role: ORBITAL
    Keyword: BASIS
    atoms 1-2       entry C          line   239 file /home/liuchw/anaconda3/envs/psi4env/share/psi4/basis/aug-cc-pvtz.gbs 
    atoms 3-6, 8-10 entry H          line    40 file /home/liuchw/anaconda3/envs/psi4env/share/psi4/basis/aug-cc-pvtz.gbs 
    atoms 7         entry N          line   285 file /home/liuchw/anaconda3/envs/psi4env/share/psi4/basis/aug-cc-pvtz.gbs 


         ---------------------------------------------------------
                                   SCF
               by Justin Turney, Rob Parrish, Andy Simmonett
                          and Daniel G. A. Smith
                              RHF Reference
                        8 Threads,  47683 MiB Core
         ---------------------------------------------------------

  ==> Geometry <==

    Molecular point group: c1
    Full point group: C1

    Geometry (in Angstrom), charge = 0, multiplicity = 1:

       Center              X                  Y                   Z               Mass       
    ------------   -----------------  -----------------  -----------------  -----------------
      Gh(C)          -1.559075288471    -0.608512837504     0.000313935353    12.000000000000
      Gh(C)          -1.177345288471     0.668567162496    -0.000156064647    12.000000000000
      Gh(H)          -1.722775288471    -1.146592837504    -0.922366064647     1.007825032230
      Gh(H)          -1.721705288471    -1.146232837504     0.923393935353     1.007825032230
      Gh(H)          -1.014665288471     1.207947162496     0.921793935353     1.007825032230
      Gh(H)          -1.015725288471     1.207457162496    -0.922576064647     1.007825032230
         N            2.265674711529     0.018807162496    -0.000356064647    14.003074004430
         H            2.649044711529    -0.451382837504     0.809103935353     1.007825032230
         H            1.275014711529    -0.190152837504    -0.001796064647     1.007825032230
         H            2.652824711529    -0.457412837504    -0.804486064647     1.007825032230

  Running in c1 symmetry.

  Rotational constants: A =      0.81905  B =      0.11523  C =      0.10710 [cm^-1]
  Rotational constants: A =  24554.62855  B =   3454.37296  C =   3210.85210 [MHz]
  Nuclear repulsion =   11.964917232501051

  Charge       = 0
  Multiplicity = 1
  Electrons    = 10
  Nalpha       = 5
  Nbeta        = 5

  ==> Algorithm <==

  SCF Algorithm Type is DF.
  DIIS enabled.
  MOM disabled.
  Fractional occupation disabled.
  Guess Type is SAD.
  Energy threshold   = 1.00e-08
  Density threshold  = 1.00e-08
  Integral threshold = 0.00e+00

  ==> Primary Basis <==

  Basis Set: AUG-CC-PVTZ
    Blend: AUG-CC-PVTZ
    Number of shells: 105
    Number of basis function: 299
    Number of Cartesian functions: 340
    Spherical Harmonics?: true
    Max angular momentum: 3

   => Loading Basis Set <=

    Name: (AUG-CC-PVTZ AUX)
    Role: JKFIT
    Keyword: DF_BASIS_SCF
    atoms 1-2       entry C          line   162 file /home/liuchw/anaconda3/envs/psi4env/share/psi4/basis/aug-cc-pvtz-jkfit.gbs 
    atoms 3-6, 8-10 entry H          line    70 file /home/liuchw/anaconda3/envs/psi4env/share/psi4/basis/aug-cc-pvtz-jkfit.gbs 
    atoms 7         entry N          line   224 file /home/liuchw/anaconda3/envs/psi4env/share/psi4/basis/aug-cc-pvtz-jkfit.gbs 

  ==> Pre-Iterations <==

   -------------------------------------------------------
    Irrep   Nso     Nmo     Nalpha   Nbeta   Ndocc  Nsocc
   -------------------------------------------------------
     A        299     299       0       0       0       0
   -------------------------------------------------------
    Total     299     299       5       5       5       0
   -------------------------------------------------------

  ==> Integral Setup <==

  ==> DiskDFJK: Density-Fitted J/K Matrices <==

    J tasked:                  Yes
    K tasked:                  Yes
    wK tasked:                  No
    OpenMP threads:              8
    Integrals threads:           8
    Memory [MiB]:            35762
    Algorithm:                Core
    Integral Cache:           LOAD
    Schwarz Cutoff:          1E-12
    Fitting Condition:       1E-10

   => Auxiliary Basis Set <=

  Basis Set: (AUG-CC-PVTZ AUX)
    Blend: AUG-CC-PVTZ-JKFIT
    Number of shells: 188
    Number of basis function: 634
    Number of Cartesian functions: 778
    Spherical Harmonics?: true
    Max angular momentum: 4

  Minimum eigenvalue in the overlap matrix is 4.5021340148E-06.
  Using Symmetric Orthogonalization.

  SCF Guess: Superposition of Atomic Densities via on-the-fly atomic UHF.

  ==> Iterations <==

                           Total Energy        Delta E     RMS |[F,P]|

   @DF-RHF iter SAD:   -55.64538903054837   -5.56454e+01   0.00000e+00 
   @DF-RHF iter   1:   -56.12247067901458   -4.77082e-01   1.56033e-03 DIIS
   @DF-RHF iter   2:   -56.19139916162514   -6.89285e-02   9.04093e-04 DIIS
   @DF-RHF iter   3:   -56.21959424701620   -2.81951e-02   8.18085e-05 DIIS
   @DF-RHF iter   4:   -56.22022864256598   -6.34396e-04   1.52877e-05 DIIS
   @DF-RHF iter   5:   -56.22024976773621   -2.11252e-05   2.82084e-06 DIIS
   @DF-RHF iter   6:   -56.22025095352633   -1.18579e-06   6.65907e-07 DIIS
   @DF-RHF iter   7:   -56.22025102223454   -6.87082e-08   1.34790e-07 DIIS
   @DF-RHF iter   8:   -56.22025102515587   -2.92133e-09   2.06459e-08 DIIS
   @DF-RHF iter   9:   -56.22025102521805   -6.21796e-11   5.03486e-09 DIIS
  Energy and wave function converged.


  ==> Post-Iterations <==

    Orbital Energies [Eh]
    ---------------------

    Doubly Occupied:                                                      

       1A    -15.542207     2A     -1.144028     3A     -0.627927  
       4A     -0.627489     5A     -0.431792  

    Virtual:                                                              

       6A      0.019898     7A      0.038406     8A      0.038655  
       9A      0.041153    10A      0.059397    11A      0.061607  
      12A      0.070034    13A      0.092806    14A      0.103997  
      15A      0.105630    16A      0.115079    17A      0.119204  
      18A      0.126022    19A      0.145091    20A      0.156859  
      21A      0.165378    22A      0.170790    23A      0.173234  
      24A      0.196469    25A      0.219828    26A      0.230119  
      27A      0.230750    28A      0.251979    29A      0.267466  
      30A      0.268720    31A      0.283799    32A      0.295894  
      33A      0.299806    34A      0.303857    35A      0.310708  
      36A      0.316000    37A      0.333101    38A      0.333719  
      39A      0.348814    40A      0.353450    41A      0.366982  
      42A      0.376229    43A      0.376739    44A      0.388148  
      45A      0.391996    46A      0.398987    47A      0.416417  
      48A      0.431017    49A      0.434102    50A      0.444132  
      51A      0.453148    52A      0.456632    53A      0.467420  
      54A      0.477359    55A      0.504974    56A      0.513238  
      57A      0.515498    58A      0.533421    59A      0.546727  
      60A      0.558960    61A      0.589120    62A      0.592764  
      63A      0.601770    64A      0.617883    65A      0.622301  
      66A      0.635304    67A      0.651264    68A      0.656922  
      69A      0.661722    70A      0.670806    71A      0.684706  
      72A      0.701614    73A      0.741246    74A      0.764007  
      75A      0.800427    76A      0.813310    77A      0.845075  
      78A      0.853875    79A      0.886965    80A      0.895202  
      81A      0.912776    82A      0.932565    83A      0.934015  
      84A      0.947037    85A      0.970185    86A      0.980598  
      87A      0.985257    88A      0.986281    89A      0.991684  
      90A      1.004374    91A      1.017946    92A      1.033706  
      93A      1.040873    94A      1.064175    95A      1.075323  
      96A      1.080327    97A      1.090340    98A      1.101221  
      99A      1.103301   100A      1.111821   101A      1.112745  
     102A      1.118778   103A      1.145583   104A      1.145860  
     105A      1.154026   106A      1.159060   107A      1.170343  
     108A      1.194596   109A      1.201472   110A      1.212042  
     111A      1.212592   112A      1.224711   113A      1.248684  
     114A      1.254440   115A      1.265537   116A      1.293216  
     117A      1.298149   118A      1.301565   119A      1.327083  
     120A      1.354883   121A      1.359169   122A      1.375379  
     123A      1.384651   124A      1.395171   125A      1.396030  
     126A      1.433223   127A      1.458271   128A      1.470312  
     129A      1.479275   130A      1.502645   131A      1.519009  
     132A      1.526208   133A      1.537883   134A      1.583248  
     135A      1.592332   136A      1.622852   137A      1.623709  
     138A      1.717272   139A      1.738843   140A      1.753448  
     141A      1.767245   142A      1.781968   143A      1.814673  
     144A      1.828967   145A      1.848846   146A      1.884796  
     147A      1.894999   148A      1.911154   149A      1.944808  
     150A      1.955448   151A      2.009387   152A      2.045241  
     153A      2.047486   154A      2.050891   155A      2.096942  
     156A      2.108840   157A      2.122398   158A      2.148061  
     159A      2.161652   160A      2.188368   161A      2.198257  
     162A      2.207172   163A      2.224708   164A      2.249088  
     165A      2.282927   166A      2.298907   167A      2.312593  
     168A      2.334829   169A      2.348345   170A      2.364093  
     171A      2.398231   172A      2.405786   173A      2.429348  
     174A      2.438359   175A      2.454542   176A      2.499675  
     177A      2.529344   178A      2.581446   179A      2.618960  
     180A      2.659917   181A      2.703387   182A      2.704151  
     183A      2.780004   184A      2.843905   185A      3.251172  
     186A      3.285520   187A      3.488243   188A      3.605258  
     189A      3.606816   190A      3.790303   191A      3.870607  
     192A      3.972791   193A      3.982399   194A      4.006731  
     195A      4.030899   196A      4.062993   197A      4.064691  
     198A      4.100132   199A      4.122693   200A      4.144051  
     201A      4.152992   202A      4.161948   203A      4.185015  
     204A      4.193919   205A      4.209814   206A      4.232873  
     207A      4.237691   208A      4.273508   209A      4.285966  
     210A      4.288433   211A      4.303936   212A      4.306333  
     213A      4.343212   214A      4.348495   215A      4.385307  
     216A      4.418585   217A      4.425750   218A      4.440363  
     219A      4.476901   220A      4.480572   221A      4.541447  
     222A      4.564875   223A      4.571702   224A      4.597248  
     225A      4.647478   226A      4.651132   227A      4.711543  
     228A      4.743889   229A      4.775162   230A      4.785238  
     231A      4.816246   232A      4.850011   233A      4.905858  
     234A      4.921360   235A      4.922170   236A      4.947775  
     237A      4.960448   238A      4.967757   239A      4.997424  
     240A      5.018726   241A      5.018968   242A      5.054971  
     243A      5.086267   244A      5.126333   245A      5.175968  
     246A      5.182745   247A      5.200555   248A      5.353556  
     249A      5.379057   250A      5.408348   251A      5.430614  
     252A      5.448456   253A      5.487391   254A      5.528030  
     255A      5.571004   256A      5.620291   257A      5.647672  
     258A      5.663782   259A      5.726755   260A      5.736667  
     261A      5.761224   262A      5.797981   263A      5.804361  
     264A      5.873931   265A      5.916164   266A      5.925797  
     267A      5.980148   268A      6.005595   269A      6.073218  
     270A      6.082131   271A      6.102136   272A      6.207597  
     273A      6.244060   274A      6.360321   275A      6.376711  
     276A      6.415764   277A      6.579443   278A      6.609358  
     279A      6.728119   280A      6.956878   281A      6.966909  
     282A      6.983399   283A      7.115787   284A      7.139990  
     285A      7.557806   286A      7.614781   287A      7.685133  
     288A      7.725923   289A      7.726835   290A      7.882004  
     291A      8.051562   292A      8.304596   293A      8.382569  
     294A      8.883224   295A     10.580183   296A     10.910368  
     297A     17.813223   298A     51.385821   299A     51.984752  

    Final Occupation by Irrep:
              A 
    DOCC [     5 ]

  @DF-RHF Final Energy:   -56.22025102521805

   => Energetics <=

    Nuclear Repulsion Energy =             11.9649172325010511
    One-Electron Energy =                 -99.6234474816882170
    Two-Electron Energy =                  31.4382792239691184
    Total Energy =                        -56.2202510252180474

Computation Completed


Properties will be evaluated at   0.000000,   0.000000,   0.000000 [a0]

Properties computed using the SCF density matrix

  Nuclear Dipole Moment: [e a0]
     X:    42.3990      Y:    -1.8279      Z:     0.0006

  Electronic Dipole Moment: [e a0]
     X:   -42.5213      Y:     1.1888      Z:     0.0015

  Dipole Moment: [e a0]
     X:    -0.1222      Y:    -0.6391      Z:     0.0021     Total:     0.6507

  Dipole Moment: [D]
     X:    -0.3106      Y:    -1.6245      Z:     0.0054     Total:     1.6540


*** tstop() called on node62.bme.utexas.edu at Fri Apr 24 00:54:53 2020
Module time:
	user time   =      16.67 seconds =       0.28 minutes
	system time =       0.72 seconds =       0.01 minutes
	total time  =          3 seconds =       0.05 minutes
Total time:
	user time   =      74.68 seconds =       1.24 minutes
	system time =       4.00 seconds =       0.07 minutes
	total time  =         12 seconds =       0.20 minutes
  Constructing Basis Sets for SAPT...

   => Loading Basis Set <=

    Name: (AUG-CC-PVTZ AUX)
    Role: RIFIT
    Keyword: DF_BASIS_SAPT
    atoms 1-2       entry C          line   148 file /home/liuchw/anaconda3/envs/psi4env/share/psi4/basis/aug-cc-pvtz-ri.gbs 
    atoms 3-6, 8-10 entry H          line    30 file /home/liuchw/anaconda3/envs/psi4env/share/psi4/basis/aug-cc-pvtz-ri.gbs 
    atoms 7         entry N          line   206 file /home/liuchw/anaconda3/envs/psi4env/share/psi4/basis/aug-cc-pvtz-ri.gbs 


  //>>>>>>>>>>>>>>>>>>>>>>>>>>>>>>>>>>>//
  //               SAPT2+              //
  //<<<<<<<<<<<<<<<<<<<<<<<<<<<<<<<<<<<//


*** tstart() called on node62.bme.utexas.edu
*** at Fri Apr 24 00:54:53 2020

        SAPT2+  
    Ed Hohenstein
     6 June 2009

      Orbital Information
  --------------------------
    NSO        =       299
    NMO        =       299
    NRI        =       640
    NOCC A     =         8
    NOCC B     =         5
    FOCC A     =         2
    FOCC B     =         1
    NVIR A     =       291
    NVIR B     =       294

    Estimated memory usage: 575.3 MB

    Natural Orbital Cutoff:   1.000E-06
    Disp(T3) Truncation:            Yes
    CCD (vv|vv) Truncation:         Yes
    MBPT T2 Truncation:             Yes

    Monomer A: 135 virtual orbitals dropped
    Monomer B: 198 virtual orbitals dropped

    Elst10,r            =    -0.003569337878 [Eh]
    Exch10 (S^2)        =     0.004873052275 [Eh]
    Exch10              =     0.004895277459 [Eh]
    Ind20,r (A<-B)      =    -0.001446066111 [Eh]
    Ind20,r (B<-A)      =    -0.000274176315 [Eh]
    Ind20,r             =    -0.001720242426 [Eh]
    Exch-Ind20,r (A<-B) =     0.001073240371 [Eh]
    Exch-Ind20,r (B<-A) =     0.000187690681 [Eh]
    Exch-Ind20,r        =     0.001260931052 [Eh]
    Disp20              =    -0.003307571760 [Eh]
    Disp20 (NO)         =    -0.002846721850 [Eh]
    Exch-Disp20         =     0.000479393437 [Eh]
    Elst12,r            =     0.000371379862 [Eh]
    Exch11              =     0.000228575111 [Eh]
    Exch12              =    -0.000268009047 [Eh]
    Ind22               =     0.000075963062 [Eh]
    Disp21              =     0.000134018984 [Eh]
    Disp22 (SDQ)        =     0.000342532336 [Eh]

    (i =   1 of   4)          2 seconds
    (i =   2 of   4)          5 seconds
    (i =   3 of   4)          7 seconds
    (i =   4 of   4)          9 seconds

    Disp220 (T)         =    -0.000213306392 [Eh]

    (i =   1 of   6)          1 seconds
    (i =   2 of   6)          2 seconds
    (i =   3 of   6)          3 seconds
    (i =   4 of   6)          3 seconds
    (i =   5 of   6)          4 seconds
    (i =   6 of   6)          5 seconds

    Disp202 (T)         =    -0.000238464586 [Eh]

    Disp22 (T)          =    -0.000451770978 [Eh]

    Est. Disp220 (T)    =    -0.000247838123 [Eh]
    Est. Disp202 (T)    =    -0.000277069125 [Eh]

    Est. Disp22 (T)     =    -0.000524907247 [Eh]

    SAPT Results 
  --------------------------------------------------------------------------------------------------------
    Electrostatics                 -3.19795802 [mEh]      -2.00674895 [kcal/mol]      -8.39623761 [kJ/mol]
      Elst10,r                     -3.56933788 [mEh]      -2.23979333 [kcal/mol]      -9.37129531 [kJ/mol]
      Elst12,r                      0.37137986 [mEh]       0.23304438 [kcal/mol]       0.97505769 [kJ/mol]

    Exchange                        4.85584352 [mEh]       3.04708781 [kcal/mol]      12.74901541 [kJ/mol]
      Exch10                        4.89527746 [mEh]       3.07183298 [kcal/mol]      12.85254920 [kJ/mol]
      Exch10(S^2)                   4.87305228 [mEh]       3.05788647 [kcal/mol]      12.79419699 [kJ/mol]
      Exch11(S^2)                   0.22857511 [mEh]       0.14343305 [kcal/mol]       0.60012387 [kJ/mol]
      Exch12(S^2)                  -0.26800905 [mEh]      -0.16817822 [kcal/mol]      -0.70365766 [kJ/mol]

    Induction                      -0.95905967 [mEh]      -0.60181903 [kcal/mol]      -2.51801081 [kJ/mol]
      Ind20,r                      -1.72024243 [mEh]      -1.07946842 [kcal/mol]      -4.51649587 [kJ/mol]
      Ind22                         0.07596306 [mEh]       0.04766754 [kcal/mol]       0.19944099 [kJ/mol]
      Exch-Ind20,r                  1.26093105 [mEh]       0.79124618 [kcal/mol]       3.31057402 [kJ/mol]
      Exch-Ind22                   -0.05568063 [mEh]      -0.03494012 [kcal/mol]      -0.14618948 [kJ/mol]
      delta HF,r (2)               -0.52003073 [mEh]      -0.32632421 [kcal/mol]      -1.36534048 [kJ/mol]

    Dispersion                     -2.87653425 [mEh]      -1.80505249 [kcal/mol]      -7.55233963 [kJ/mol]
      Disp20                       -3.30757176 [mEh]      -2.07553261 [kcal/mol]      -8.68402846 [kJ/mol]
      Disp21                        0.13401898 [mEh]       0.08409818 [kcal/mol]       0.35186680 [kJ/mol]
      Disp22 (SDQ)                  0.34253234 [mEh]       0.21494229 [kcal/mol]       0.89931852 [kJ/mol]
      Disp22 (T)                   -0.45177098 [mEh]      -0.28349057 [kcal/mol]      -1.18612454 [kJ/mol]
      Est. Disp22 (T)              -0.52490725 [mEh]      -0.32938427 [kcal/mol]      -1.37814379 [kJ/mol]
      Exch-Disp20                   0.47939344 [mEh]       0.30082392 [kcal/mol]       1.25864730 [kJ/mol]

  Total HF                          0.34659748 [mEh]       0.21749320 [kcal/mol]       0.90999156 [kJ/mol]
  Total SAPT0                      -2.48158084 [mEh]      -1.55721549 [kcal/mol]      -6.51538960 [kJ/mol]
  Total SAPT2                      -2.12935248 [mEh]      -1.33618886 [kcal/mol]      -5.59061418 [kJ/mol]
  Total SAPT2+                     -2.17770841 [mEh]      -1.36653266 [kcal/mol]      -5.71757265 [kJ/mol]

  Special recipe for scaled SAPT0 (see Manual):
    Electrostatics sSAPT0          -3.56933788 [mEh]      -2.23979333 [kcal/mol]      -9.37129531 [kJ/mol]
    Exchange sSAPT0                 4.89527746 [mEh]       3.07183298 [kcal/mol]      12.85254920 [kJ/mol]
    Induction sSAPT0               -0.96201060 [mEh]      -0.60367077 [kcal/mol]      -2.52575848 [kJ/mol]
    Dispersion sSAPT0              -2.82158906 [mEh]      -1.77057387 [kcal/mol]      -7.40808105 [kJ/mol]
  Total sSAPT0                     -2.45766008 [mEh]      -1.54220498 [kcal/mol]      -6.45258565 [kJ/mol]
  --------------------------------------------------------------------------------------------------------

*** tstop() called on node62.bme.utexas.edu at Fri Apr 24 00:55:51 2020
Module time:
	user time   =     378.76 seconds =       6.31 minutes
	system time =      28.41 seconds =       0.47 minutes
	total time  =         58 seconds =       0.97 minutes
Total time:
	user time   =     454.22 seconds =       7.57 minutes
	system time =      32.46 seconds =       0.54 minutes
	total time  =         70 seconds =       1.17 minutes

    Psi4 stopped on: Friday, 24 April 2020 12:55AM
    Psi4 wall time for execution: 0:01:10.37

*** Psi4 exiting successfully. Buy a developer a beer!
