
    -----------------------------------------------------------------------
          Psi4: An Open-Source Ab Initio Electronic Structure Package
                               Psi4 1.4a2.dev224 

                         Git: Rev {master} e453b16 


    R. M. Parrish, L. A. Burns, D. G. A. Smith, A. C. Simmonett,
    A. E. DePrince III, E. G. Hohenstein, U. Bozkaya, A. Yu. Sokolov,
    R. Di Remigio, R. M. Richard, J. F. Gonthier, A. M. James,
    H. R. McAlexander, A. Kumar, M. Saitow, X. Wang, B. P. Pritchard,
    P. Verma, H. F. Schaefer III, K. Patkowski, R. A. King, E. F. Valeev,
    F. A. Evangelista, J. M. Turney, T. D. Crawford, and C. D. Sherrill,
    J. Chem. Theory Comput. 13(7) pp 3185--3197 (2017).
    (doi: 10.1021/acs.jctc.7b00174)


                         Additional Contributions by
    P. Kraus, H. Kruse, M. H. Lechner, M. C. Schieber, R. A. Shaw,
    A. Alenaizan, R. Galvelis, Z. L. Glick, S. Lehtola, and J. P. Misiewicz

    -----------------------------------------------------------------------


    Psi4 started on: Thursday, 23 April 2020 05:16PM

    Process ID: 4911
    Host:       node73.bme.utexas.edu
    PSIDATADIR: /home/liuchw/anaconda3/envs/psi4env/share/psi4
    Memory:     500.0 MiB
    Threads:    8
    
  ==> Input File <==

--------------------------------------------------------------------------
#Generated by lconvert.py for sapt job

memory 50 GB

molecule  {
0 1
  C      -1.635460   -0.589710    0.000260
  C      -1.253730    0.687370   -0.000210
  H      -1.799160   -1.127790   -0.922420
  H      -1.798090   -1.127430    0.923340
  H      -1.091050    1.226750    0.921740
  H      -1.092110    1.226260   -0.922630
--
0 1
  N       5.026200    0.028790   -0.000740
  H       5.409580   -0.441400    0.808720
  H       4.035540   -0.180180   -0.002180
  H       5.413360   -0.447430   -0.804870
units angstrom
no_reorient
symmetry c1
}

set {
scf_type DF
basis aug-cc-pvtz
freeze_core True
guess SAD
}
energy('sapt2+')
--------------------------------------------------------------------------

  Memory set to  46.566 GiB by Python driver.

Scratch directory: /scratch/liuchw/

  //>>>>>>>>>>>>>>>>>>>>>>>>>>>>>>>>>>>//
  //              Dimer HF             //
  //<<<<<<<<<<<<<<<<<<<<<<<<<<<<<<<<<<<//


*** tstart() called on node73.bme.utexas.edu
*** at Thu Apr 23 17:16:18 2020

   => Loading Basis Set <=

    Name: AUG-CC-PVTZ
    Role: ORBITAL
    Keyword: BASIS
    atoms 1-2       entry C          line   239 file /home/liuchw/anaconda3/envs/psi4env/share/psi4/basis/aug-cc-pvtz.gbs 
    atoms 3-6, 8-10 entry H          line    40 file /home/liuchw/anaconda3/envs/psi4env/share/psi4/basis/aug-cc-pvtz.gbs 
    atoms 7         entry N          line   285 file /home/liuchw/anaconda3/envs/psi4env/share/psi4/basis/aug-cc-pvtz.gbs 


         ---------------------------------------------------------
                                   SCF
               by Justin Turney, Rob Parrish, Andy Simmonett
                          and Daniel G. A. Smith
                              RHF Reference
                        8 Threads,  47683 MiB Core
         ---------------------------------------------------------

  ==> Geometry <==

    Molecular point group: c1
    Full point group: C1

    Geometry (in Angstrom), charge = 0, multiplicity = 1:

       Center              X                  Y                   Z               Mass       
    ------------   -----------------  -----------------  -----------------  -----------------
         C           -2.631092892337    -0.605179694802     0.000438636405    12.000000000000
         C           -2.249362892337     0.671900305198    -0.000031363595    12.000000000000
         H           -2.794792892337    -1.143259694802    -0.922241363595     1.007825032230
         H           -2.793722892337    -1.142899694802     0.923518636405     1.007825032230
         H           -2.086682892337     1.211280305198     0.921918636405     1.007825032230
         H           -2.087742892337     1.210790305198    -0.922451363595     1.007825032230
         N            4.030567107663     0.013320305198    -0.000561363595    14.003074004430
         H            4.413947107663    -0.456869694802     0.808898636405     1.007825032230
         H            3.039907107663    -0.195649694802    -0.002001363595     1.007825032230
         H            4.417727107663    -0.462899694802    -0.804691363595     1.007825032230

  Running in c1 symmetry.

  Rotational constants: A =      0.81808  B =      0.03753  C =      0.03662 [cm^-1]
  Rotational constants: A =  24525.41702  B =   1125.16513  C =   1097.98095 [MHz]
  Nuclear repulsion =   58.412691151679155

  Charge       = 0
  Multiplicity = 1
  Electrons    = 26
  Nalpha       = 13
  Nbeta        = 13

  ==> Algorithm <==

  SCF Algorithm Type is DF.
  DIIS enabled.
  MOM disabled.
  Fractional occupation disabled.
  Guess Type is SAD.
  Energy threshold   = 1.00e-08
  Density threshold  = 1.00e-08
  Integral threshold = 0.00e+00

  ==> Primary Basis <==

  Basis Set: AUG-CC-PVTZ
    Blend: AUG-CC-PVTZ
    Number of shells: 105
    Number of basis function: 299
    Number of Cartesian functions: 340
    Spherical Harmonics?: true
    Max angular momentum: 3

   => Loading Basis Set <=

    Name: (AUG-CC-PVTZ AUX)
    Role: JKFIT
    Keyword: DF_BASIS_SCF
    atoms 1-2       entry C          line   162 file /home/liuchw/anaconda3/envs/psi4env/share/psi4/basis/aug-cc-pvtz-jkfit.gbs 
    atoms 3-6, 8-10 entry H          line    70 file /home/liuchw/anaconda3/envs/psi4env/share/psi4/basis/aug-cc-pvtz-jkfit.gbs 
    atoms 7         entry N          line   224 file /home/liuchw/anaconda3/envs/psi4env/share/psi4/basis/aug-cc-pvtz-jkfit.gbs 

  ==> Pre-Iterations <==

   -------------------------------------------------------
    Irrep   Nso     Nmo     Nalpha   Nbeta   Ndocc  Nsocc
   -------------------------------------------------------
     A        299     299       0       0       0       0
   -------------------------------------------------------
    Total     299     299      13      13      13       0
   -------------------------------------------------------

  ==> Integral Setup <==

  ==> DiskDFJK: Density-Fitted J/K Matrices <==

    J tasked:                  Yes
    K tasked:                  Yes
    wK tasked:                  No
    OpenMP threads:              8
    Integrals threads:           8
    Memory [MiB]:            35762
    Algorithm:                Core
    Integral Cache:           SAVE
    Schwarz Cutoff:          1E-12
    Fitting Condition:       1E-10

   => Auxiliary Basis Set <=

  Basis Set: (AUG-CC-PVTZ AUX)
    Blend: AUG-CC-PVTZ-JKFIT
    Number of shells: 188
    Number of basis function: 634
    Number of Cartesian functions: 778
    Spherical Harmonics?: true
    Max angular momentum: 4

  Minimum eigenvalue in the overlap matrix is 4.7905664200E-06.
  Using Symmetric Orthogonalization.

  SCF Guess: Superposition of Atomic Densities via on-the-fly atomic UHF.

  ==> Iterations <==

                           Total Energy        Delta E     RMS |[F,P]|

   @DF-RHF iter SAD:  -132.91555678815325   -1.32916e+02   0.00000e+00 
   @DF-RHF iter   1:  -134.10777513438478   -1.19222e+00   1.99342e-03 DIIS
   @DF-RHF iter   2:  -134.24408396781817   -1.36309e-01   1.03647e-03 DIIS
   @DF-RHF iter   3:  -134.28371807617407   -3.96341e-02   1.26552e-04 DIIS
   @DF-RHF iter   4:  -134.28500246886244   -1.28439e-03   4.25406e-05 DIIS
   @DF-RHF iter   5:  -134.28510077788727   -9.83090e-05   7.23791e-06 DIIS
   @DF-RHF iter   6:  -134.28510596806240   -5.19018e-06   1.19434e-06 DIIS
   @DF-RHF iter   7:  -134.28510618952328   -2.21461e-07   3.50865e-07 DIIS
   @DF-RHF iter   8:  -134.28510620660819   -1.70849e-08   9.45471e-08 DIIS
   @DF-RHF iter   9:  -134.28510620760164   -9.93452e-10   3.85435e-08 DIIS
   @DF-RHF iter  10:  -134.28510620772164   -1.19996e-10   5.75128e-09 DIIS
  Energy and wave function converged.


  ==> Post-Iterations <==

    Orbital Energies [Eh]
    ---------------------

    Doubly Occupied:                                                      

       1A    -15.540755     2A    -11.232724     3A    -11.231004  
       4A     -1.142583     5A     -1.036028     6A     -0.795080  
       7A     -0.646233     8A     -0.626404     9A     -0.626114  
      10A     -0.589313    11A     -0.510012    12A     -0.430413  
      13A     -0.378549  

    Virtual:                                                              

      14A      0.026733    15A      0.037917    16A      0.039410  
      17A      0.041426    18A      0.053430    19A      0.060625  
      20A      0.063361    21A      0.088960    22A      0.102882  
      23A      0.119194    24A      0.122380    25A      0.125257  
      26A      0.142533    27A      0.145395    28A      0.155915  
      29A      0.163206    30A      0.171273    31A      0.173744  
      32A      0.180927    33A      0.190095    34A      0.198317  
      35A      0.219054    36A      0.232566    37A      0.239107  
      38A      0.239974    39A      0.241413    40A      0.248420  
      41A      0.271673    42A      0.290777    43A      0.291612  
      44A      0.303641    45A      0.320102    46A      0.325812  
      47A      0.346139    48A      0.356711    49A      0.362065  
      50A      0.367906    51A      0.372033    52A      0.386168  
      53A      0.388198    54A      0.396671    55A      0.401206  
      56A      0.401598    57A      0.402646    58A      0.409887  
      59A      0.431869    60A      0.439917    61A      0.449190  
      62A      0.450922    63A      0.450951    64A      0.452134  
      65A      0.462664    66A      0.465193    67A      0.493628  
      68A      0.498421    69A      0.499925    70A      0.516587  
      71A      0.534240    72A      0.589859    73A      0.593160  
      74A      0.604457    75A      0.606117    76A      0.614553  
      77A      0.623768    78A      0.668053    79A      0.699817  
      80A      0.752949    81A      0.766438    82A      0.785653  
      83A      0.790431    84A      0.793458    85A      0.806525  
      86A      0.815981    87A      0.823441    88A      0.826013  
      89A      0.858074    90A      0.884259    91A      0.887585  
      92A      0.901264    93A      0.913739    94A      0.914322  
      95A      0.917278    96A      0.922444    97A      0.925117  
      98A      0.933501    99A      0.938148   100A      0.945587  
     101A      0.949445   102A      0.965927   103A      0.969032  
     104A      0.980022   105A      1.007350   106A      1.010643  
     107A      1.010841   108A      1.023463   109A      1.040095  
     110A      1.042352   111A      1.056407   112A      1.068554  
     113A      1.068570   114A      1.071728   115A      1.085038  
     116A      1.089843   117A      1.092191   118A      1.105112  
     119A      1.112321   120A      1.116556   121A      1.124790  
     122A      1.134098   123A      1.147647   124A      1.148039  
     125A      1.154579   126A      1.174596   127A      1.175695  
     128A      1.202553   129A      1.225406   130A      1.225672  
     131A      1.271565   132A      1.296927   133A      1.327105  
     134A      1.344466   135A      1.355312   136A      1.364979  
     137A      1.381337   138A      1.403286   139A      1.455525  
     140A      1.471866   141A      1.489903   142A      1.569654  
     143A      1.602452   144A      1.608361   145A      1.621859  
     146A      1.625759   147A      1.676210   148A      1.692516  
     149A      1.729052   150A      1.762528   151A      1.764582  
     152A      1.768950   153A      1.772870   154A      1.779796  
     155A      1.787757   156A      1.812782   157A      1.820320  
     158A      1.858292   159A      1.865888   160A      1.866084  
     161A      1.872172   162A      1.932517   163A      1.965300  
     164A      2.005986   165A      2.040724   166A      2.043482  
     167A      2.050239   168A      2.051093   169A      2.062154  
     170A      2.075182   171A      2.075977   172A      2.105153  
     173A      2.118284   174A      2.120214   175A      2.218239  
     176A      2.254558   177A      2.287148   178A      2.309026  
     179A      2.338218   180A      2.345294   181A      2.377421  
     182A      2.384060   183A      2.433861   184A      2.441201  
     185A      2.449925   186A      2.476414   187A      2.558228  
     188A      2.636793   189A      2.887127   190A      3.010597  
     191A      3.027163   192A      3.234790   193A      3.242139  
     194A      3.262113   195A      3.277852   196A      3.291860  
     197A      3.336930   198A      3.396467   199A      3.426028  
     200A      3.459497   201A      3.478170   202A      3.489104  
     203A      3.558572   204A      3.558998   205A      3.584493  
     206A      3.603274   207A      3.618321   208A      3.702297  
     209A      3.718344   210A      3.739600   211A      3.757476  
     212A      3.791684   213A      3.848227   214A      3.851857  
     215A      3.879056   216A      3.975558   217A      3.976363  
     218A      3.980873   219A      4.019955   220A      4.056060  
     221A      4.092141   222A      4.098357   223A      4.107182  
     224A      4.137802   225A      4.146708   226A      4.164155  
     227A      4.212636   228A      4.232682   229A      4.239394  
     230A      4.267588   231A      4.270095   232A      4.292585  
     233A      4.315186   234A      4.333648   235A      4.359595  
     236A      4.364484   237A      4.379690   238A      4.387210  
     239A      4.480747   240A      4.513320   241A      4.551704  
     242A      4.560831   243A      4.563849   244A      4.584261  
     245A      4.586278   246A      4.695910   247A      4.698354  
     248A      4.706570   249A      4.740676   250A      4.745714  
     251A      4.838132   252A      4.915586   253A      4.939341  
     254A      4.948103   255A      4.951000   256A      4.951076  
     257A      4.955252   258A      4.973352   259A      4.997798  
     260A      5.060253   261A      5.060639   262A      5.065622  
     263A      5.095053   264A      5.163851   265A      5.258938  
     266A      5.271701   267A      5.273310   268A      5.290690  
     269A      5.291347   270A      5.343424   271A      5.503547  
     272A      5.584771   273A      5.588672   274A      5.616681  
     275A      5.621695   276A      5.691579   277A      5.699393  
     278A      5.721447   279A      5.900500   280A      5.905708  
     281A      5.998064   282A      6.050060   283A      6.095625  
     284A      6.355530   285A      6.358829   286A      6.403188  
     287A      6.475126   288A      6.571298   289A      6.622519  
     290A      6.668171   291A      6.731078   292A      6.948804  
     293A      6.952254   294A      6.987846   295A      7.698213  
     296A      7.703104   297A     16.897206   298A     17.266710  
     299A     17.323248  

    Final Occupation by Irrep:
              A 
    DOCC [    13 ]

  @DF-RHF Final Energy:  -134.28510620772164

   => Energetics <=

    Nuclear Repulsion Energy =             58.4126911516791552
    One-Electron Energy =                -295.8251687446003189
    Two-Electron Energy =                 103.1273713851995240
    Total Energy =                       -134.2851062077216397

Computation Completed


Properties will be evaluated at   0.000000,   0.000000,   0.000000 [a0]

Properties computed using the SCF density matrix

  Nuclear Dipole Moment: [e a0]
     X:     1.9651      Y:    -0.9183      Z:     0.0028

  Electronic Dipole Moment: [e a0]
     X:    -2.0987      Y:     0.2889      Z:    -0.0007

  Dipole Moment: [e a0]
     X:    -0.1336      Y:    -0.6294      Z:     0.0021     Total:     0.6434

  Dipole Moment: [D]
     X:    -0.3396      Y:    -1.5997      Z:     0.0054     Total:     1.6353


*** tstop() called on node73.bme.utexas.edu at Thu Apr 23 17:16:23 2020
Module time:
	user time   =      31.27 seconds =       0.52 minutes
	system time =       1.26 seconds =       0.02 minutes
	total time  =          5 seconds =       0.08 minutes
Total time:
	user time   =      31.27 seconds =       0.52 minutes
	system time =       1.26 seconds =       0.02 minutes
	total time  =          5 seconds =       0.08 minutes

  //>>>>>>>>>>>>>>>>>>>>>>>>>>>>>>>>>>>//
  //            Monomer A HF           //
  //<<<<<<<<<<<<<<<<<<<<<<<<<<<<<<<<<<<//


*** tstart() called on node73.bme.utexas.edu
*** at Thu Apr 23 17:16:23 2020

   => Loading Basis Set <=

    Name: AUG-CC-PVTZ
    Role: ORBITAL
    Keyword: BASIS
    atoms 1-2       entry C          line   239 file /home/liuchw/anaconda3/envs/psi4env/share/psi4/basis/aug-cc-pvtz.gbs 
    atoms 3-6, 8-10 entry H          line    40 file /home/liuchw/anaconda3/envs/psi4env/share/psi4/basis/aug-cc-pvtz.gbs 
    atoms 7         entry N          line   285 file /home/liuchw/anaconda3/envs/psi4env/share/psi4/basis/aug-cc-pvtz.gbs 


         ---------------------------------------------------------
                                   SCF
               by Justin Turney, Rob Parrish, Andy Simmonett
                          and Daniel G. A. Smith
                              RHF Reference
                        8 Threads,  47683 MiB Core
         ---------------------------------------------------------

  ==> Geometry <==

    Molecular point group: c1
    Full point group: C1

    Geometry (in Angstrom), charge = 0, multiplicity = 1:

       Center              X                  Y                   Z               Mass       
    ------------   -----------------  -----------------  -----------------  -----------------
         C           -2.631092892337    -0.605179694802     0.000438636405    12.000000000000
         C           -2.249362892337     0.671900305198    -0.000031363595    12.000000000000
         H           -2.794792892337    -1.143259694802    -0.922241363595     1.007825032230
         H           -2.793722892337    -1.142899694802     0.923518636405     1.007825032230
         H           -2.086682892337     1.211280305198     0.921918636405     1.007825032230
         H           -2.087742892337     1.210790305198    -0.922451363595     1.007825032230
      Gh(N)           4.030567107663     0.013320305198    -0.000561363595    14.003074004430
      Gh(H)           4.413947107663    -0.456869694802     0.808898636405     1.007825032230
      Gh(H)           3.039907107663    -0.195649694802    -0.002001363595     1.007825032230
      Gh(H)           4.417727107663    -0.462899694802    -0.804691363595     1.007825032230

  Running in c1 symmetry.

  Rotational constants: A =      0.81808  B =      0.03753  C =      0.03662 [cm^-1]
  Rotational constants: A =  24525.41702  B =   1125.16513  C =   1097.98095 [MHz]
  Nuclear repulsion =   33.419361642044862

  Charge       = 0
  Multiplicity = 1
  Electrons    = 16
  Nalpha       = 8
  Nbeta        = 8

  ==> Algorithm <==

  SCF Algorithm Type is DF.
  DIIS enabled.
  MOM disabled.
  Fractional occupation disabled.
  Guess Type is SAD.
  Energy threshold   = 1.00e-08
  Density threshold  = 1.00e-08
  Integral threshold = 0.00e+00

  ==> Primary Basis <==

  Basis Set: AUG-CC-PVTZ
    Blend: AUG-CC-PVTZ
    Number of shells: 105
    Number of basis function: 299
    Number of Cartesian functions: 340
    Spherical Harmonics?: true
    Max angular momentum: 3

   => Loading Basis Set <=

    Name: (AUG-CC-PVTZ AUX)
    Role: JKFIT
    Keyword: DF_BASIS_SCF
    atoms 1-2       entry C          line   162 file /home/liuchw/anaconda3/envs/psi4env/share/psi4/basis/aug-cc-pvtz-jkfit.gbs 
    atoms 3-6, 8-10 entry H          line    70 file /home/liuchw/anaconda3/envs/psi4env/share/psi4/basis/aug-cc-pvtz-jkfit.gbs 
    atoms 7         entry N          line   224 file /home/liuchw/anaconda3/envs/psi4env/share/psi4/basis/aug-cc-pvtz-jkfit.gbs 

  ==> Pre-Iterations <==

   -------------------------------------------------------
    Irrep   Nso     Nmo     Nalpha   Nbeta   Ndocc  Nsocc
   -------------------------------------------------------
     A        299     299       0       0       0       0
   -------------------------------------------------------
    Total     299     299       8       8       8       0
   -------------------------------------------------------

  ==> Integral Setup <==

  ==> DiskDFJK: Density-Fitted J/K Matrices <==

    J tasked:                  Yes
    K tasked:                  Yes
    wK tasked:                  No
    OpenMP threads:              8
    Integrals threads:           8
    Memory [MiB]:            35762
    Algorithm:                Core
    Integral Cache:           LOAD
    Schwarz Cutoff:          1E-12
    Fitting Condition:       1E-10

   => Auxiliary Basis Set <=

  Basis Set: (AUG-CC-PVTZ AUX)
    Blend: AUG-CC-PVTZ-JKFIT
    Number of shells: 188
    Number of basis function: 634
    Number of Cartesian functions: 778
    Spherical Harmonics?: true
    Max angular momentum: 4

  Minimum eigenvalue in the overlap matrix is 4.7905664200E-06.
  Using Symmetric Orthogonalization.

  SCF Guess: Superposition of Atomic Densities via on-the-fly atomic UHF.

  ==> Iterations <==

                           Total Energy        Delta E     RMS |[F,P]|

   @DF-RHF iter SAD:   -77.26987290430408   -7.72699e+01   0.00000e+00 
   @DF-RHF iter   1:   -77.98499049965096   -7.15118e-01   1.24215e-03 DIIS
   @DF-RHF iter   2:   -78.05245695681211   -6.74665e-02   5.08889e-04 DIIS
   @DF-RHF iter   3:   -78.06413935244468   -1.16824e-02   7.69359e-05 DIIS
   @DF-RHF iter   4:   -78.06470486446348   -5.65512e-04   7.66620e-06 DIIS
   @DF-RHF iter   5:   -78.06471116514066   -6.30068e-06   9.15204e-07 DIIS
   @DF-RHF iter   6:   -78.06471126516342   -1.00023e-07   1.12293e-07 DIIS
   @DF-RHF iter   7:   -78.06471126644514   -1.28172e-09   2.40621e-08 DIIS
   @DF-RHF iter   8:   -78.06471126649180   -4.66542e-11   1.09799e-08 DIIS
   @DF-RHF iter   9:   -78.06471126649865   -6.84963e-12   1.45046e-09 DIIS
  Energy and wave function converged.


  ==> Post-Iterations <==

    Orbital Energies [Eh]
    ---------------------

    Doubly Occupied:                                                      

       1A    -11.231379     2A    -11.229660     3A     -1.034641  
       4A     -0.793779     5A     -0.644894     6A     -0.588003  
       7A     -0.508721     8A     -0.377091  

    Virtual:                                                              

       9A      0.024819    10A      0.037272    11A      0.040039  
      12A      0.041062    13A      0.054104    14A      0.060840  
      15A      0.062595    16A      0.085445    17A      0.100600  
      18A      0.108502    19A      0.117738    20A      0.120855  
      21A      0.129788    22A      0.144289    23A      0.144596  
      24A      0.150430    25A      0.160632    26A      0.174188  
      27A      0.178094    28A      0.187105    29A      0.204612  
      30A      0.231208    31A      0.240908    32A      0.246733  
      33A      0.249234    34A      0.260478    35A      0.262290  
      36A      0.278104    37A      0.292491    38A      0.293432  
      39A      0.302673    40A      0.316303    41A      0.322330  
      42A      0.330054    43A      0.330627    44A      0.358081  
      45A      0.358540    46A      0.363544    47A      0.369660  
      48A      0.374627    49A      0.391241    50A      0.397176  
      51A      0.402604    52A      0.405976    53A      0.406946  
      54A      0.412992    55A      0.426070    56A      0.431615  
      57A      0.442617    58A      0.452371    59A      0.452509  
      60A      0.455610    61A      0.456640    62A      0.482123  
      63A      0.501073    64A      0.533308    65A      0.547779  
      66A      0.586923    67A      0.595049    68A      0.597973  
      69A      0.613943    70A      0.623379    71A      0.656869  
      72A      0.674950    73A      0.678122    74A      0.693000  
      75A      0.701137    76A      0.704862    77A      0.761414  
      78A      0.789126    79A      0.791804    80A      0.792785  
      81A      0.817458    82A      0.824670    83A      0.827362  
      84A      0.864741    85A      0.865134    86A      0.894215  
      87A      0.903752    88A      0.914390    89A      0.917663  
      90A      0.920264    91A      0.927896    92A      0.930423  
      93A      0.942848    94A      0.944693    95A      0.958267  
      96A      0.968117    97A      0.981447    98A      0.982894  
      99A      1.007950   100A      1.014232   101A      1.023155  
     102A      1.036750   103A      1.048793   104A      1.057158  
     105A      1.062380   106A      1.063848   107A      1.070438  
     108A      1.075548   109A      1.076534   110A      1.093873  
     111A      1.094697   112A      1.112176   113A      1.117175  
     114A      1.117695   115A      1.134905   116A      1.145606  
     117A      1.155502   118A      1.166975   119A      1.170053  
     120A      1.176563   121A      1.178145   122A      1.224392  
     123A      1.228963   124A      1.272367   125A      1.297082  
     126A      1.332853   127A      1.355823   128A      1.357643  
     129A      1.365727   130A      1.398346   131A      1.407784  
     132A      1.418391   133A      1.456834   134A      1.472026  
     135A      1.490771   136A      1.566292   137A      1.570890  
     138A      1.577838   139A      1.603045   140A      1.609638  
     141A      1.615491   142A      1.629259   143A      1.656822  
     144A      1.657301   145A      1.689893   146A      1.694153  
     147A      1.730556   148A      1.763740   149A      1.778829  
     150A      1.788776   151A      1.815858   152A      1.821799  
     153A      1.835078   154A      1.861621   155A      1.932872  
     156A      1.939579   157A      1.945871   158A      1.961284  
     159A      1.972591   160A      2.022671   161A      2.028628  
     162A      2.043309   163A      2.063677   164A      2.077416  
     165A      2.104704   166A      2.116129   167A      2.119604  
     168A      2.121669   169A      2.198449   170A      2.201242  
     171A      2.219518   172A      2.255860   173A      2.310643  
     174A      2.345594   175A      2.416781   176A      2.435516  
     177A      2.557087   178A      2.637247   179A      2.659602  
     180A      2.709702   181A      2.716957   182A      2.796615  
     183A      2.831818   184A      2.839289   185A      2.888828  
     186A      3.012067   187A      3.024565   188A      3.028541  
     189A      3.190364   190A      3.208077   191A      3.238180  
     192A      3.244294   193A      3.263798   194A      3.279220  
     195A      3.293489   196A      3.341501   197A      3.427388  
     198A      3.460977   199A      3.479912   200A      3.490472  
     201A      3.583495   202A      3.604535   203A      3.619646  
     204A      3.703791   205A      3.719622   206A      3.741330  
     207A      3.758790   208A      3.793387   209A      3.849559  
     210A      3.853241   211A      3.880448   212A      3.981900  
     213A      4.021144   214A      4.093484   215A      4.099731  
     216A      4.108587   217A      4.163811   218A      4.234499  
     219A      4.292723   220A      4.294997   221A      4.297871  
     222A      4.334809   223A      4.380826   224A      4.388411  
     225A      4.406402   226A      4.408515   227A      4.443931  
     228A      4.507581   229A      4.514673   230A      4.544916  
     231A      4.552439   232A      4.565199   233A      4.585485  
     234A      4.588221   235A      4.669369   236A      4.697197  
     237A      4.709271   238A      4.839360   239A      4.843708  
     240A      4.847007   241A      4.848431   242A      4.914770  
     243A      4.923553   244A      4.940756   245A      4.949459  
     246A      4.956535   247A      4.974579   248A      4.991574  
     249A      4.995562   250A      5.002772   251A      5.062111  
     252A      5.164989   253A      5.260153   254A      5.272981  
     255A      5.291868   256A      5.292632   257A      5.344586  
     258A      5.349265   259A      5.350456   260A      5.374353  
     261A      5.454975   262A      5.460207   263A      5.504869  
     264A      5.515813   265A      5.586072   266A      5.589939  
     267A      5.617812   268A      5.622941   269A      5.729456  
     270A      5.733163   271A      5.880745   272A      5.999352  
     273A      6.096878   274A      6.245594   275A      6.250559  
     276A      6.317161   277A      6.476433   278A      6.572601  
     279A      6.669474   280A      6.732332   281A      6.897314  
     282A      6.902303   283A      6.989140   284A      7.163451  
     285A      7.404897   286A      7.607889   287A      7.612094  
     288A      7.841724   289A      7.876376   290A      7.886306  
     291A      9.258547   292A      9.263841   293A      9.640087  
     294A     10.875258   295A     10.893878   296A     12.032139  
     297A     16.898534   298A     17.286738   299A     59.103480  

    Final Occupation by Irrep:
              A 
    DOCC [     8 ]

  @DF-RHF Final Energy:   -78.06471126649865

   => Energetics <=

    Nuclear Repulsion Energy =             33.4193616420448620
    One-Electron Energy =                -170.1518064495359681
    Two-Electron Energy =                  58.6677335409924510
    Total Energy =                        -78.0647112664986480

Computation Completed


Properties will be evaluated at   0.000000,   0.000000,   0.000000 [a0]

Properties computed using the SCF density matrix

  Nuclear Dipole Moment: [e a0]
     X:   -73.7856      Y:     1.0133      Z:     0.0060

  Electronic Dipole Moment: [e a0]
     X:    73.7848      Y:    -1.0128      Z:    -0.0060

  Dipole Moment: [e a0]
     X:    -0.0008      Y:     0.0005      Z:     0.0000     Total:     0.0010

  Dipole Moment: [D]
     X:    -0.0021      Y:     0.0013      Z:     0.0000     Total:     0.0025


*** tstop() called on node73.bme.utexas.edu at Thu Apr 23 17:16:26 2020
Module time:
	user time   =      18.26 seconds =       0.30 minutes
	system time =       0.85 seconds =       0.01 minutes
	total time  =          3 seconds =       0.05 minutes
Total time:
	user time   =      49.61 seconds =       0.83 minutes
	system time =       2.11 seconds =       0.04 minutes
	total time  =          8 seconds =       0.13 minutes

  //>>>>>>>>>>>>>>>>>>>>>>>>>>>>>>>>>>>//
  //            Monomer B HF           //
  //<<<<<<<<<<<<<<<<<<<<<<<<<<<<<<<<<<<//


*** tstart() called on node73.bme.utexas.edu
*** at Thu Apr 23 17:16:26 2020

   => Loading Basis Set <=

    Name: AUG-CC-PVTZ
    Role: ORBITAL
    Keyword: BASIS
    atoms 1-2       entry C          line   239 file /home/liuchw/anaconda3/envs/psi4env/share/psi4/basis/aug-cc-pvtz.gbs 
    atoms 3-6, 8-10 entry H          line    40 file /home/liuchw/anaconda3/envs/psi4env/share/psi4/basis/aug-cc-pvtz.gbs 
    atoms 7         entry N          line   285 file /home/liuchw/anaconda3/envs/psi4env/share/psi4/basis/aug-cc-pvtz.gbs 


         ---------------------------------------------------------
                                   SCF
               by Justin Turney, Rob Parrish, Andy Simmonett
                          and Daniel G. A. Smith
                              RHF Reference
                        8 Threads,  47683 MiB Core
         ---------------------------------------------------------

  ==> Geometry <==

    Molecular point group: c1
    Full point group: C1

    Geometry (in Angstrom), charge = 0, multiplicity = 1:

       Center              X                  Y                   Z               Mass       
    ------------   -----------------  -----------------  -----------------  -----------------
      Gh(C)          -2.631092892337    -0.605179694802     0.000438636405    12.000000000000
      Gh(C)          -2.249362892337     0.671900305198    -0.000031363595    12.000000000000
      Gh(H)          -2.794792892337    -1.143259694802    -0.922241363595     1.007825032230
      Gh(H)          -2.793722892337    -1.142899694802     0.923518636405     1.007825032230
      Gh(H)          -2.086682892337     1.211280305198     0.921918636405     1.007825032230
      Gh(H)          -2.087742892337     1.210790305198    -0.922451363595     1.007825032230
         N            4.030567107663     0.013320305198    -0.000561363595    14.003074004430
         H            4.413947107663    -0.456869694802     0.808898636405     1.007825032230
         H            3.039907107663    -0.195649694802    -0.002001363595     1.007825032230
         H            4.417727107663    -0.462899694802    -0.804691363595     1.007825032230

  Running in c1 symmetry.

  Rotational constants: A =      0.81808  B =      0.03753  C =      0.03662 [cm^-1]
  Rotational constants: A =  24525.41702  B =   1125.16513  C =   1097.98095 [MHz]
  Nuclear repulsion =   11.964879416800384

  Charge       = 0
  Multiplicity = 1
  Electrons    = 10
  Nalpha       = 5
  Nbeta        = 5

  ==> Algorithm <==

  SCF Algorithm Type is DF.
  DIIS enabled.
  MOM disabled.
  Fractional occupation disabled.
  Guess Type is SAD.
  Energy threshold   = 1.00e-08
  Density threshold  = 1.00e-08
  Integral threshold = 0.00e+00

  ==> Primary Basis <==

  Basis Set: AUG-CC-PVTZ
    Blend: AUG-CC-PVTZ
    Number of shells: 105
    Number of basis function: 299
    Number of Cartesian functions: 340
    Spherical Harmonics?: true
    Max angular momentum: 3

   => Loading Basis Set <=

    Name: (AUG-CC-PVTZ AUX)
    Role: JKFIT
    Keyword: DF_BASIS_SCF
    atoms 1-2       entry C          line   162 file /home/liuchw/anaconda3/envs/psi4env/share/psi4/basis/aug-cc-pvtz-jkfit.gbs 
    atoms 3-6, 8-10 entry H          line    70 file /home/liuchw/anaconda3/envs/psi4env/share/psi4/basis/aug-cc-pvtz-jkfit.gbs 
    atoms 7         entry N          line   224 file /home/liuchw/anaconda3/envs/psi4env/share/psi4/basis/aug-cc-pvtz-jkfit.gbs 

  ==> Pre-Iterations <==

   -------------------------------------------------------
    Irrep   Nso     Nmo     Nalpha   Nbeta   Ndocc  Nsocc
   -------------------------------------------------------
     A        299     299       0       0       0       0
   -------------------------------------------------------
    Total     299     299       5       5       5       0
   -------------------------------------------------------

  ==> Integral Setup <==

  ==> DiskDFJK: Density-Fitted J/K Matrices <==

    J tasked:                  Yes
    K tasked:                  Yes
    wK tasked:                  No
    OpenMP threads:              8
    Integrals threads:           8
    Memory [MiB]:            35762
    Algorithm:                Core
    Integral Cache:           LOAD
    Schwarz Cutoff:          1E-12
    Fitting Condition:       1E-10

   => Auxiliary Basis Set <=

  Basis Set: (AUG-CC-PVTZ AUX)
    Blend: AUG-CC-PVTZ-JKFIT
    Number of shells: 188
    Number of basis function: 634
    Number of Cartesian functions: 778
    Spherical Harmonics?: true
    Max angular momentum: 4

  Minimum eigenvalue in the overlap matrix is 4.7905664200E-06.
  Using Symmetric Orthogonalization.

  SCF Guess: Superposition of Atomic Densities via on-the-fly atomic UHF.

  ==> Iterations <==

                           Total Energy        Delta E     RMS |[F,P]|

   @DF-RHF iter SAD:   -55.64538445654643   -5.56454e+01   0.00000e+00 
   @DF-RHF iter   1:   -56.12245353026604   -4.77069e-01   1.56027e-03 DIIS
   @DF-RHF iter   2:   -56.19137496596635   -6.89214e-02   9.04023e-04 DIIS
   @DF-RHF iter   3:   -56.21956881135765   -2.81938e-02   8.18061e-05 DIIS
   @DF-RHF iter   4:   -56.22020311348571   -6.34302e-04   1.52794e-05 DIIS
   @DF-RHF iter   5:   -56.22022419899407   -2.10855e-05   2.81725e-06 DIIS
   @DF-RHF iter   6:   -56.22022538060776   -1.18161e-06   6.64702e-07 DIIS
   @DF-RHF iter   7:   -56.22022544891575   -6.83080e-08   1.34442e-07 DIIS
   @DF-RHF iter   8:   -56.22022545182150   -2.90575e-09   2.06095e-08 DIIS
   @DF-RHF iter   9:   -56.22022545188311   -6.16112e-11   5.00609e-09 DIIS
  Energy and wave function converged.


  ==> Post-Iterations <==

    Orbital Energies [Eh]
    ---------------------

    Doubly Occupied:                                                      

       1A    -15.542208     2A     -1.144028     3A     -0.627928  
       4A     -0.627491     5A     -0.431794  

    Virtual:                                                              

       6A      0.019132     7A      0.033887     8A      0.038348  
       9A      0.039509    10A      0.052825    11A      0.057423  
      12A      0.060965    13A      0.093456    14A      0.099012  
      15A      0.101276    16A      0.110853    17A      0.111641  
      18A      0.128822    19A      0.129136    20A      0.155378  
      21A      0.161506    22A      0.166327    23A      0.169599  
      24A      0.182263    25A      0.203388    26A      0.220542  
      27A      0.232764    28A      0.237981    29A      0.243472  
      30A      0.251613    31A      0.263362    32A      0.270390  
      33A      0.272395    34A      0.289032    35A      0.301616  
      36A      0.302282    37A      0.309242    38A      0.309582  
      39A      0.323065    40A      0.343828    41A      0.346036  
      42A      0.351868    43A      0.361618    44A      0.371192  
      45A      0.377189    46A      0.387543    47A      0.388038  
      48A      0.394003    49A      0.404080    50A      0.417569  
      51A      0.423432    52A      0.435041    53A      0.441169  
      54A      0.450419    55A      0.463549    56A      0.473654  
      57A      0.494320    58A      0.497636    59A      0.503953  
      60A      0.513830    61A      0.524241    62A      0.555718  
      63A      0.582935    64A      0.603703    65A      0.603963  
      66A      0.614726    67A      0.615281    68A      0.616101  
      69A      0.626232    70A      0.649436    71A      0.653129  
      72A      0.655810    73A      0.693625    74A      0.757853  
      75A      0.765742    76A      0.786061    77A      0.786750  
      78A      0.805537    79A      0.817346    80A      0.882720  
      81A      0.899714    82A      0.915988    83A      0.920066  
      84A      0.946497    85A      0.951370    86A      0.953970  
      87A      0.960663    88A      0.969529    89A      0.978562  
      90A      0.988414    91A      0.992617    92A      0.998517  
      93A      1.006326    94A      1.017676    95A      1.028761  
      96A      1.039113    97A      1.039806    98A      1.065830  
      99A      1.075142   100A      1.081284   101A      1.086537  
     102A      1.092439   103A      1.095256   104A      1.102063  
     105A      1.107037   106A      1.117906   107A      1.135540  
     108A      1.144475   109A      1.146948   110A      1.147718  
     111A      1.150059   112A      1.163244   113A      1.189644  
     114A      1.194601   115A      1.196551   116A      1.203852  
     117A      1.224477   118A      1.225006   119A      1.246310  
     120A      1.246732   121A      1.257417   122A      1.280308  
     123A      1.304766   124A      1.327048   125A      1.338253  
     126A      1.345305   127A      1.348466   128A      1.362877  
     129A      1.377865   130A      1.384565   131A      1.450734  
     132A      1.463544   133A      1.511718   134A      1.522754  
     135A      1.540930   136A      1.544367   137A      1.568058  
     138A      1.571675   139A      1.621155   140A      1.717438  
     141A      1.740699   142A      1.763310   143A      1.765403  
     144A      1.767682   145A      1.774105   146A      1.831419  
     147A      1.840510   148A      1.864241   149A      1.864531  
     150A      1.870456   151A      1.878992   152A      1.982898  
     153A      2.004147   154A      2.020982   155A      2.041813  
     156A      2.048887   157A      2.050398   158A      2.068309  
     159A      2.110177   160A      2.144098   161A      2.149174  
     162A      2.151779   163A      2.193961   164A      2.211931  
     165A      2.273549   166A      2.274947   167A      2.285069  
     168A      2.298971   169A      2.302686   170A      2.306564  
     171A      2.323278   172A      2.337473   173A      2.376674  
     174A      2.382353   175A      2.423769   176A      2.439595  
     177A      2.447714   178A      2.476153   179A      2.494306  
     180A      2.583032   181A      2.680590   182A      2.687524  
     183A      2.746484   184A      2.837261   185A      3.222190  
     186A      3.241020   187A      3.395328   188A      3.557005  
     189A      3.558742   190A      3.744604   191A      3.789653  
     192A      3.891868   193A      3.953612   194A      3.973824  
     195A      3.975359   196A      4.030297   197A      4.031733  
     198A      4.038347   199A      4.055233   200A      4.055631  
     201A      4.057892   202A      4.135999   203A      4.139471  
     204A      4.152908   205A      4.155331   206A      4.160177  
     207A      4.211209   208A      4.231331   209A      4.232945  
     210A      4.237955   211A      4.261006   212A      4.266242  
     213A      4.269507   214A      4.293073   215A      4.312922  
     216A      4.320923   217A      4.357612   218A      4.365119  
     219A      4.399840   220A      4.471236   221A      4.478802  
     222A      4.529793   223A      4.536740   224A      4.550342  
     225A      4.563360   226A      4.566676   227A      4.641245  
     228A      4.696955   229A      4.723030   230A      4.739191  
     231A      4.742584   232A      4.819911   233A      4.877619  
     234A      4.898678   235A      4.899348   236A      4.925422  
     237A      4.948640   238A      4.949618   239A      4.974870  
     240A      4.979349   241A      4.996233   242A      5.032551  
     243A      5.059127   244A      5.060549   245A      5.092969  
     246A      5.093984   247A      5.120572   248A      5.271714  
     249A      5.352040   250A      5.360224   251A      5.409701  
     252A      5.443214   253A      5.479211   254A      5.521795  
     255A      5.546257   256A      5.582793   257A      5.644785  
     258A      5.648492   259A      5.690119   260A      5.697624  
     261A      5.711110   262A      5.719998   263A      5.794713  
     264A      5.820475   265A      5.884749   266A      5.899002  
     267A      5.904290   268A      5.993610   269A      6.048688  
     270A      6.065331   271A      6.067699   272A      6.206702  
     273A      6.237543   274A      6.354122   275A      6.357334  
     276A      6.401791   277A      6.488004   278A      6.570552  
     279A      6.621050   280A      6.947379   281A      6.947965  
     282A      6.952215   283A      7.080105   284A      7.126546  
     285A      7.555292   286A      7.582940   287A      7.665340  
     288A      7.696864   289A      7.701691   290A      7.855745  
     291A      8.039862   292A      8.304061   293A      8.377214  
     294A      8.860929   295A     10.562029   296A     10.817066  
     297A     17.303215   298A     50.190262   299A     51.757115  

    Final Occupation by Irrep:
              A 
    DOCC [     5 ]

  @DF-RHF Final Energy:   -56.22022545188311

   => Energetics <=

    Nuclear Repulsion Energy =             11.9648794168003842
    One-Electron Energy =                 -99.6233104800995193
    Two-Electron Energy =                  31.4382056114160200
    Total Energy =                        -56.2202254518831097

Computation Completed


Properties will be evaluated at   0.000000,   0.000000,   0.000000 [a0]

Properties computed using the SCF density matrix

  Nuclear Dipole Moment: [e a0]
     X:    75.7507      Y:    -1.9316      Z:    -0.0033

  Electronic Dipole Moment: [e a0]
     X:   -75.8727      Y:     1.2929      Z:     0.0054

  Dipole Moment: [e a0]
     X:    -0.1220      Y:    -0.6387      Z:     0.0021     Total:     0.6502

  Dipole Moment: [D]
     X:    -0.3100      Y:    -1.6234      Z:     0.0054     Total:     1.6527


*** tstop() called on node73.bme.utexas.edu at Thu Apr 23 17:16:29 2020
Module time:
	user time   =      17.13 seconds =       0.29 minutes
	system time =       0.77 seconds =       0.01 minutes
	total time  =          3 seconds =       0.05 minutes
Total time:
	user time   =      66.92 seconds =       1.12 minutes
	system time =       2.89 seconds =       0.05 minutes
	total time  =         11 seconds =       0.18 minutes
  Constructing Basis Sets for SAPT...

   => Loading Basis Set <=

    Name: (AUG-CC-PVTZ AUX)
    Role: RIFIT
    Keyword: DF_BASIS_SAPT
    atoms 1-2       entry C          line   148 file /home/liuchw/anaconda3/envs/psi4env/share/psi4/basis/aug-cc-pvtz-ri.gbs 
    atoms 3-6, 8-10 entry H          line    30 file /home/liuchw/anaconda3/envs/psi4env/share/psi4/basis/aug-cc-pvtz-ri.gbs 
    atoms 7         entry N          line   206 file /home/liuchw/anaconda3/envs/psi4env/share/psi4/basis/aug-cc-pvtz-ri.gbs 


  //>>>>>>>>>>>>>>>>>>>>>>>>>>>>>>>>>>>//
  //               SAPT2+              //
  //<<<<<<<<<<<<<<<<<<<<<<<<<<<<<<<<<<<//


*** tstart() called on node73.bme.utexas.edu
*** at Thu Apr 23 17:16:29 2020

        SAPT2+  
    Ed Hohenstein
     6 June 2009

      Orbital Information
  --------------------------
    NSO        =       299
    NMO        =       299
    NRI        =       640
    NOCC A     =         8
    NOCC B     =         5
    FOCC A     =         2
    FOCC B     =         1
    NVIR A     =       291
    NVIR B     =       294

    Estimated memory usage: 575.3 MB

    Natural Orbital Cutoff:   1.000E-06
    Disp(T3) Truncation:            Yes
    CCD (vv|vv) Truncation:         Yes
    MBPT T2 Truncation:             Yes

    Monomer A: 138 virtual orbitals dropped
    Monomer B: 199 virtual orbitals dropped

    Elst10,r            =    -0.000166099387 [Eh]
    Exch10 (S^2)        =     0.000000718225 [Eh]
    Exch10              =     0.000000718226 [Eh]
    Ind20,r (A<-B)      =    -0.000003192762 [Eh]
    Ind20,r (B<-A)      =    -0.000001043134 [Eh]
    Ind20,r             =    -0.000004235896 [Eh]
    Exch-Ind20,r (A<-B) =     0.000000106083 [Eh]
    Exch-Ind20,r (B<-A) =     0.000000003288 [Eh]
    Exch-Ind20,r        =     0.000000109371 [Eh]
    Disp20              =    -0.000059884538 [Eh]
    Disp20 (NO)         =    -0.000057531058 [Eh]
    Exch-Disp20         =     0.000000122428 [Eh]
    Elst12,r            =     0.000024117921 [Eh]
    Exch11              =     0.000000022609 [Eh]
    Exch12              =    -0.000000059944 [Eh]
    Ind22               =     0.000000300135 [Eh]
    Disp21              =     0.000005110408 [Eh]
    Disp22 (SDQ)        =     0.000005893640 [Eh]

    (i =   1 of   4)          3 seconds
    (i =   2 of   4)          5 seconds
    (i =   3 of   4)          7 seconds
    (i =   4 of   4)         10 seconds

    Disp220 (T)         =    -0.000004747631 [Eh]

    (i =   1 of   6)          0 seconds
    (i =   2 of   6)          1 seconds
    (i =   3 of   6)          2 seconds
    (i =   4 of   6)          3 seconds
    (i =   5 of   6)          4 seconds
    (i =   6 of   6)          4 seconds

    Disp202 (T)         =    -0.000005271872 [Eh]

    Disp22 (T)          =    -0.000010019502 [Eh]

    Est. Disp220 (T)    =    -0.000004941847 [Eh]
    Est. Disp202 (T)    =    -0.000005487533 [Eh]

    Est. Disp22 (T)     =    -0.000010429380 [Eh]

    SAPT Results 
  --------------------------------------------------------------------------------------------------------
    Electrostatics                 -0.14198147 [mEh]      -0.08909471 [kcal/mol]      -0.37277229 [kJ/mol]
      Elst10,r                     -0.16609939 [mEh]      -0.10422894 [kcal/mol]      -0.43609388 [kJ/mol]
      Elst12,r                      0.02411792 [mEh]       0.01513422 [kcal/mol]       0.06332159 [kJ/mol]

    Exchange                        0.00068089 [mEh]       0.00042727 [kcal/mol]       0.00178768 [kJ/mol]
      Exch10                        0.00071823 [mEh]       0.00045069 [kcal/mol]       0.00188570 [kJ/mol]
      Exch10(S^2)                   0.00071822 [mEh]       0.00045069 [kcal/mol]       0.00188570 [kJ/mol]
      Exch11(S^2)                   0.00002261 [mEh]       0.00001419 [kcal/mol]       0.00005936 [kJ/mol]
      Exch12(S^2)                  -0.00005994 [mEh]      -0.00003762 [kcal/mol]      -0.00015738 [kJ/mol]

    Induction                      -0.00381579 [mEh]      -0.00239445 [kcal/mol]      -0.01001836 [kJ/mol]
      Ind20,r                      -0.00423590 [mEh]      -0.00265806 [kcal/mol]      -0.01112134 [kJ/mol]
      Ind22                         0.00030014 [mEh]       0.00018834 [kcal/mol]       0.00078800 [kJ/mol]
      Exch-Ind20,r                  0.00010937 [mEh]       0.00006863 [kcal/mol]       0.00028715 [kJ/mol]
      Exch-Ind22                   -0.00000775 [mEh]      -0.00000486 [kcal/mol]      -0.00002035 [kJ/mol]
      delta HF,r (2)                0.00001835 [mEh]       0.00001151 [kcal/mol]       0.00004817 [kJ/mol]

    Dispersion                     -0.05918744 [mEh]      -0.03714068 [kcal/mol]      -0.15539661 [kJ/mol]
      Disp20                       -0.05988454 [mEh]      -0.03757811 [kcal/mol]      -0.15722683 [kJ/mol]
      Disp21                        0.00511041 [mEh]       0.00320683 [kcal/mol]       0.01341737 [kJ/mol]
      Disp22 (SDQ)                  0.00589364 [mEh]       0.00369832 [kcal/mol]       0.01547375 [kJ/mol]
      Disp22 (T)                   -0.01001950 [mEh]      -0.00628733 [kcal/mol]      -0.02630620 [kJ/mol]
      Est. Disp22 (T)              -0.01042938 [mEh]      -0.00654453 [kcal/mol]      -0.02738233 [kJ/mol]
      Exch-Disp20                   0.00012243 [mEh]       0.00007682 [kcal/mol]       0.00032144 [kJ/mol]

  Total HF                         -0.16948934 [mEh]      -0.10635617 [kcal/mol]      -0.44499420 [kJ/mol]
  Total SAPT0                      -0.22925145 [mEh]      -0.14385746 [kcal/mol]      -0.60189960 [kJ/mol]
  Total SAPT2                      -0.20487848 [mEh]      -0.12856319 [kcal/mol]      -0.53790837 [kJ/mol]
  Total SAPT2+                     -0.20430381 [mEh]      -0.12820258 [kcal/mol]      -0.53639958 [kJ/mol]

  Special recipe for scaled SAPT0 (see Manual):
    Electrostatics sSAPT0          -0.16609939 [mEh]      -0.10422894 [kcal/mol]      -0.43609388 [kJ/mol]
    Exchange sSAPT0                 0.00071823 [mEh]       0.00045069 [kcal/mol]       0.00188570 [kJ/mol]
    Induction sSAPT0               -0.00410818 [mEh]      -0.00257792 [kcal/mol]      -0.01078602 [kJ/mol]
    Dispersion sSAPT0              -0.05976211 [mEh]      -0.03750129 [kcal/mol]      -0.15690540 [kJ/mol]
  Total sSAPT0                     -0.22925145 [mEh]      -0.14385746 [kcal/mol]      -0.60189960 [kJ/mol]
  --------------------------------------------------------------------------------------------------------

*** tstop() called on node73.bme.utexas.edu at Thu Apr 23 17:17:20 2020
Module time:
	user time   =     360.01 seconds =       6.00 minutes
	system time =      21.46 seconds =       0.36 minutes
	total time  =         51 seconds =       0.85 minutes
Total time:
	user time   =     427.86 seconds =       7.13 minutes
	system time =      24.41 seconds =       0.41 minutes
	total time  =         62 seconds =       1.03 minutes

    Psi4 stopped on: Thursday, 23 April 2020 05:17PM
    Psi4 wall time for execution: 0:01:02.70

*** Psi4 exiting successfully. Buy a developer a beer!
